Title
82252
    1SAPS     N    1   1.816   2.820  11.000 -0.3703 -0.1943 -0.0081
    1SAPS   HN1    2   1.878   2.901  10.978 -0.0014 -0.2677  0.7492
    1SAPS   HN2    3   1.869   2.733  11.022  0.4540  0.3569  0.2274
    1SAPS   HN3    4   1.752   2.813  10.919 -1.6615  2.6692  0.6938
    1SAPS   C12    5   1.725   2.856  11.110  0.1428  0.0951 -0.4259
    1SAPS  H12A    6   1.786   2.851  11.198 -0.2681  1.1709 -0.0775
    1SAPS   C13    7   1.668   3.001  11.107 -0.4403 -0.4531  0.4783
    1SAPS  O13A    8   1.690   3.070  11.006  0.1113 -0.3100  0.5841
    1SAPS  O13B    9   1.609   3.054  11.204 -0.3252  0.5112 -0.2480
    1SAPS   C11   10   1.611   2.751  11.109 -0.3338  0.2940  0.2793
    1SAPS  H11A   11   1.538   2.788  11.035 -0.9525 -1.1297  0.1615
    1SAPS  H11B   12   1.565   2.772  11.208  1.1184  0.6378  0.9009
    1SAPS     P   13   1.577   2.489  11.133 -0.4623  0.2009  0.0691
    1SAPS   O13   14   1.632   2.441  11.260  0.0228 -0.3051 -0.1593
    1SAPS   O14   15   1.433   2.517  11.133  0.5639 -0.5106 -0.2208
    1SAPS   O12   16   1.661   2.621  11.097  0.3153 -0.1468  0.0448
    1SAPS   O11   17   1.596   2.384  11.022  0.0773  0.3084  0.2971
    1SAPS    C1   18   1.731   2.353  10.961 -0.7524  0.6566  0.6932
    1SAPS    HA   19   1.815   2.374  11.029 -1.1351  0.4345  1.2393
    1SAPS    HB   20   1.722   2.243  10.948 -0.7347  0.8704 -1.3117
    1SAPS    C2   21   1.748   2.415  10.817 -0.3201 -0.3088  0.1440
    1SAPS    HS   22   1.734   2.524  10.835 -1.5789  0.1282 -3.2283
    1SAPS   O21   23   1.658   2.350  10.721 -0.0855  0.6622  0.2276
    1SAPS   C21   24   1.607   2.432  10.635  0.0519  0.1286 -0.5588
    1SAPS   O22   25   1.608   2.553  10.646 -0.3590  0.3283  0.1022
    1SAPS   C22   26   1.541   2.365  10.516 -0.3403  0.4063  0.2224
    1SAPS   H2R   27   1.600   2.400  10.428 -0.9184 -0.8262 -0.6760
    1SAPS   H2S   28   1.555   2.256  10.530  1.6401  0.8853  2.3528
    1SAPS    C3   29   1.894   2.398  10.762 -0.9867 -0.5189  0.0710
    1SAPS    HX   30   1.903   2.289  10.742  2.3495  0.0893 -2.0160
    1SAPS    HY   31   1.964   2.428  10.843 -1.1617 -3.0014  1.1971
    1SAPS   O31   32   1.916   2.463  10.628  0.1368  0.2954  0.2421
    1SAPS   C31   33   1.931   2.596  10.639  0.3389 -0.6059  0.4787
    1SAPS   O32   34   1.938   2.658  10.744 -0.4374  0.3733 -0.0239
    1SAPS   C32   35   1.938   2.662  10.501 -0.0468 -0.3667  0.5185
    1SAPS   H2X   36   1.921   2.769  10.525  1.3255  0.2879 -1.3584
    1SAPS   H2Y   37   1.855   2.612  10.446  0.0371 -1.4124  1.3214
    1SAPS   C23   38   1.394   2.394  10.498 -0.1694  0.1389  0.0696
    1SAPS   H3R   39   1.396   2.498  10.458  0.0543  0.1320  0.0628
    1SAPS   H3S   40   1.329   2.385  10.587 -1.6753  0.0918 -1.0024
    1SAPS   C24   41   1.333   2.308  10.380 -0.4374 -0.9891 -0.0861
    1SAPS   H4R   42   1.398   2.317  10.291 -0.5700  0.4753 -0.0468
    1SAPS   H4S   43   1.241   2.362  10.350 -0.0852 -0.0400  0.5156
    1SAPS   C25   44   1.296   2.172  10.440  0.5484  0.1884  0.4064
    1SAPS   H5R   45   1.366   2.128  10.513  0.6482  0.4083  0.4449
    1SAPS   C26   46   1.186   2.089  10.417  0.1340 -0.1004 -0.1017
    1SAPS   H6R   47   1.176   1.990  10.463  2.7081 -0.0860  0.5844
    1SAPS   C27   48   1.070   2.114  10.325 -0.2760  0.2681 -0.1641
    1SAPS   H7R   49   1.027   2.017  10.293  2.2158 -0.8885 -0.0976
    1SAPS   H7S   50   1.110   2.167  10.236  0.8563 -0.9924 -0.4194
    1SAPS   C28   51   0.960   2.196  10.385 -0.4937  0.0982  0.5499
    1SAPS   H8R   52   0.972   2.230  10.489  0.6478  1.2122  0.0628
    1SAPS   C29   53   0.855   2.220  10.316  0.2858  0.9238 -0.0941
    1SAPS   H9R   54   0.777   2.287  10.354  1.3393  1.2700  1.4858
    1SAPS  C210   55   0.828   2.186  10.171 -0.3142  1.2157  0.4683
    1SAPS  H10R   56   0.720   2.177  10.145  0.2798 -1.6021 -1.1553
    1SAPS  H10S   57   0.883   2.096  10.137 -1.0314  0.7378  0.5684
    1SAPS  C211   58   0.877   2.300  10.078  0.1386 -0.0748  0.3938
    1SAPS  H11R   59   0.923   2.381  10.137 -0.5913  0.3840  0.3242
    1SAPS  C212   60   0.865   2.307   9.947  0.0302  0.3658 -0.3945
    1SAPS  H12R   61   0.903   2.395   9.893 -2.6515  2.5818  1.1492
    1SAPS  C213   62   0.808   2.196   9.861  0.3230  0.4725 -0.6560
    1SAPS  H13R   63   0.738   2.245   9.790 -1.3014 -0.0798  0.5296
    1SAPS  H13S   64   0.748   2.125   9.921  2.0197  0.3866  1.0118
    1SAPS  C214   65   0.909   2.121   9.787  0.1059  0.3000 -0.4017
    1SAPS  H14R   66   0.984   2.068   9.847 -2.5326 -3.0259  0.1346
    1SAPS  C215   67   0.909   2.120   9.651  0.2540  0.1124 -0.5251
    1SAPS  H15R   68   0.998   2.074   9.605  2.0897  3.3890 -0.4351
    1SAPS  C216   69   0.810   2.192   9.565 -0.1732 -0.4016 -0.0239
    1SAPS  H16R   70   0.779   2.290   9.607  0.3497  0.6795 -2.0706
    1SAPS  H16S   71   0.729   2.122   9.534  0.0058  0.0286 -1.5361
    1SAPS  C217   72   0.889   2.239   9.448 -0.6540  0.6910  0.1090
    1SAPS  H17R   73   0.981   2.295   9.476  0.4972 -1.0797 -0.0364
    1SAPS  H17S   74   0.821   2.291   9.377  0.2652 -0.2387 -1.5049
    1SAPS  C218   75   0.938   2.126   9.353 -0.5442 -0.1194  1.1997
    1SAPS  H18R   76   0.866   2.044   9.335 -1.6426  1.0958  0.0403
    1SAPS  H18S   77   1.030   2.089   9.405 -0.1511 -0.8824 -0.0238
    1SAPS  C219   78   0.995   2.191   9.222  0.0861 -0.0548  0.4544
    1SAPS  H19R   79   1.093   2.230   9.255  0.5106 -0.0170 -0.8194
    1SAPS  H19S   80   0.936   2.283   9.205 -1.0973 -0.9033 -0.1428
    1SAPS  C220   81   0.997   2.099   9.101 -0.3058 -0.4414  0.1319
    1SAPS  H20R   82   1.034   2.147   9.009 -0.6176  1.5858  1.0500
    1SAPS  H20S   83   0.894   2.064   9.080 -0.1896 -0.7483  0.0606
    1SAPS  H20T   84   1.063   2.012   9.123 -0.1698 -0.3538  0.0741
    1SAPS   C33   85   2.072   2.654  10.426 -0.4932 -0.2600 -0.2075
    1SAPS   H3X   86   2.087   2.544  10.420 -0.3124 -0.2044 -0.9238
    1SAPS   H3Y   87   2.157   2.698  10.483  0.1453 -1.2431 -0.3845
    1SAPS   C34   88   2.075   2.717  10.291 -0.1109 -0.3985  0.1559
    1SAPS   H4X   89   2.071   2.827  10.279  2.5402 -0.3379 -0.6031
    1SAPS   H4Y   90   1.986   2.687  10.232 -0.4628  0.8465  0.0524
    1SAPS   C35   91   2.192   2.658  10.204 -0.0447 -0.4656 -0.4206
    1SAPS   H5X   92   2.167   2.552  10.183  1.6736 -0.7343 -1.1458
    1SAPS   H5Y   93   2.286   2.679  10.258 -0.3126  2.4858 -1.0052
    1SAPS   C36   94   2.205   2.749  10.076  0.6008  0.2481 -0.7189
    1SAPS   H6X   95   2.297   2.718  10.021  1.0115 -0.5315  0.4000
    1SAPS   H6Y   96   2.231   2.851  10.113 -0.6674  0.5259 -0.5954
    1SAPS   C37   97   2.081   2.747   9.977 -0.5181 -1.1911  0.2542
    1SAPS   H7X   98   1.990   2.795  10.019  0.5500  1.6428 -0.5978
    1SAPS   H7Y   99   2.068   2.640   9.947 -0.1044 -0.2783 -3.4215
    1SAPS   C38  100   2.117   2.838   9.846 -0.5287  0.4771  0.0236
    1SAPS   H8X  101   2.219   2.809   9.815 -0.8542  0.8086 -1.3874
    1SAPS   H8Y  102   2.128   2.944   9.877  0.8397  0.2001  0.5241
    1SAPS   C39  103   2.032   2.834   9.724 -0.2669 -0.5567  0.5686
    1SAPS   H9X  104   1.934   2.856   9.772  0.7248  0.1179  2.3182
    1SAPS   H9Y  105   2.034   2.731   9.683 -0.0707 -0.5454  0.5517
    1SAPS  C310  106   2.066   2.950   9.622  0.0697 -0.1463 -0.3047
    1SAPS  H10X  107   2.170   2.936   9.586 -0.4468  1.0746 -2.3608
    1SAPS  H10Y  108   2.057   3.045   9.679  0.0933 -0.9777  1.1051
    1SAPS  C311  109   1.964   2.951   9.509  0.9930 -0.5585  0.2609
    1SAPS  H11X  110   1.865   2.935   9.558  1.0362  0.6144  0.7461
    1SAPS  H11Y  111   1.983   2.865   9.441  1.6910  0.1198 -0.4169
    1SAPS  C312  112   1.956   3.090   9.432 -0.3987 -0.1943 -0.1507
    1SAPS  H12X  113   2.058   3.118   9.399 -0.8660 -0.3245 -1.7074
    1SAPS  H12Y  114   1.925   3.169   9.504 -2.2539 -0.6391 -0.4306
    1SAPS  C313  115   1.868   3.080   9.304 -0.1733  0.1619  0.6123
    1SAPS  H13X  116   1.763   3.079   9.341 -0.9926 -0.4250 -1.6557
    1SAPS  H13Y  117   1.872   2.978   9.260 -0.6017  0.0621  0.8026
    1SAPS  C314  118   1.907   3.195   9.218 -0.7573 -0.4035  0.1702
    1SAPS  H14X  119   2.013   3.177   9.190  0.0132  0.7829  2.2476
    1SAPS  H14Y  120   1.911   3.292   9.272 -0.9140 -0.3276  0.0447
    1SAPS  C315  121   1.828   3.207   9.088 -0.0731  0.1247  0.7019
    1SAPS  H15X  122   1.731   3.240   9.130  0.2310  1.1678  0.6018
    1SAPS  H15Y  123   1.817   3.106   9.045 -0.6675 -0.0327  1.2152
    1SAPS  C316  124   1.891   3.313   8.993  0.3480  0.4945 -0.2263
    1SAPS  H16X  125   1.992   3.270   8.972  0.3764 -0.5020  1.8404
    1SAPS  H16Y  126   1.902   3.407   9.052  0.3678  0.7063 -0.5680
    1SAPS  C317  127   1.819   3.326   8.856  0.2587  0.6666  0.4299
    1SAPS  H17X  128   1.884   3.397   8.800  1.4750 -0.7879 -0.0618
    1SAPS  H17Y  129   1.718   3.370   8.871  0.4689  0.8618  1.2973
    1SAPS  C318  130   1.816   3.212   8.748 -0.2436 -0.0206  0.5632
    1SAPS  H18X  131   1.735   3.238   8.677  2.1659  0.2255 -2.1776
    1SAPS  H18Y  132   1.796   3.113   8.793 -1.8670  1.3146  2.8786
    1SAPS  H18Z  133   1.915   3.224   8.698  0.4800  2.4495  2.4858
    2SAPS     N  134   6.494   2.705  10.846  0.0158 -0.5527 -0.0888
    2SAPS   HN1  135   6.428   2.772  10.802  1.7736  0.6700 -0.9342
    2SAPS   HN2  136   6.450   2.694  10.940  1.7162  3.7018  1.3444
    2SAPS   HN3  137   6.586   2.753  10.858  1.1778 -2.8126  0.2864
    2SAPS   C12  138   6.506   2.581  10.761  0.0743  0.5683  0.1762
    2SAPS  H12A  139   6.531   2.618  10.663 -2.0852  2.2608  0.2372
    2SAPS   C13  140   6.631   2.495  10.808  0.0433  0.0550  0.2941
    2SAPS  O13A  141   6.694   2.539  10.907  0.1680  0.1709 -0.0233
    2SAPS  O13B  142   6.670   2.401  10.736 -0.3714 -0.1533 -0.0833
    2SAPS   C11  143   6.380   2.496  10.769  0.2870  0.4115 -0.6286
    2SAPS  H11A  144   6.367   2.450  10.870  1.8790  0.7448 -0.2664
    2SAPS  H11B  145   6.384   2.406  10.705  0.5707  1.0773 -1.5420
    2SAPS     P  146   6.185   2.604  10.624 -0.2396 -0.0687  0.2948
    2SAPS   O13  147   6.069   2.519  10.627 -0.5446 -0.3736 -0.4920
    2SAPS   O14  148   6.156   2.750  10.610 -0.0233 -0.1126  0.1169
    2SAPS   O12  149   6.272   2.583  10.748  0.2613  0.1121  0.4212
    2SAPS   O11  150   6.287   2.556  10.509 -0.3845 -0.3073  0.1805
    2SAPS    C1  151   6.334   2.657  10.419  0.3948  0.0486 -1.2874
    2SAPS    HA  152   6.254   2.712  10.366  0.7893  0.7305 -1.1774
    2SAPS    HB  153   6.384   2.730  10.486 -0.8988 -0.6947  0.5488
    2SAPS    C2  154   6.438   2.599  10.317 -0.4002  0.4507  0.4968
    2SAPS    HS  155   6.475   2.685  10.256  0.9257 -1.5690 -1.6024
    2SAPS   O21  156   6.393   2.501  10.225  0.1809 -0.1250  0.0963
    2SAPS   C21  157   6.321   2.553  10.120 -0.0812 -0.2280 -0.0901
    2SAPS   O22  158   6.281   2.667  10.124  0.3544 -0.4199  0.0731
    2SAPS   C22  159   6.298   2.449  10.010  0.1657 -0.7333  0.2488
    2SAPS   H2R  160   6.243   2.362  10.052 -2.0523  0.8734  0.7479
    2SAPS   H2S  161   6.231   2.503   9.940  0.5998  1.0872  1.2144
    2SAPS    C3  162   6.549   2.535  10.392 -0.1194  0.8431  0.5958
    2SAPS    HX  163   6.495   2.478  10.469 -0.3390 -0.3449 -0.4199
    2SAPS    HY  164   6.610   2.610  10.447 -1.0526  0.4723  2.1582
    2SAPS   O31  165   6.634   2.449  10.302 -0.0663 -0.1535 -0.6791
    2SAPS   C31  166   6.626   2.323  10.308  0.1827  0.1532  0.1877
    2SAPS   O32  167   6.562   2.252  10.384 -0.1120  0.3754  1.1263
    2SAPS   C32  168   6.739   2.264  10.219 -0.7100 -0.3057 -0.6212
    2SAPS   H2X  169   6.832   2.318  10.248 -0.4971 -1.1696  0.3462
    2SAPS   H2Y  170   6.711   2.297  10.117 -1.5090 -2.3815 -1.1124
    2SAPS   C23  171   6.429   2.392   9.946 -0.1374 -0.3804  0.1363
    2SAPS   H3R  172   6.408   2.324   9.861 -0.5756  0.8134 -0.7148
    2SAPS   H3S  173   6.469   2.327  10.027 -2.6882 -1.5374  0.5016
    2SAPS   C24  174   6.515   2.503   9.888 -0.1831 -0.5536  0.2857
    2SAPS   H4R  175   6.612   2.460   9.855 -0.5956 -1.8457  0.7205
    2SAPS   H4S  176   6.532   2.584   9.962 -2.2920  0.6711 -0.5362
    2SAPS   C25  177   6.443   2.570   9.773  0.2585 -0.3128 -0.2657
    2SAPS   H5R  178   6.362   2.640   9.799  0.2575 -0.7066  0.8318
    2SAPS   C26  179   6.472   2.573   9.642 -0.5501  0.4423 -0.2285
    2SAPS   H6R  180   6.404   2.624   9.573 -1.2523 -1.2567 -0.7955
    2SAPS   C27  181   6.591   2.505   9.576  0.4161 -0.4002 -0.3265
    2SAPS   H7R  182   6.665   2.475   9.654  0.7875 -1.6992 -1.1759
    2SAPS   H7S  183   6.657   2.575   9.522  2.2854 -2.2099 -0.4590
    2SAPS   C28  184   6.546   2.395   9.481 -0.1202  0.2222 -0.3366
    2SAPS   H8R  185   6.516   2.306   9.539  1.9209 -0.7787 -0.7401
    2SAPS   C29  186   6.549   2.398   9.342 -0.3035  0.0053 -0.2110
    2SAPS   H9R  187   6.520   2.308   9.286 -3.4949 -0.2009  1.6619
    2SAPS  C210  188   6.593   2.516   9.259 -0.2939 -0.5984  0.4150
    2SAPS  H10R  189   6.567   2.607   9.316 -0.2124  0.5137 -1.3070
    2SAPS  H10S  190   6.541   2.517   9.161  1.9834  0.7842 -0.8384
    2SAPS  C211  191   6.741   2.512   9.239 -0.3374 -0.6449 -0.0940
    2SAPS  H11R  192   6.811   2.505   9.323  0.1311 -3.7541 -0.6871
    2SAPS  C212  193   6.804   2.507   9.121 -0.0552  0.2444 -0.3020
    2SAPS  H12R  194   6.910   2.479   9.128  0.0080  0.7194  0.7312
    2SAPS  C213  195   6.732   2.517   8.989  0.0501 -0.1777 -0.1324
    2SAPS  H13R  196   6.699   2.622   8.979  0.8188 -0.1736 -2.9316
    2SAPS  H13S  197   6.644   2.450   8.977 -1.0095  0.9341  1.1845
    2SAPS  C214  198   6.827   2.484   8.874  0.6901 -0.2351  0.2030
    2SAPS  H14R  199   6.891   2.567   8.841 -0.1847 -0.2160 -1.4448
    2SAPS  C215  200   6.839   2.367   8.817  0.1885 -0.2087  0.4091
    2SAPS  H15R  201   6.907   2.347   8.733  0.2657  0.1377  0.3855
    2SAPS  C216  202   6.760   2.246   8.849  0.9123  0.4858  0.1372
    2SAPS  H16R  203   6.742   2.201   8.749 -0.3680  0.0297  0.5560
    2SAPS  H16S  204   6.659   2.276   8.884 -1.1492 -1.3726 -3.9181
    2SAPS  C217  205   6.824   2.140   8.948 -0.7627  0.2337  0.1809
    2SAPS  H17R  206   6.747   2.060   8.962 -1.1293  0.2411 -1.6610
    2SAPS  H17S  207   6.854   2.189   9.043  1.0085 -0.6919  0.1129
    2SAPS  C218  208   6.958   2.073   8.903  0.2667  0.0641  0.3987
    2SAPS  H18R  209   7.040   2.148   8.903  0.3830 -0.0468 -0.8135
    2SAPS  H18S  210   6.931   2.030   8.804  1.0490 -1.8289  0.9910
    2SAPS  C219  211   6.991   1.953   8.996  0.0865  0.3730 -0.3034
    2SAPS  H19R  212   7.092   1.909   8.985 -0.3535 -0.4981 -0.9341
    2SAPS  H19S  213   6.925   1.871   8.960  0.2649 -0.4403  1.1735
    2SAPS  C220  214   6.978   1.954   9.151  0.6918  0.1996  0.5766
    2SAPS  H20R  215   7.052   2.029   9.185  0.6436  0.1481  0.7959
    2SAPS  H20S  216   7.007   1.853   9.187  0.8694 -0.7511 -2.0984
    2SAPS  H20T  217   6.876   1.973   9.192  0.9313 -0.7915  1.6842
    2SAPS   C33  218   6.744   2.115  10.207 -0.4324 -0.3716  0.3292
    2SAPS   H3X  219   6.644   2.065  10.207 -0.4945 -0.2491  0.4686
    2SAPS   H3Y  220   6.793   2.080  10.300  1.5188  1.6253  0.0772
    2SAPS   C34  221   6.824   2.069  10.081 -0.9047 -0.0201  0.2159
    2SAPS   H4X  222   6.822   1.958  10.086 -1.1653  0.0301  1.3940
    2SAPS   H4Y  223   6.930   2.102  10.093 -1.6774  2.0630  1.6692
    2SAPS   C35  224   6.771   2.108   9.939  0.8218 -0.5343  0.9029
    2SAPS   H5X  225   6.778   2.218   9.929  0.5351 -0.6997 -1.2696
    2SAPS   H5Y  226   6.667   2.067   9.945  0.2054  0.8400 -0.3208
    2SAPS   C36  227   6.841   2.045   9.813  0.0896 -0.8370 -0.5545
    2SAPS   H6X  228   6.819   1.937   9.805  0.1466 -0.8154 -1.0275
    2SAPS   H6Y  229   6.948   2.074   9.815 -0.1558  0.2577 -1.9610
    2SAPS   C37  230   6.782   2.113   9.679  0.5791  0.0826 -0.0080
    2SAPS   H7X  231   6.858   2.170   9.623 -0.0055  0.7149 -0.1742
    2SAPS   H7Y  232   6.706   2.189   9.709  1.3600  0.9792 -0.3022
    2SAPS   C38  233   6.718   2.008   9.589  0.1681  0.2626  0.0390
    2SAPS   H8X  234   6.646   1.948   9.650 -0.6611  1.0520 -0.1551
    2SAPS   H8Y  235   6.802   1.941   9.561 -0.1385  0.8340 -2.3380
    2SAPS   C39  236   6.661   2.066   9.462 -0.3629  0.2155  0.2823
    2SAPS   H9X  237   6.736   2.130   9.410  0.8120 -0.9821  0.4437
    2SAPS   H9Y  238   6.576   2.131   9.490 -1.6342 -1.1645 -0.2423
    2SAPS  C310  239   6.629   1.965   9.362  0.0067 -0.0264  0.8264
    2SAPS  H10X  240   6.551   1.895   9.400 -0.3099  0.5651  1.2736
    2SAPS  H10Y  241   6.716   1.900   9.335 -1.3187 -0.8645 -1.5919
    2SAPS  C311  242   6.575   2.042   9.239  0.3344  0.2304 -0.0574
    2SAPS  H11X  243   6.643   2.121   9.200 -0.7586  1.4456  0.4520
    2SAPS  H11Y  244   6.485   2.099   9.270 -0.2941 -0.4125 -0.6815
    2SAPS  C312  245   6.549   1.948   9.129 -0.0016 -0.2500 -0.6738
    2SAPS  H12X  246   6.484   1.867   9.166 -1.0804  2.0077  2.6275
    2SAPS  H12Y  247   6.640   1.894   9.094  0.1988 -2.7420  3.4737
    2SAPS  C313  248   6.485   2.016   9.005  0.4045  0.2570  0.9070
    2SAPS  H13X  249   6.534   2.109   8.971 -2.0805  0.2605 -2.9690
    2SAPS  H13Y  250   6.386   2.055   9.038  0.0133  0.2914 -0.2850
    2SAPS  C314  251   6.466   1.918   8.885  0.0915 -0.2533  0.3404
    2SAPS  H14X  252   6.385   1.956   8.819  1.0415 -1.0247 -1.2866
    2SAPS  H14Y  253   6.439   1.815   8.917 -1.6446  0.3140  0.7866
    2SAPS  C315  254   6.601   1.902   8.813 -0.4296 -0.4874  0.0006
    2SAPS  H15X  255   6.663   1.830   8.872  0.6869 -0.9631 -1.7014
    2SAPS  H15Y  256   6.658   1.994   8.789  1.2985 -1.3023  0.9002
    2SAPS  C316  257   6.571   1.826   8.681 -0.4770  0.0176  0.0527
    2SAPS  H16X  258   6.509   1.901   8.626 -0.4571 -0.0398 -0.0498
    2SAPS  H16Y  259   6.514   1.733   8.699  0.0993 -0.3690 -0.1032
    2SAPS  C317  260   6.703   1.789   8.610 -0.4577 -0.3521  0.1026
    2SAPS  H17X  261   6.774   1.874   8.602  0.2580 -1.2489 -3.7514
    2SAPS  H17Y  262   6.688   1.759   8.504 -0.5905  0.4557 -0.1068
    2SAPS  C318  263   6.780   1.678   8.680  0.5830  0.5032  0.5542
    2SAPS  H18X  264   6.719   1.586   8.695 -0.5614  1.0401 -0.5812
    2SAPS  H18Y  265   6.818   1.719   8.776  0.1572  2.6040 -0.1428
    2SAPS  H18Z  266   6.861   1.648   8.610 -2.2063 -0.4897 -2.3808
    3SAPS     N  267   6.646   4.042  11.281 -0.0618 -0.8656  0.2299
    3SAPS   HN1  268   6.621   3.958  11.338 -2.1792 -0.9188 -0.7428
    3SAPS   HN2  269   6.630   4.127  11.338 -1.0444 -2.3534  2.2611
    3SAPS   HN3  270   6.588   4.037  11.194  0.8206  0.6628 -0.4675
    3SAPS   C12  271   6.788   4.027  11.233 -0.3437  0.8220  0.0312
    3SAPS  H12A  272   6.842   4.109  11.278 -0.4206  0.8378  0.0962
    3SAPS   C13  273   6.849   3.903  11.299  0.6043 -0.2146  0.7019
    3SAPS  O13A  274   6.785   3.839  11.390 -0.7164 -0.3393  0.3979
    3SAPS  O13B  275   6.974   3.881  11.277 -0.0604  0.2462 -0.2812
    3SAPS   C11  276   6.791   4.024  11.080 -0.4408 -0.5854 -0.1774
    3SAPS  H11A  277   6.733   3.935  11.045  0.0822 -1.2508  0.6415
    3SAPS  H11B  278   6.895   3.999  11.051  0.0666  1.1157  0.1566
    3SAPS     P  279   6.617   4.170  10.955 -0.5410  0.2758 -0.4004
    3SAPS   O13  280   6.514   4.124  11.047  0.3225  0.0637 -0.0182
    3SAPS   O14  281   6.594   4.307  10.906  0.9994  0.2089 -0.8149
    3SAPS   O12  282   6.756   4.155  11.028  0.5156 -0.0724 -0.3347
    3SAPS   O11  283   6.630   4.074  10.836 -0.6546  0.6694  0.5777
    3SAPS    C1  284   6.689   4.113  10.712  0.5303 -0.3492 -0.1609
    3SAPS    HA  285   6.651   4.037  10.641 -1.8824  0.8510 -0.2418
    3SAPS    HB  286   6.648   4.210  10.676 -0.3768 -0.7644 -0.2739
    3SAPS    C2  287   6.844   4.107  10.700 -0.1910 -0.3609 -0.3896
    3SAPS    HS  288   6.876   4.157  10.793 -0.6411 -2.7802  1.1334
    3SAPS   O21  289   6.875   4.176  10.575  0.3176  0.5613  0.6155
    3SAPS   C21  290   7.000   4.204  10.553 -0.1020  0.2128  0.2221
    3SAPS   O22  291   7.090   4.169  10.632 -0.0743 -0.3615  0.1158
    3SAPS   C22  292   7.020   4.257  10.416 -0.5538  0.0815 -0.4630
    3SAPS   H2R  293   7.114   4.210  10.380  0.6916  1.8324  0.4154
    3SAPS   H2S  294   6.938   4.216  10.353 -0.4114  0.9272 -1.2034
    3SAPS    C3  295   6.888   3.955  10.700  0.1438  0.4805  0.9310
    3SAPS    HX  296   6.866   3.905  10.797 -2.2214 -1.1037 -0.3829
    3SAPS    HY  297   6.996   3.940  10.675 -0.3988  0.8667 -1.8247
    3SAPS   O31  298   6.805   3.877  10.608 -0.0005  0.3418  0.2532
    3SAPS   C31  299   6.847   3.850  10.486  0.3158 -0.3941  0.1371
    3SAPS   O32  300   6.959   3.877  10.443  0.0566 -0.1498 -0.6726
    3SAPS   C32  301   6.737   3.793  10.395 -0.8312 -0.1204 -0.3234
    3SAPS   H2X  302   6.639   3.816  10.443 -1.9938 -2.1125 -1.6876
    3SAPS   H2Y  303   6.734   3.682  10.390 -0.4146 -0.1947  0.8386
    3SAPS   C23  304   7.014   4.407  10.406  0.4282  0.5664 -0.1751
    3SAPS   H3R  305   7.092   4.440  10.334  1.6174 -0.4557  0.6161
    3SAPS   H3S  306   7.044   4.460  10.499 -0.7202  1.0381 -0.0650
    3SAPS   C24  307   6.878   4.464  10.352 -0.0949 -0.0218  0.8178
    3SAPS   H4R  308   6.795   4.424  10.413 -0.4500  0.7202  0.8235
    3SAPS   H4S  309   6.861   4.419  10.252 -1.0992  1.5073  0.2867
    3SAPS   C25  310   6.858   4.611  10.362 -0.0392 -0.3255 -0.1335
    3SAPS   H5R  311   6.848   4.642  10.467 -0.6152  1.7806 -0.7797
    3SAPS   C26  312   6.825   4.701  10.267 -0.4421 -0.6255 -0.1144
    3SAPS   H6R  313   6.812   4.806  10.295 -1.2265 -0.4381 -1.1542
    3SAPS   C27  314   6.800   4.663  10.124  0.9988  0.1911 -0.3255
    3SAPS   H7R  315   6.713   4.722  10.088 -0.8436 -3.2598 -1.7362
    3SAPS   H7S  316   6.767   4.557  10.127 -0.0976  0.5498  1.0483
    3SAPS   C28  317   6.922   4.656  10.037  0.5415  0.0830 -0.1721
    3SAPS   H8R  318   7.017   4.613  10.070  2.4505  1.9701 -2.9415
    3SAPS   C29  319   6.920   4.715   9.916 -0.6366 -0.0239  0.4765
    3SAPS   H9R  320   7.015   4.702   9.862 -0.5208  0.1297  0.6432
    3SAPS  C210  321   6.808   4.794   9.853 -0.0854 -0.1062 -0.0563
    3SAPS  H10R  322   6.852   4.872   9.787  0.8421  0.5838  1.3514
    3SAPS  H10S  323   6.748   4.840   9.934 -1.6676 -2.6829  0.2796
    3SAPS  C211  324   6.723   4.706   9.772 -0.7000 -0.2622  0.4805
    3SAPS  H11R  325   6.631   4.682   9.828 -1.1944 -1.4358 -0.7794
    3SAPS  C212  326   6.745   4.658   9.644 -0.1185 -0.1867 -0.2742
    3SAPS  H12R  327   6.660   4.605   9.599 -0.4353  2.5909 -3.1153
    3SAPS  C213  328   6.862   4.678   9.545  0.3398  0.0084 -0.6399
    3SAPS  H13R  329   6.921   4.584   9.538  0.3826  0.1699 -2.7577
    3SAPS  H13S  330   6.932   4.755   9.583 -0.5334  1.1150 -1.2297
    3SAPS  C214  331   6.822   4.727   9.411  0.0804  0.2870  0.1838
    3SAPS  H14R  332   6.761   4.661   9.347  2.3842 -0.7183 -1.0488
    3SAPS  C215  333   6.855   4.852   9.362  0.1423 -0.0653 -0.2361
    3SAPS  H15R  334   6.826   4.872   9.257  1.5968 -1.4931 -0.9227
    3SAPS  C216  335   6.933   4.960   9.429  0.7022  0.4301  0.0411
    3SAPS  H16R  336   7.034   4.914   9.434 -1.0603 -3.6304  0.3616
    3SAPS  H16S  337   6.887   4.987   9.526  0.7923  0.3223  0.1120
    3SAPS  C217  338   6.941   5.077   9.334  0.5068  0.0503  0.1406
    3SAPS  H17R  339   6.989   5.055   9.236 -1.4740  2.2093 -1.3495
    3SAPS  H17S  340   7.014   5.146   9.381 -0.0528 -0.1586  1.3350
    3SAPS  C218  341   6.810   5.155   9.316 -0.0121  0.1533  0.0167
    3SAPS  H18R  342   6.764   5.174   9.415 -0.1438  0.5772 -0.1235
    3SAPS  H18S  343   6.747   5.100   9.243  1.9910  0.1699 -1.7902
    3SAPS  C219  344   6.834   5.291   9.252 -0.3893  0.0882 -0.4067
    3SAPS  H19R  345   6.741   5.340   9.218  0.2075  1.1115 -0.5827
    3SAPS  H19S  346   6.893   5.284   9.157 -1.7001  0.4179 -1.2590
    3SAPS  C220  347   6.875   5.402   9.345 -0.7970 -0.3667  0.6793
    3SAPS  H20R  348   6.883   5.503   9.299  0.7043 -1.3946 -1.3732
    3SAPS  H20S  349   6.975   5.372   9.381 -0.5080 -1.7805 -1.2742
    3SAPS  H20T  350   6.807   5.425   9.430 -1.1814 -1.8486  0.7836
    3SAPS   C33  351   6.737   3.859  10.255 -0.0946 -0.6566  0.2391
    3SAPS   H3X  352   6.761   3.968  10.253  1.4846 -0.9781  0.8699
    3SAPS   H3Y  353   6.631   3.850  10.221  0.7714 -3.3411 -1.9886
    3SAPS   C34  354   6.834   3.788  10.163  0.6163 -1.0241 -0.0783
    3SAPS   H4X  355   6.829   3.681  10.191 -0.8088 -0.6554  1.1201
    3SAPS   H4Y  356   6.938   3.825  10.180  0.9169 -2.1828  0.6860
    3SAPS   C35  357   6.812   3.798  10.014  0.1133  0.1099  0.1398
    3SAPS   H5X  358   6.839   3.900   9.979  0.7778 -0.0960  0.0385
    3SAPS   H5Y  359   6.702   3.794  10.003  0.1636  1.4322 -1.0176
    3SAPS   C36  360   6.895   3.695   9.942  0.3315 -0.0174  0.4381
    3SAPS   H6X  361   6.886   3.605  10.006  1.0704 -0.7149 -0.4088
    3SAPS   H6Y  362   7.001   3.730   9.940  0.2209  0.3961  1.8000
    3SAPS   C37  363   6.851   3.658   9.801  0.7057  0.0899  0.2460
    3SAPS   H7X  364   6.848   3.751   9.741  1.4654  0.1222  0.2544
    3SAPS   H7Y  365   6.757   3.598   9.798  0.7039 -0.0173  2.2163
    3SAPS   C38  366   6.958   3.566   9.731  0.0222  0.2043  0.3842
    3SAPS   H8X  367   6.963   3.464   9.774  0.8754 -0.6589 -1.6466
    3SAPS   H8Y  368   7.060   3.609   9.730  0.9344 -1.4780 -5.8510
    3SAPS   C39  369   6.948   3.563   9.578 -0.1047 -0.2307 -0.0735
    3SAPS   H9X  370   7.037   3.503   9.550  1.1946  0.4242  2.5839
    3SAPS   H9Y  371   6.970   3.663   9.533  3.7666 -1.7155 -1.7544
    3SAPS  C310  372   6.824   3.487   9.533 -0.0493 -0.2149  0.1399
    3SAPS  H10X  373   6.729   3.545   9.539  0.7242  1.0193  0.5785
    3SAPS  H10Y  374   6.817   3.393   9.592  1.0813 -0.3397  0.0815
    3SAPS  C311  375   6.845   3.439   9.391  0.3570 -0.7224 -0.1425
    3SAPS  H11X  376   6.936   3.375   9.384  0.2322 -0.9621  0.3841
    3SAPS  H11Y  377   6.844   3.518   9.313  1.5905 -0.2855  0.2725
    3SAPS  C312  378   6.731   3.342   9.349 -0.5690 -0.4960  0.0426
    3SAPS  H12X  379   6.635   3.398   9.347 -0.1686  0.2602  1.5524
    3SAPS  H12Y  380   6.724   3.264   9.428  0.6093  0.4244  1.0787
    3SAPS  C313  381   6.742   3.288   9.199 -0.3750  0.1544  0.0878
    3SAPS  H13X  382   6.666   3.208   9.197  0.2945 -0.5662  1.8230
    3SAPS  H13Y  383   6.836   3.239   9.167 -0.4323  0.3288 -0.3455
    3SAPS  C314  384   6.717   3.394   9.086  0.0320 -0.9352 -0.2199
    3SAPS  H14X  385   6.797   3.471   9.096 -0.1262 -0.9873  1.6615
    3SAPS  H14Y  386   6.623   3.443   9.119  0.3727 -0.5300  0.1594
    3SAPS  C315  387   6.708   3.325   8.952  0.4559 -0.3417 -0.3511
    3SAPS  H15X  388   6.632   3.245   8.946  0.0867  0.1314 -2.1134
    3SAPS  H15Y  389   6.804   3.291   8.908  1.1040  1.1055 -0.0968
    3SAPS  C316  390   6.672   3.421   8.841  0.5235 -0.2150 -0.2026
    3SAPS  H16X  391   6.755   3.494   8.831  1.0843 -1.0282 -1.8086
    3SAPS  H16Y  392   6.584   3.478   8.876 -0.2795 -1.3868 -0.2866
    3SAPS  C317  393   6.640   3.357   8.704 -0.4137  0.2853  0.5056
    3SAPS  H17X  394   6.552   3.291   8.716 -1.0447  1.3172  1.6036
    3SAPS  H17Y  395   6.721   3.284   8.681 -3.1472 -2.2255 -1.4404
    3SAPS  C318  396   6.627   3.471   8.592  0.0371  0.7168 -0.5597
    3SAPS  H18X  397   6.722   3.527   8.577  0.9298 -0.4922  0.4854
    3SAPS  H18Y  398   6.553   3.550   8.618  0.5173  1.0716 -0.2677
    3SAPS  H18Z  399   6.614   3.422   8.493  0.4636  1.2070 -0.8571
    4SAPS     N  400   1.992   5.288  10.742  0.6501 -0.0966  0.3533
    4SAPS   HN1  401   2.046   5.314  10.657 -1.0232  1.9271 -0.1167
    4SAPS   HN2  402   2.000   5.185  10.758 -0.4949 -0.2709 -0.1122
    4SAPS   HN3  403   1.892   5.306  10.721  0.3725 -1.0804  0.7996
    4SAPS   C12  404   2.025   5.368  10.859 -0.3529  0.0779 -0.6595
    4SAPS  H12A  405   2.004   5.470  10.832  1.4234  0.3268 -1.2017
    4SAPS   C13  406   1.946   5.335  10.985 -0.5152  0.6362  0.6000
    4SAPS  O13A  407   1.854   5.249  10.991 -0.9605 -0.0929  0.0363
    4SAPS  O13B  408   1.959   5.405  11.090 -0.8252  0.0681  0.2165
    4SAPS   C11  409   2.175   5.361  10.890 -0.0416  0.4227 -0.1518
    4SAPS  H11A  410   2.212   5.256  10.892 -1.0628  0.0711  1.1619
    4SAPS  H11B  411   2.191   5.390  10.996  0.1701 -0.7624  0.1547
    4SAPS     P  412   2.391   5.480  10.819  0.2177  0.2261  0.1641
    4SAPS   O13  413   2.401   5.588  10.918  0.7489  0.0944  0.2287
    4SAPS   O14  414   2.460   5.357  10.865 -0.8007  0.0632  0.2761
    4SAPS   O12  415   2.240   5.448  10.802 -0.4364 -0.3123  0.9294
    4SAPS   O11  416   2.450   5.534  10.683 -0.0321  0.2565  0.0251
    4SAPS    C1  417   2.379   5.628  10.609 -0.0205 -0.4101 -0.4526
    4SAPS    HA  418   2.315   5.705  10.659 -1.4783 -1.7381 -0.2348
    4SAPS    HB  419   2.455   5.691  10.558  0.1521 -0.5806 -0.4011
    4SAPS    C2  420   2.289   5.553  10.502 -0.5375  0.3194  0.0355
    4SAPS    HS  421   2.268   5.451  10.540 -0.5492  0.5853  0.7655
    4SAPS   O21  422   2.353   5.544  10.370 -0.1692  0.4195  0.2911
    4SAPS   C21  423   2.425   5.432  10.350 -0.1654  0.5839 -0.3862
    4SAPS   O22  424   2.470   5.362  10.439  0.5135 -0.1716 -0.1446
    4SAPS   C22  425   2.446   5.404  10.201  0.2524 -0.2745 -0.1580
    4SAPS   H2R  426   2.349   5.363  10.167 -0.8118  0.3806  2.0159
    4SAPS   H2S  427   2.468   5.500  10.150  1.3266  0.0498  0.8757
    4SAPS    C3  428   2.159   5.630  10.484  0.2010 -0.5556  0.3536
    4SAPS    HX  429   2.187   5.737  10.474  1.1818 -0.6284  2.1041
    4SAPS    HY  430   2.112   5.633  10.585  0.4907  0.1258  0.4742
    4SAPS   O31  431   2.071   5.579  10.381 -0.6562 -0.7801 -0.0197
    4SAPS   C31  432   2.037   5.455  10.408  0.1017  0.3477  0.2107
    4SAPS   O32  433   2.050   5.389  10.511  0.2806  0.2842  0.2169
    4SAPS   C32  434   1.958   5.395  10.291 -0.3200 -0.0150 -0.3899
    4SAPS   H2X  435   1.869   5.451  10.257  1.7735  2.2341 -2.3957
    4SAPS   H2Y  436   1.930   5.293  10.326 -1.1689 -0.1125 -1.3470
    4SAPS   C23  437   2.550   5.298  10.181  0.2223 -0.0591 -0.0478
    4SAPS   H3R  438   2.540   5.216  10.254  0.6983 -0.4786 -0.4531
    4SAPS   H3S  439   2.652   5.339  10.198 -0.4936  1.4513  0.7095
    4SAPS   C24  440   2.551   5.238  10.037  0.0548 -0.1617  0.2194
    4SAPS   H4R  441   2.643   5.177  10.033 -0.8691 -1.5041 -1.2273
    4SAPS   H4S  442   2.567   5.316   9.959 -0.0675  1.4873  1.8014
    4SAPS   C25  443   2.429   5.151  10.012 -0.3135  0.3110 -0.4219
    4SAPS   H5R  444   2.350   5.154  10.089  2.2154 -3.4372  2.4637
    4SAPS   C26  445   2.390   5.102   9.897  0.2292  0.6424  0.2466
    4SAPS   H6R  446   2.300   5.038   9.895 -0.2233  1.2615  0.7869
    4SAPS   C27  447   2.456   5.114   9.765 -0.2912 -0.4899 -0.3729
    4SAPS   H7R  448   2.424   5.021   9.713  3.0244 -2.2259  0.5403
    4SAPS   H7S  449   2.566   5.107   9.777 -0.4251 -2.3567 -0.0554
    4SAPS   C28  450   2.413   5.240   9.689  0.1334  0.4551 -0.6893
    4SAPS   H8R  451   2.466   5.330   9.724  1.9163 -1.0488  0.5594
    4SAPS   C29  452   2.315   5.243   9.599  0.2933  0.9486 -0.3445
    4SAPS   H9R  453   2.306   5.336   9.541 -0.3696  0.1879 -1.4655
    4SAPS  C210  454   2.234   5.116   9.557  0.3425  0.5936  0.3536
    4SAPS  H10R  455   2.207   5.066   9.652  2.6372 -1.8790 -0.2487
    4SAPS  H10S  456   2.310   5.052   9.508  0.3346  0.8223  0.0356
    4SAPS  C211  457   2.115   5.155   9.470  0.0190  0.5892 -0.4724
    4SAPS  H11R  458   2.037   5.218   9.516  0.0632 -0.0217  0.4368
    4SAPS  C212  459   2.094   5.111   9.342 -0.1195 -0.4514 -0.0687
    4SAPS  H12R  460   2.007   5.155   9.290  0.0916  0.8008  0.6094
    4SAPS  C213  461   2.172   5.023   9.246  0.1537 -0.2082 -0.6280
    4SAPS  H13R  462   2.269   4.997   9.294 -0.5266  2.0453  2.1319
    4SAPS  H13S  463   2.180   5.080   9.152 -0.3812 -0.6416 -0.9383
    4SAPS  C214  464   2.096   4.896   9.224  0.3486  0.1777  0.0266
    4SAPS  H14R  465   2.102   4.831   9.313 -0.2672 -0.7809 -0.6278
    4SAPS  C215  466   2.003   4.863   9.132 -0.5295  0.2982 -0.2454
    4SAPS  H15R  467   1.958   4.763   9.130  0.3020 -0.1315  1.4578
    4SAPS  C216  468   1.963   4.944   9.010 -0.5584  0.1141 -0.6332
    4SAPS  H16R  469   2.052   5.002   8.978 -0.3763 -0.3525 -0.9698
    4SAPS  H16S  470   1.880   5.014   9.033 -0.6657 -0.8252  2.0848
    4SAPS  C217  471   1.923   4.843   8.902 -0.2423  0.2032 -0.1350
    4SAPS  H17R  472   1.856   4.765   8.943 -0.0830  0.5297  0.7459
    4SAPS  H17S  473   2.009   4.782   8.866 -0.5525  0.0847 -0.6836
    4SAPS  C218  474   1.874   4.908   8.774  0.2227 -0.5600  0.3044
    4SAPS  H18R  475   1.960   4.968   8.736  1.5911 -0.4471  3.4246
    4SAPS  H18S  476   1.795   4.983   8.793  2.3359  1.4170  1.5928
    4SAPS  C219  477   1.816   4.817   8.658 -0.3399  0.0429  0.5876
    4SAPS  H19R  478   1.766   4.727   8.701 -0.6325 -0.2519 -0.3585
    4SAPS  H19S  479   1.903   4.779   8.600  0.2662 -0.5127  1.8468
    4SAPS  C220  480   1.737   4.893   8.554  0.5052  0.0115 -0.4603
    4SAPS  H20R  481   1.809   4.955   8.496  1.3137 -0.6401 -0.1716
    4SAPS  H20S  482   1.659   4.957   8.601  1.2888  0.2774  0.4964
    4SAPS  H20T  483   1.685   4.822   8.486 -0.3085 -1.2362  1.4270
    4SAPS   C33  484   2.049   5.365  10.173 -0.0810  0.1943  0.7342
    4SAPS   H3X  485   1.987   5.292  10.117  1.2590  0.2137 -0.8154
    4SAPS   H3Y  486   2.133   5.299  10.203 -1.0464 -1.4187 -0.0809
    4SAPS   C34  487   2.092   5.485  10.096 -0.2567  0.7106 -0.0391
    4SAPS   H4X  488   2.175   5.527  10.157  1.4396  0.1011 -1.8639
    4SAPS   H4Y  489   1.999   5.545  10.100 -1.7306 -1.5587  1.2239
    4SAPS   C35  490   2.113   5.467   9.942  0.6504  0.2424 -0.3282
    4SAPS   H5X  491   2.186   5.388   9.913 -1.4787 -1.9950  0.2272
    4SAPS   H5Y  492   2.151   5.566   9.907  1.2812 -0.9823 -3.2947
    4SAPS   C36  493   1.976   5.439   9.872  0.4934 -0.3959  0.0829
    4SAPS   H6X  494   1.892   5.500   9.912 -1.5861  0.4346 -5.0596
    4SAPS   H6Y  495   1.956   5.332   9.889 -1.3640 -0.1562 -0.4922
    4SAPS   C37  496   1.991   5.461   9.724 -0.2981  0.4309  0.3697
    4SAPS   H7X  497   2.087   5.427   9.679 -1.3980 -0.6159 -1.2330
    4SAPS   H7Y  498   1.986   5.572   9.718 -0.7368  0.4416  0.9691
    4SAPS   C38  499   1.876   5.412   9.629 -0.1517 -0.4775  0.1274
    4SAPS   H8X  500   1.783   5.457   9.671  0.1814 -0.2577  0.6295
    4SAPS   H8Y  501   1.856   5.304   9.643  1.0033 -0.6509  0.4563
    4SAPS   C39  502   1.907   5.449   9.482 -0.4465  0.4792 -0.2885
    4SAPS   H9X  503   2.007   5.411   9.452 -1.0555 -0.0106 -1.7485
    4SAPS   H9Y  504   1.920   5.559   9.472  0.1002  0.4622  0.1829
    4SAPS  C310  505   1.796   5.400   9.390  0.9653 -0.5924 -0.9354
    4SAPS  H10X  506   1.701   5.456   9.397  2.0933  1.1989  0.8315
    4SAPS  H10Y  507   1.769   5.294   9.406 -0.7781 -0.0001  0.1808
    4SAPS  C311  508   1.831   5.385   9.240  0.4526  0.2814 -0.2257
    4SAPS  H11X  509   1.916   5.315   9.226  1.1434  1.3394 -1.3767
    4SAPS  H11Y  510   1.869   5.486   9.214 -0.3203  0.4859 -0.5841
    4SAPS  C312  511   1.716   5.355   9.146  1.1404 -0.2480 -0.2815
    4SAPS  H12X  512   1.625   5.407   9.182 -0.3870 -1.5108 -2.1818
    4SAPS  H12Y  513   1.703   5.244   9.149 -1.5450 -0.0350 -1.9221
    4SAPS  C313  514   1.745   5.377   8.999  0.7964 -0.6143 -0.0299
    4SAPS  H13X  515   1.830   5.313   8.966  0.5067 -1.0004 -0.0361
    4SAPS  H13Y  516   1.775   5.481   8.975  2.2048 -0.4156  2.4268
    4SAPS  C314  517   1.622   5.343   8.907 -0.0691  0.1967 -0.4041
    4SAPS  H14X  518   1.654   5.359   8.802  2.3745  1.2442  0.4495
    4SAPS  H14Y  519   1.551   5.425   8.933 -2.2091 -0.7521 -3.0008
    4SAPS  C315  520   1.542   5.209   8.931 -0.4119  0.6626  0.2482
    4SAPS  H15X  521   1.503   5.211   9.035 -0.6350 -3.2374  0.3149
    4SAPS  H15Y  522   1.615   5.126   8.922 -0.5196 -0.1226  5.3328
    4SAPS  C316  523   1.426   5.182   8.835 -0.5996  0.0433 -0.8194
    4SAPS  H16X  524   1.437   5.079   8.795  0.2892 -1.1229  2.2608
    4SAPS  H16Y  525   1.431   5.236   8.738  0.1937 -0.6973 -1.1986
    4SAPS  C317  526   1.285   5.217   8.895 -1.1341  0.5436  0.3926
    4SAPS  H17X  527   1.285   5.327   8.910  2.2227  0.5299  0.8197
    4SAPS  H17Y  528   1.280   5.170   8.995 -1.6875  1.1512  0.6512
    4SAPS  C318  529   1.173   5.184   8.798 -0.2043 -0.3307 -0.4317
    4SAPS  H18X  530   1.189   5.229   8.698  0.7664  2.1876  0.8119
    4SAPS  H18Y  531   1.080   5.235   8.831  1.6649  2.3806  0.7688
    4SAPS  H18Z  532   1.158   5.074   8.790  1.6909 -0.6245 -0.0726
    5SAPS     N  533   5.805   4.090  11.323  0.6360 -0.4593  0.1178
    5SAPS   HN1  534   5.738   4.102  11.245 -0.6021 -3.8175  0.5688
    5SAPS   HN2  535   5.875   4.019  11.292  1.0248 -0.8096  1.7180
    5SAPS   HN3  536   5.749   4.067  11.408  1.0197 -0.8924  0.2576
    5SAPS   C12  537   5.872   4.218  11.364  0.6204  0.1932  0.2226
    5SAPS  H12A  538   5.793   4.287  11.388 -0.6961 -0.9802 -0.6519
    5SAPS   C13  539   5.967   4.204  11.482  0.4915 -0.0098 -0.1727
    5SAPS  O13A  540   5.960   4.103  11.556  0.0140  0.2675 -0.3581
    5SAPS  O13B  541   6.015   4.309  11.530 -0.3982 -0.1966  0.0599
    5SAPS   C11  542   5.946   4.280  11.236 -0.4203  0.0275  0.7325
    5SAPS  H11A  543   6.041   4.224  11.218 -1.0817  0.0903 -3.2733
    5SAPS  H11B  544   5.974   4.384  11.264 -1.3825  0.0658  1.5768
    5SAPS     P  545   5.880   4.194  10.987  0.0221  0.2085 -0.5444
    5SAPS   O13  546   5.932   4.064  11.032  0.2670 -0.3697  0.0094
    5SAPS   O14  547   5.754   4.199  10.919  0.2761  0.5353  0.2139
    5SAPS   O12  548   5.859   4.286  11.115 -0.1497  0.0765  0.2831
    5SAPS   O11  549   5.981   4.267  10.898 -0.6381  0.3501 -0.1359
    5SAPS    C1  550   6.038   4.393  10.928  1.0306 -0.4764  0.1942
    5SAPS    HA  551   5.959   4.468  10.953  1.4911  0.1449 -0.2252
    5SAPS    HB  552   6.108   4.390  11.014  0.3568  0.8999  0.8019
    5SAPS    C2  553   6.122   4.459  10.810  0.4386  0.1236 -0.6977
    5SAPS    HS  554   6.185   4.542  10.848  1.4907 -1.5031  1.1720
    5SAPS   O21  555   6.045   4.490  10.692 -0.3901  0.5092 -0.6058
    5SAPS   C21  556   6.037   4.621  10.673 -0.8018  0.6018 -0.2342
    5SAPS   O22  557   6.058   4.707  10.758 -0.1862 -0.4533  0.0522
    5SAPS   C22  558   6.000   4.651  10.531 -0.5251  0.0580  0.5758
    5SAPS   H2R  559   5.907   4.596  10.508  0.2501 -0.0092 -2.6094
    5SAPS   H2S  560   5.983   4.761  10.530 -0.8727 -0.0032 -1.2452
    5SAPS    C3  561   6.227   4.355  10.767 -1.2941  0.2549 -0.1674
    5SAPS    HX  562   6.159   4.274  10.733  0.5166 -0.9998 -0.8572
    5SAPS    HY  563   6.295   4.329  10.852 -1.1309  1.1978 -0.0022
    5SAPS   O31  564   6.311   4.424  10.675 -0.9714 -0.3132 -0.0764
    5SAPS   C31  565   6.390   4.339  10.612 -0.4265 -0.2909  0.1003
    5SAPS   O32  566   6.403   4.222  10.637 -0.2792 -0.1661  0.3670
    5SAPS   C32  567   6.469   4.421  10.507 -0.6889  0.5187 -0.5000
    5SAPS   H2X  568   6.568   4.453  10.545 -1.1719  1.2360  0.1674
    5SAPS   H2Y  569   6.418   4.520  10.497 -0.8563  0.1422 -4.0149
    5SAPS   C23  570   6.107   4.618  10.420  0.4910 -0.9870 -0.0348
    5SAPS   H3R  571   6.108   4.508  10.409  2.0617 -0.9135 -0.7132
    5SAPS   H3S  572   6.207   4.652  10.454 -0.1853 -0.2341  1.2387
    5SAPS   C24  573   6.094   4.692  10.276  0.6183  0.2964  0.2913
    5SAPS   H4R  574   6.184   4.668  10.215  0.9681  0.2025  0.8462
    5SAPS   H4S  575   6.096   4.801  10.297  1.1394  0.3251  0.0946
    5SAPS   C25  576   5.975   4.658  10.194 -0.1171  0.8618 -0.7924
    5SAPS   H5R  577   5.888   4.632  10.256  0.2604  0.7665 -0.2992
    5SAPS   C26  578   5.962   4.678  10.062  0.0779  0.4183  0.4530
    5SAPS   H6R  579   5.873   4.638  10.011  0.8589 -0.1840 -0.4529
    5SAPS   C27  580   6.061   4.736   9.961  0.0128  0.8262  0.2575
    5SAPS   H7R  581   6.061   4.679   9.866  1.0961 -0.0595  0.7743
    5SAPS   H7S  582   6.166   4.738   9.997 -0.2750 -1.0933  1.2776
    5SAPS   C28  583   6.028   4.873   9.933  0.0410  0.1854  0.1904
    5SAPS   H8R  584   6.053   4.937  10.019  3.0653  0.7882 -1.0641
    5SAPS   C29  585   5.988   4.924   9.809 -0.0493 -0.1220 -0.9985
    5SAPS   H9R  586   5.968   5.032   9.804 -1.3707 -0.3485 -0.9241
    5SAPS  C210  587   5.967   4.845   9.686  0.9055 -0.7704  0.1458
    5SAPS  H10R  588   5.919   4.750   9.719 -1.7112  0.3256 -0.3384
    5SAPS  H10S  589   6.068   4.821   9.649  2.1212  1.1620  2.1053
    5SAPS  C211  590   5.869   4.891   9.582  0.6202  0.2534  0.6972
    5SAPS  H11R  591   5.783   4.945   9.626  0.3575  0.2082  0.2355
    5SAPS  C212  592   5.890   4.889   9.444 -0.4701  0.8729  0.0964
    5SAPS  H12R  593   5.821   4.949   9.383 -0.8386 -1.9553 -2.3800
    5SAPS  C213  594   6.013   4.826   9.376  0.0415  0.0728  0.4788
    5SAPS  H13R  595   6.029   4.723   9.416 -2.5372  0.3841  2.5092
    5SAPS  H13S  596   6.093   4.901   9.392 -0.9889  0.9804  1.4670
    5SAPS  C214  597   5.985   4.808   9.224  0.9074  0.1438 -0.0559
    5SAPS  H14R  598   5.882   4.778   9.202  0.7597  0.3119  0.3997
    5SAPS  C215  599   6.075   4.826   9.126 -0.7435  0.8207  0.9341
    5SAPS  H15R  600   6.055   4.814   9.018  2.4382 -0.8640  0.4599
    5SAPS  C216  601   6.222   4.863   9.152 -0.3115 -0.8230  0.4660
    5SAPS  H16R  602   6.235   4.912   9.250  1.1447  0.6763 -0.4566
    5SAPS  H16S  603   6.258   4.924   9.067 -0.9461 -2.2492 -0.8535
    5SAPS  C217  604   6.326   4.744   9.153  0.1978  0.2092 -0.0176
    5SAPS  H17R  605   6.335   4.704   9.050 -2.9520  3.3558 -1.6302
    5SAPS  H17S  606   6.284   4.654   9.202  0.5653 -0.9675 -1.8053
    5SAPS  C218  607   6.466   4.772   9.194 -0.4057  0.2265  0.0827
    5SAPS  H18R  608   6.532   4.684   9.180 -0.3341  0.0723  1.3565
    5SAPS  H18S  609   6.523   4.848   9.136  2.7040  1.1416  4.0493
    5SAPS  C219  610   6.470   4.837   9.334 -0.0787 -1.1185 -0.1927
    5SAPS  H19R  611   6.431   4.939   9.317 -1.1642 -1.3415  0.8397
    5SAPS  H19S  612   6.575   4.845   9.368 -1.2306 -0.9419  3.6451
    5SAPS  C220  613   6.411   4.762   9.458 -0.7193 -0.2088 -0.0968
    5SAPS  H20R  614   6.409   4.828   9.547 -2.0624 -0.4435  0.0686
    5SAPS  H20S  615   6.471   4.669   9.470  1.6231  1.2680 -0.1835
    5SAPS  H20T  616   6.302   4.744   9.446 -0.1655 -2.1397 -2.6167
    5SAPS   C33  617   6.492   4.356  10.369 -0.3614 -0.1965  0.3950
    5SAPS   H3X  618   6.418   4.282  10.333  1.8949 -0.6358 -3.5187
    5SAPS   H3Y  619   6.592   4.310  10.361  0.1823  1.1655 -0.8584
    5SAPS   C34  620   6.473   4.463  10.260  0.1948  0.0957 -0.4798
    5SAPS   H4X  621   6.561   4.531  10.254 -0.8360  1.5944  0.9596
    5SAPS   H4Y  622   6.391   4.530  10.295 -0.7888 -1.1286 -0.4285
    5SAPS   C35  623   6.432   4.396  10.134 -0.6784 -0.2009 -1.1865
    5SAPS   H5X  624   6.342   4.331  10.144 -0.5785 -0.3606 -1.3390
    5SAPS   H5Y  625   6.512   4.325  10.106  0.8413  0.7701  0.5724
    5SAPS   C36  626   6.396   4.500  10.028 -0.7428  0.3688  0.8636
    5SAPS   H6X  627   6.484   4.566  10.014  1.2225 -2.4881 -0.7279
    5SAPS   H6Y  628   6.320   4.568  10.073 -0.6144  0.9445  0.2248
    5SAPS   C37  629   6.351   4.441   9.891 -0.2663 -0.2570 -0.4623
    5SAPS   H7X  630   6.272   4.363   9.902 -1.9081  1.6220  1.5381
    5SAPS   H7Y  631   6.436   4.376   9.861 -0.9413 -0.6823 -1.4833
    5SAPS   C38  632   6.322   4.536   9.780  0.0294  0.0334 -0.0002
    5SAPS   H8X  633   6.412   4.589   9.741  0.3932 -0.4547  0.1603
    5SAPS   H8Y  634   6.254   4.614   9.820 -0.0079 -1.5125  3.1204
    5SAPS   C39  635   6.255   4.475   9.656 -0.0113  0.4676 -0.3355
    5SAPS   H9X  636   6.236   4.561   9.589 -0.0531 -0.6416 -1.7665
    5SAPS   H9Y  637   6.161   4.422   9.683 -1.8657  3.0841 -1.4243
    5SAPS  C310  638   6.342   4.373   9.578 -0.7148 -0.5817 -0.6536
    5SAPS  H10X  639   6.330   4.279   9.636  0.7006 -0.3790  0.0045
    5SAPS  H10Y  640   6.444   4.418   9.582 -0.6347 -0.4955 -3.0228
    5SAPS  C311  641   6.297   4.369   9.430 -0.2319 -0.2383 -0.4974
    5SAPS  H11X  642   6.302   4.472   9.388 -0.4999 -0.6142 -1.4734
    5SAPS  H11Y  643   6.192   4.333   9.432  1.0100 -4.0000 -0.9436
    5SAPS  C312  644   6.379   4.279   9.336 -0.0011 -0.4175  0.0854
    5SAPS  H12X  645   6.403   4.181   9.383  1.0248 -0.6741 -0.9450
    5SAPS  H12Y  646   6.473   4.338   9.336 -0.3625  0.1869 -1.7494
    5SAPS  C313  647   6.329   4.269   9.197  0.2188 -0.0651  0.2136
    5SAPS  H13X  648   6.300   4.370   9.161  0.9169 -0.6216 -2.0068
    5SAPS  H13Y  649   6.238   4.205   9.198 -0.3873  0.7096 -2.4840
    5SAPS  C314  650   6.418   4.203   9.086  0.0947  0.0275  0.0982
    5SAPS  H14X  651   6.472   4.119   9.135  1.0645  0.3173 -0.4650
    5SAPS  H14Y  652   6.497   4.276   9.059 -0.3470 -0.1244 -1.6334
    5SAPS  C315  653   6.334   4.149   8.965 -0.2748 -0.1741 -0.7613
    5SAPS  H15X  654   6.257   4.091   9.019  0.0082 -1.0202 -1.2595
    5SAPS  H15Y  655   6.391   4.077   8.903 -0.9692 -0.8082 -0.6675
    5SAPS  C316  656   6.286   4.271   8.876 -0.3830  0.5126 -0.3309
    5SAPS  H16X  657   6.273   4.360   8.941  0.5013 -0.4867  1.2507
    5SAPS  H16Y  658   6.196   4.243   8.817  0.0188  1.1588 -1.2716
    5SAPS  C317  659   6.386   4.297   8.771 -0.0719 -0.2603 -0.2047
    5SAPS  H17X  660   6.391   4.210   8.702 -4.7140  0.3955 -1.5766
    5SAPS  H17Y  661   6.483   4.308   8.824 -0.9678  3.3085  0.8300
    5SAPS  C318  662   6.366   4.429   8.689 -0.7421 -0.4451  0.1745
    5SAPS  H18X  663   6.390   4.519   8.750  2.0605  1.5107 -3.6015
    5SAPS  H18Y  664   6.260   4.433   8.657 -2.2143 -2.1981  4.4632
    5SAPS  H18Z  665   6.428   4.429   8.597 -1.0220  0.5445 -0.0267
    6SAPS     N  666   5.592   3.987  10.910 -0.1262 -0.2875  0.2896
    6SAPS   HN1  667   5.652   4.066  10.941  0.6933 -0.5079 -0.7118
    6SAPS   HN2  668   5.628   3.935  10.827 -3.2260 -1.3091 -0.5187
    6SAPS   HN3  669   5.497   4.022  10.885  0.2105 -1.5252 -3.0184
    6SAPS   C12  670   5.576   3.881  11.017 -0.1364  0.1222 -0.5515
    6SAPS  H12A  671   5.668   3.827  11.032 -0.6054 -0.7517 -0.8118
    6SAPS   C13  672   5.535   3.935  11.159  0.1027 -0.1901 -0.7113
    6SAPS  O13A  673   5.526   4.062  11.172  0.4296 -0.5665 -0.1590
    6SAPS  O13B  674   5.525   3.852  11.254  0.0403 -0.4382 -0.2685
    6SAPS   C11  675   5.475   3.768  10.974  0.0200  0.4904  0.2128
    6SAPS  H11A  676   5.372   3.796  11.004 -0.0019  0.5537  0.0785
    6SAPS  H11B  677   5.492   3.675  11.032  0.6843 -0.9385 -2.1992
    6SAPS     P  678   5.531   3.590  10.775  0.3103 -0.4581 -0.2369
    6SAPS   O13  679   5.678   3.593  10.792  0.4713  0.3259  0.2665
    6SAPS   O14  680   5.453   3.479  10.837 -0.1668  0.2142 -0.2064
    6SAPS   O12  681   5.475   3.728  10.831 -0.0648  0.7577 -0.3449
    6SAPS   O11  682   5.497   3.589  10.622  0.8324  0.6171 -0.0167
    6SAPS    C1  683   5.562   3.498  10.528 -0.5732  0.4262  0.0125
    6SAPS    HA  684   5.664   3.535  10.502 -1.7089  2.9252 -1.0594
    6SAPS    HB  685   5.586   3.401  10.577 -1.7319  1.0133  1.7650
    6SAPS    C2  686   5.468   3.442  10.403 -0.3113  0.6064 -0.7352
    6SAPS    HS  687   5.508   3.346  10.363 -0.7355 -0.5208  1.4295
    6SAPS   O21  688   5.468   3.527  10.287 -0.3880 -0.5226  0.6308
    6SAPS   C21  689   5.588   3.541  10.228 -0.1980 -0.0121  0.3492
    6SAPS   O22  690   5.687   3.479  10.253 -0.3791 -0.4737  0.5490
    6SAPS   C22  691   5.568   3.646  10.111 -0.2075 -0.2240  0.5964
    6SAPS   H2R  692   5.459   3.668  10.101 -0.0041  1.7895  2.4478
    6SAPS   H2S  693   5.604   3.744  10.146 -0.9948 -0.7719  3.0307
    6SAPS    C3  694   5.326   3.413  10.462  0.3738  0.3657  0.2887
    6SAPS    HX  695   5.286   3.516  10.471  0.1279  0.3616 -0.6854
    6SAPS    HY  696   5.324   3.372  10.565 -0.1456  3.1716  1.4390
    6SAPS   O31  697   5.243   3.339  10.369  0.1616 -0.2555  0.6203
    6SAPS   C31  698   5.117   3.318  10.395 -0.1543 -0.0986  0.0278
    6SAPS   O32  699   5.053   3.368  10.489 -0.2221 -0.8569  0.4762
    6SAPS   C32  700   5.061   3.217  10.298  0.3090  0.0499  0.2720
    6SAPS   H2X  701   5.079   3.123  10.354  2.3827  0.6671  0.6886
    6SAPS   H2Y  702   5.125   3.196  10.210  0.2391  1.7314 -0.1846
    6SAPS   C23  703   5.641   3.605   9.979  0.2237  0.0665  0.7131
    6SAPS   H3R  704   5.595   3.645   9.886 -0.3854 -0.2157  0.8927
    6SAPS   H3S  705   5.611   3.499   9.964 -1.5761  0.5396  0.8332
    6SAPS   C24  706   5.790   3.628   9.986  0.5322 -0.1439 -0.0382
    6SAPS   H4R  707   5.821   3.577   9.892 -0.1028  0.1451 -0.4162
    6SAPS   H4S  708   5.845   3.570  10.062  1.2261  0.0390 -0.4010
    6SAPS   C25  709   5.830   3.776   9.981  0.3691 -0.1958 -0.6167
    6SAPS   H5R  710   5.790   3.824  10.071  1.7136 -1.3530  0.6321
    6SAPS   C26  711   5.869   3.857   9.879  0.1951  0.4884  0.2065
    6SAPS   H6R  712   5.900   3.959   9.905  1.4351  0.1417  0.1456
    6SAPS   C27  713   5.895   3.814   9.736  0.3968  0.5921 -0.1550
    6SAPS   H7R  714   5.873   3.900   9.670  0.7323  1.1292  0.4257
    6SAPS   H7S  715   5.822   3.735   9.710  0.6824 -0.2136  1.3967
    6SAPS   C28  716   6.034   3.755   9.699  0.4191  0.2088  0.6443
    6SAPS   H8R  717   6.056   3.651   9.726 -3.0296 -0.3610  1.5048
    6SAPS   C29  718   6.131   3.808   9.614  0.2271 -0.6113  0.3689
    6SAPS   H9R  719   6.223   3.753   9.588  1.2995  1.3442 -0.1576
    6SAPS  C210  720   6.126   3.934   9.537 -0.4923 -0.3621 -0.0048
    6SAPS  H10R  721   6.181   4.015   9.590 -1.1353  1.2099 -1.6705
    6SAPS  H10S  722   6.023   3.975   9.530 -1.2655 -2.6365 -2.7804
    6SAPS  C211  723   6.193   3.929   9.406  0.0141 -0.3913  0.2764
    6SAPS  H11R  724   6.302   3.921   9.408  0.3818  2.9752 -1.8687
    6SAPS  C212  725   6.132   3.958   9.289 -0.3150 -0.0468 -0.0741
    6SAPS  H12R  726   6.192   3.936   9.200 -1.1307 -2.2604 -0.1237
    6SAPS  C213  727   5.985   3.995   9.267 -0.0513  0.2094 -0.4027
    6SAPS  H13R  728   5.982   4.076   9.190  0.6738 -0.2243 -0.8934
    6SAPS  H13S  729   5.937   4.029   9.361  0.3572 -2.6798  0.8779
    6SAPS  C214  730   5.913   3.880   9.204  0.4251 -0.2917  0.0366
    6SAPS  H14R  731   5.872   3.809   9.277 -0.1529 -0.2977 -0.2880
    6SAPS  C215  732   5.887   3.859   9.076 -0.3076 -0.9734 -0.6745
    6SAPS  H15R  733   5.837   3.764   9.051 -0.7870 -0.7267 -0.6391
    6SAPS  C216  734   5.908   3.947   8.958 -0.6380 -0.2456  0.1114
    6SAPS  H16R  735   5.973   4.034   8.981 -0.4548 -0.8957  2.1037
    6SAPS  H16S  736   5.805   3.980   8.933 -0.6205 -1.6007 -1.8436
    6SAPS  C217  737   5.975   3.867   8.847 -0.0580 -0.0715  0.1230
    6SAPS  H17R  738   5.975   3.931   8.756 -0.9779  1.5230  1.2087
    6SAPS  H17S  739   5.917   3.776   8.823  2.6544 -2.4907  2.4363
    6SAPS  C218  740   6.120   3.826   8.868 -0.0181 -1.1343  0.3293
    6SAPS  H18R  741   6.122   3.739   8.938  2.4193 -1.6563 -0.3370
    6SAPS  H18S  742   6.170   3.913   8.915  0.4676 -0.5220 -1.3171
    6SAPS  C219  743   6.201   3.794   8.745 -0.6980  0.1230  0.7951
    6SAPS  H19R  744   6.150   3.703   8.707 -0.2043  0.4750 -0.7673
    6SAPS  H19S  745   6.307   3.766   8.758  1.0244  3.8749 -3.6640
    6SAPS  C220  746   6.216   3.901   8.634  0.0172 -0.0198 -0.8465
    6SAPS  H20R  747   6.296   3.868   8.564  0.8908  2.0228 -0.8471
    6SAPS  H20S  748   6.255   3.998   8.672  0.4099 -1.1548  1.7659
    6SAPS  H20T  749   6.127   3.913   8.568 -0.7981  2.7056  0.6726
    6SAPS   C33  750   4.922   3.253  10.264  0.1682  0.1446 -0.2927
    6SAPS   H3X  751   4.916   3.363  10.255  3.4173  0.3745  0.0199
    6SAPS   H3Y  752   4.852   3.226  10.347 -0.9837  2.8692 -0.3190
    6SAPS   C34  753   4.857   3.183  10.136 -0.1012 -0.1195  0.7091
    6SAPS   H4X  754   4.762   3.236  10.117  0.6788  0.1274 -2.9353
    6SAPS   H4Y  755   4.836   3.075  10.156  0.3617 -0.6108 -1.3308
    6SAPS   C35  756   4.935   3.200  10.007  0.9495  0.3483 -0.3690
    6SAPS   H5X  757   5.029   3.144  10.027  0.3884 -0.5646 -0.2881
    6SAPS   H5Y  758   4.957   3.309  10.003 -1.8729  0.9603  0.1059
    6SAPS   C36  759   4.867   3.146   9.886 -0.3588  0.6301  0.6308
    6SAPS   H6X  760   4.778   3.209   9.868 -1.5373 -2.5895 -6.3228
    6SAPS   H6Y  761   4.826   3.042   9.887 -0.4823  0.6395 -2.0079
    6SAPS   C37  762   4.953   3.161   9.761  0.1602 -0.3465 -0.0256
    6SAPS   H7X  763   5.044   3.097   9.771  1.7026  1.8706  0.3328
    6SAPS   H7Y  764   4.992   3.265   9.760  1.4762 -0.8300 -0.7305
    6SAPS   C38  765   4.884   3.126   9.637  0.2922  0.2891  0.3656
    6SAPS   H8X  766   4.787   3.180   9.633 -0.9010 -1.8468 -0.9943
    6SAPS   H8Y  767   4.866   3.017   9.626  2.1157  0.3320 -3.8786
    6SAPS   C39  768   4.956   3.172   9.509  0.3220  0.2922  0.3294
    6SAPS   H9X  769   5.058   3.130   9.526  0.4999  0.3895 -0.4738
    6SAPS   H9Y  770   4.954   3.283   9.505 -0.0695  0.2168 -2.2827
    6SAPS  C310  771   4.882   3.113   9.393  0.0942 -0.3869 -0.4364
    6SAPS  H10X  772   4.776   3.146   9.391  0.5827  1.1365 -1.8628
    6SAPS  H10Y  773   4.881   3.003   9.410 -0.8518 -0.2006  0.8135
    6SAPS  C311  774   4.943   3.144   9.256 -0.9332 -0.4639  1.0031
    6SAPS  H11X  775   5.037   3.085   9.264 -0.1195  0.6944  0.2676
    6SAPS  H11Y  776   4.976   3.250   9.253 -0.3538 -0.6833 -0.4861
    6SAPS  C312  777   4.867   3.094   9.132  0.1507  0.1918 -0.0895
    6SAPS  H12X  778   4.773   3.154   9.130 -0.0948 -0.1741  0.6975
    6SAPS  H12Y  779   4.836   2.988   9.135 -0.2102  0.3468  2.1333
    6SAPS  C313  780   4.949   3.116   9.008 -0.9996 -0.0916  0.7090
    6SAPS  H13X  781   4.892   3.074   8.922 -1.6968  0.5423  0.8559
    6SAPS  H13Y  782   5.043   3.059   9.026  0.2557  1.8394  0.4389
    6SAPS  C314  783   4.978   3.259   8.963  0.6208  0.2447  0.2365
    6SAPS  H14X  784   4.977   3.318   9.057 -0.2712  0.0429  0.3516
    6SAPS  H14Y  785   4.892   3.305   8.910  0.4622  1.1738  1.2918
    6SAPS  C315  786   5.114   3.275   8.887  0.5319 -0.1717  0.8784
    6SAPS  H15X  787   5.132   3.377   8.846  1.0178 -0.6821 -0.2239
    6SAPS  H15Y  788   5.114   3.217   8.792 -0.0055 -1.9418  1.9504
    6SAPS  C316  789   5.242   3.242   8.974 -0.0107  0.3164  0.1139
    6SAPS  H16X  790   5.326   3.273   8.910 -1.8289 -1.0517 -3.0424
    6SAPS  H16Y  791   5.246   3.135   9.004  2.1088  0.6522  1.1163
    6SAPS  C317  792   5.244   3.322   9.106 -0.2097  0.2988  0.9694
    6SAPS  H17X  793   5.164   3.270   9.164 -1.5958  0.4936 -0.7385
    6SAPS  H17Y  794   5.225   3.427   9.075 -0.2098  0.5057  1.6678
    6SAPS  C318  795   5.368   3.303   9.189  0.0655 -0.0706 -0.6195
    6SAPS  H18X  796   5.431   3.221   9.148  0.1277 -0.1568 -0.3488
    6SAPS  H18Y  797   5.354   3.303   9.299 -0.4701  1.7611 -0.6621
    6SAPS  H18Z  798   5.437   3.386   9.162  1.2937 -1.8364 -3.1788
    7SAPS     N  799   0.860   5.045  10.675 -0.7942  0.2602  0.0288
    7SAPS   HN1  800   0.780   5.104  10.704 -1.8781 -0.6174 -1.1506
    7SAPS   HN2  801   0.932   5.109  10.635 -0.7205 -0.2071 -0.5945
    7SAPS   HN3  802   0.828   4.975  10.606  1.3468  1.3102 -2.0909
    7SAPS   C12  803   0.889   4.955  10.789  0.0955  0.7691  0.4752
    7SAPS  H12A  804   0.983   4.905  10.774 -0.0934  0.8429 -1.0751
    7SAPS   C13  805   0.890   5.040  10.916  0.4400  0.6010  0.3660
    7SAPS  O13A  806   0.864   5.165  10.920 -0.4152  0.0995 -0.8514
    7SAPS  O13B  807   0.915   4.981  11.024  0.3588 -0.0590  0.3395
    7SAPS   C11  808   0.776   4.848  10.806  0.5492  0.2586  0.4244
    7SAPS  H11A  809   0.682   4.888  10.849  0.7790 -0.8568  2.0051
    7SAPS  H11B  810   0.818   4.774  10.878  1.3360  0.1339 -0.1571
    7SAPS     P  811   0.662   4.659  10.674 -0.4272 -0.3061  0.1881
    7SAPS   O13  812   0.709   4.563  10.575  0.7854 -0.3580 -0.4829
    7SAPS   O14  813   0.644   4.612  10.812  0.9001 -0.0698  0.9929
    7SAPS   O12  814   0.760   4.782  10.682  0.2711  0.5467 -0.1539
    7SAPS   O11  815   0.524   4.710  10.620  0.9725  0.3286  0.9659
    7SAPS    C1  816   0.522   4.834  10.543  0.1638 -0.1941  0.1379
    7SAPS    HA  817   0.422   4.882  10.546 -0.6761 -1.8622 -0.1600
    7SAPS    HB  818   0.588   4.902  10.602  0.8045 -0.0324 -0.7625
    7SAPS    C2  819   0.551   4.813  10.387  0.7627 -0.8186  0.3087
    7SAPS    HS  820   0.644   4.752  10.374  1.6733  0.5169  0.5106
    7SAPS   O21  821   0.573   4.942  10.331  0.1369  0.4547  0.3873
    7SAPS   C21  822   0.684   4.994  10.352  0.0163 -0.6833 -0.5132
    7SAPS   O22  823   0.769   4.951  10.436 -0.1738  0.3278  0.1316
    7SAPS   C22  824   0.697   5.123  10.266 -0.3519  0.0740 -0.3458
    7SAPS   H2R  825   0.773   5.100  10.188  0.6378  0.8330  0.3870
    7SAPS   H2S  826   0.607   5.150  10.206 -1.0524  0.1964  0.7528
    7SAPS    C3  827   0.434   4.739  10.311 -0.5670  0.0432  0.3213
    7SAPS    HX  828   0.345   4.806  10.317 -0.4041  0.2635  0.2731
    7SAPS    HY  829   0.407   4.652  10.374  0.4779 -1.0544 -0.7078
    7SAPS   O31  830   0.470   4.708  10.177  0.1954 -0.1096 -0.1196
    7SAPS   C31  831   0.504   4.586  10.149 -0.0628  0.3593 -0.3512
    7SAPS   O32  832   0.520   4.492  10.224  0.8845  0.1632 -0.7405
    7SAPS   C32  833   0.517   4.567   9.988  0.2994  0.4735 -0.0614
    7SAPS   H2X  834   0.426   4.505   9.969  1.2124 -0.9983  0.3286
    7SAPS   H2Y  835   0.606   4.504   9.972  0.5158  0.4398  1.2127
    7SAPS   C23  836   0.733   5.252  10.345 -0.1970 -0.1789 -0.5841
    7SAPS   H3R  837   0.804   5.242  10.430  0.8383 -0.7398 -1.5098
    7SAPS   H3S  838   0.639   5.275  10.400 -0.3136  1.4449 -1.4256
    7SAPS   C24  839   0.785   5.371  10.257 -0.8630  0.2843  0.2405
    7SAPS   H4R  840   0.879   5.338  10.208 -0.9722 -1.1032  0.9356
    7SAPS   H4S  841   0.805   5.460  10.320 -0.5053  0.6194 -0.3461
    7SAPS   C25  842   0.680   5.414  10.159 -0.0031  0.0265 -0.3281
    7SAPS   H5R  843   0.585   5.437  10.211 -0.7975 -0.3181 -1.6054
    7SAPS   C26  844   0.688   5.450  10.029  0.7745  0.1610 -0.3367
    7SAPS   H6R  845   0.606   5.502   9.976 -0.1674 -0.3844  0.5651
    7SAPS   C27  846   0.802   5.442   9.936 -0.3462 -0.4169  0.5330
    7SAPS   H7R  847   0.773   5.398   9.838 -0.0547 -2.7857  1.4587
    7SAPS   H7S  848   0.878   5.368   9.968  0.9180  0.3776 -0.5953
    7SAPS   C28  849   0.864   5.575   9.902 -0.3085 -0.5586 -0.6323
    7SAPS   H8R  850   0.954   5.602   9.959  0.2050 -0.9004 -1.2668
    7SAPS   C29  851   0.804   5.664   9.820 -0.6820  0.4338 -0.7185
    7SAPS   H9R  852   0.860   5.756   9.796 -0.2468  0.2031 -0.5861
    7SAPS  C210  853   0.674   5.636   9.744 -0.1939  0.1083  0.1532
    7SAPS  H10R  854   0.628   5.735   9.726  1.0194  0.5177 -0.7579
    7SAPS  H10S  855   0.598   5.589   9.810 -0.2159 -2.2455 -1.4527
    7SAPS  C211  856   0.683   5.539   9.632  0.5891  0.1570 -0.1512
    7SAPS  H11R  857   0.749   5.451   9.641 -0.8276 -0.8055  1.0266
    7SAPS  C212  858   0.611   5.524   9.518 -0.3297  0.4118 -0.2321
    7SAPS  H12R  859   0.654   5.455   9.444  0.6629 -1.8007  2.3369
    7SAPS  C213  860   0.501   5.621   9.472 -0.3718  0.6340  0.1150
    7SAPS  H13R  861   0.522   5.641   9.365 -0.1627  1.9977  0.4046
    7SAPS  H13S  862   0.504   5.723   9.517  0.6708  0.0268  1.4387
    7SAPS  C214  863   0.365   5.552   9.486 -0.1171  0.2454  0.0422
    7SAPS  H14R  864   0.343   5.495   9.394 -0.4446  0.0958  0.2088
    7SAPS  C215  865   0.276   5.538   9.587 -0.6676  0.0305  0.0558
    7SAPS  H15R  866   0.192   5.470   9.567 -1.5723  1.1232  0.1271
    7SAPS  C216  867   0.289   5.598   9.730 -0.2074 -0.0890 -0.6897
    7SAPS  H16R  868   0.188   5.633   9.759 -1.5309 -1.0954 -3.7921
    7SAPS  H16S  869   0.352   5.689   9.738  0.7500 -0.9476  1.9068
    7SAPS  C217  870   0.348   5.498   9.832  0.0447 -0.0857  0.1252
    7SAPS  H17R  871   0.450   5.461   9.807 -0.1807  0.0170 -0.9667
    7SAPS  H17S  872   0.286   5.407   9.816 -2.9163  2.3344 -2.8402
    7SAPS  C218  873   0.330   5.532   9.979  0.8497  0.2971  0.3537
    7SAPS  H18R  874   0.372   5.635   9.984  2.0155 -0.1714  0.4539
    7SAPS  H18S  875   0.399   5.469  10.039 -0.0739 -2.2893 -1.2354
    7SAPS  C219  876   0.189   5.532  10.040  0.2759  0.3471  0.0862
    7SAPS  H19R  877   0.149   5.430  10.025  1.9415 -0.1847 -0.8550
    7SAPS  H19S  878   0.128   5.603   9.980  1.1915 -0.4893 -1.8927
    7SAPS  C220  879   0.177   5.574  10.182  0.2749  0.6298  0.4562
    7SAPS  H20R  880   0.214   5.678  10.197  0.2374  0.7484 -0.2859
    7SAPS  H20S  881   0.247   5.509  10.239  0.4107 -1.4209 -1.9901
    7SAPS  H20T  882   0.072   5.567  10.218 -0.0592 -0.9406 -0.8007
    7SAPS   C33  883   0.495   4.701   9.907 -0.2478  0.9759 -0.4866
    7SAPS   H3X  884   0.586   4.764   9.897 -0.6178  1.4999 -0.5290
    7SAPS   H3Y  885   0.413   4.759   9.954  1.6104  2.2812  1.1895
    7SAPS   C34  886   0.443   4.677   9.763  0.3413 -0.4842  0.1152
    7SAPS   H4X  887   0.410   4.779   9.734  0.5297  0.3104  2.6460
    7SAPS   H4Y  888   0.358   4.606   9.749 -2.4342  2.6934  0.3183
    7SAPS   C35  889   0.555   4.623   9.674 -0.1187  0.4117  0.3300
    7SAPS   H5X  890   0.566   4.517   9.705 -1.5879  0.0234 -0.4282
    7SAPS   H5Y  891   0.645   4.685   9.691 -0.0531  1.2160 -2.6775
    7SAPS   C36  892   0.521   4.632   9.520  0.7658  0.3486 -0.2146
    7SAPS   H6X  893   0.613   4.621   9.459 -0.1207 -2.2595 -1.1569
    7SAPS   H6Y  894   0.471   4.729   9.496  1.0496  1.0929  2.1285
    7SAPS   C37  895   0.439   4.512   9.467  0.0165  0.5235  0.5028
    7SAPS   H7X  896   0.345   4.492   9.522  0.7893 -0.5964  1.4589
    7SAPS   H7Y  897   0.498   4.418   9.473  0.1099  0.5194 -0.4389
    7SAPS   C38  898   0.417   4.526   9.311 -0.7441  0.1279 -0.9759
    7SAPS   H8X  899   0.376   4.627   9.287 -0.7345  0.1096 -1.0712
    7SAPS   H8Y  900   0.338   4.450   9.290 -0.1347 -0.4794 -1.0852
    7SAPS   C39  901   0.537   4.484   9.223 -0.0656  0.3434 -0.5250
    7SAPS   H9X  902   0.546   4.377   9.250  0.3593  0.7049  0.7843
    7SAPS   H9Y  903   0.627   4.541   9.252  1.2954 -2.1456  0.2530
    7SAPS  C310  904   0.525   4.517   9.074  0.5759 -0.2282 -0.2126
    7SAPS  H10X  905   0.426   4.482   9.036  1.1879 -0.6681 -1.4249
    7SAPS  H10Y  906   0.613   4.463   9.032  1.8088  0.8274  0.9918
    7SAPS  C311  907   0.541   4.668   9.046 -0.3198  0.1322 -0.1306
    7SAPS  H11X  908   0.644   4.695   9.077 -0.7937  0.1453  1.4357
    7SAPS  H11Y  909   0.469   4.729   9.103  0.9735  1.0092  0.5713
    7SAPS  C312  910   0.535   4.698   8.897  0.4940 -0.3611 -0.3394
    7SAPS  H12X  911   0.619   4.650   8.842 -0.7859 -2.4586 -0.4976
    7SAPS  H12Y  912   0.564   4.805   8.887 -0.1673 -0.3800 -2.8521
    7SAPS  C313  913   0.401   4.654   8.831  0.2455 -0.1742 -0.2806
    7SAPS  H13X  914   0.378   4.549   8.859  2.9659 -0.7296 -0.0214
    7SAPS  H13Y  915   0.407   4.647   8.720  0.6326 -0.9330 -0.2110
    7SAPS  C314  916   0.281   4.746   8.873  0.1386 -1.0136 -0.2808
    7SAPS  H14X  917   0.304   4.851   8.845  1.5469 -0.9651  0.9859
    7SAPS  H14Y  918   0.288   4.756   8.984  0.7519 -1.7727 -0.2481
    7SAPS  C315  919   0.139   4.702   8.834 -0.1814  0.0230 -0.0253
    7SAPS  H15X  920   0.114   4.706   8.725 -0.3836 -1.4763 -0.0455
    7SAPS  H15Y  921   0.080   4.782   8.884  0.9933  0.8015  0.1407
    7SAPS  C316  922   0.114   4.556   8.886  0.6075  0.3408 -0.4963
    7SAPS  H16X  923   0.122   4.545   8.996  0.2785 -1.9483 -0.6748
    7SAPS  H16Y  924   0.184   4.481   8.843 -0.4188 -0.1433 -1.3491
    7SAPS  C317  925  -0.038   4.525   8.863  1.0258  0.8975  0.1902
    7SAPS  H17X  926  -0.053   4.416   8.851  0.9994  0.8802  0.3789
    7SAPS  H17Y  927  -0.074   4.574   8.770 -1.2743 -0.8489  0.1277
    7SAPS  C318  928  -0.129   4.569   8.975  0.0488 -0.3468  0.2323
    7SAPS  H18X  929  -0.108   4.677   8.991  0.4884 -0.8738  3.4837
    7SAPS  H18Y  930  -0.107   4.524   9.074 -1.4165 -1.1787  0.1993
    7SAPS  H18Z  931  -0.235   4.546   8.950 -0.5108 -1.2858  3.3362
    8SAPS     N  932   5.949   5.659  10.920 -0.1465  0.0754 -0.4262
    8SAPS   HN1  933   5.990   5.570  10.884  1.7107  0.3568  0.9486
    8SAPS   HN2  934   5.847   5.656  10.899 -0.0617 -1.7425 -0.6732
    8SAPS   HN3  935   5.987   5.743  10.871  0.2021 -0.0493 -0.3703
    8SAPS   C12  936   5.982   5.673  11.066 -0.3011  0.5202  0.3825
    8SAPS  H12A  937   5.951   5.585  11.119 -1.7462  0.2542 -0.8785
    8SAPS   C13  938   6.122   5.690  11.100 -0.1544 -0.0296 -0.3398
    8SAPS  O13A  939   6.217   5.682  11.020  0.0606  0.3739 -0.3154
    8SAPS  O13B  940   6.150   5.719  11.223 -0.2377  0.3941  0.0047
    8SAPS   C11  941   5.893   5.789  11.122  0.0918  0.2049  0.5599
    8SAPS  H11A  942   5.917   5.882  11.066 -0.9456 -0.7933 -1.6017
    8SAPS  H11B  943   5.920   5.820  11.225  0.1937  2.3920 -0.0808
    8SAPS     P  944   5.646   5.872  11.119 -0.0408 -0.4514  0.2042
    8SAPS   O13  945   5.525   5.817  11.186  0.2563 -0.6956 -0.4041
    8SAPS   O14  946   5.708   5.990  11.181  0.1003  0.5758 -0.4849
    8SAPS   O12  947   5.754   5.767  11.098  0.3445 -0.2665  0.4103
    8SAPS   O11  948   5.610   5.903  10.967  0.1979  0.3533  0.1560
    8SAPS    C1  949   5.714   5.969  10.890 -0.3562  0.9630 -0.3296
    8SAPS    HA  950   5.761   6.054  10.943 -0.5700  1.1623 -0.4590
    8SAPS    HB  951   5.793   5.901  10.851 -0.5324  0.9482 -0.6607
    8SAPS    C2  952   5.657   6.037  10.762  0.2133  0.1072  0.0718
    8SAPS    HS  953   5.579   6.107  10.800  3.3666  3.2813  0.9703
    8SAPS   O21  954   5.596   5.938  10.670  0.1408  0.1670  0.6425
    8SAPS   C21  955   5.503   5.973  10.588 -0.1815 -0.7468 -0.7301
    8SAPS   O22  956   5.457   6.084  10.579 -0.2681  1.1882  0.5728
    8SAPS   C22  957   5.460   5.861  10.497  0.2508  0.2663 -0.0328
    8SAPS   H2R  958   5.551   5.808  10.462 -1.4638 -2.4778 -0.5003
    8SAPS   H2S  959   5.391   5.795  10.555  0.0339  0.3897 -0.1505
    8SAPS    C3  960   5.772   6.124  10.706 -0.1003 -0.2149 -0.6816
    8SAPS    HX  961   5.846   6.046  10.679  0.5880  0.1464  0.1276
    8SAPS    HY  962   5.813   6.191  10.785 -3.9370  1.7317 -0.1787
    8SAPS   O31  963   5.741   6.201  10.585 -0.1441 -0.3124  0.6098
    8SAPS   C31  964   5.696   6.320  10.607  0.2882 -0.2975 -0.1938
    8SAPS   O32  965   5.658   6.358  10.714 -0.1579  0.4772 -0.0590
    8SAPS   C32  966   5.688   6.397  10.479 -0.7538  0.7764 -0.0842
    8SAPS   H2X  967   5.680   6.329  10.391  1.2845 -0.6355  0.7966
    8SAPS   H2Y  968   5.782   6.456  10.471  0.4297 -1.0726 -0.2021
    8SAPS   C23  969   5.368   5.920  10.382 -0.7675  0.2994 -0.0913
    8SAPS   H3R  970   5.413   6.013  10.341  0.8060  0.5063  2.0259
    8SAPS   H3S  971   5.274   5.957  10.427 -0.8657 -0.6685  0.5364
    8SAPS   C24  972   5.330   5.810  10.286 -0.5928 -0.1349 -0.1164
    8SAPS   H4R  973   5.255   5.853  10.216 -0.4602  1.9961  1.0060
    8SAPS   H4S  974   5.278   5.731  10.344 -0.0093  0.4262  1.1871
    8SAPS   C25  975   5.459   5.773  10.216 -0.1342 -0.3037  0.3310
    8SAPS   H5R  976   5.519   5.700  10.271 -0.4391 -0.8662 -0.0817
    8SAPS   C26  977   5.497   5.810  10.088  0.0688  0.9942  0.0495
    8SAPS   H6R  978   5.594   5.775  10.050 -0.0053  2.3424 -1.4092
    8SAPS   C27  979   5.425   5.906   9.994  0.2724  0.1965 -1.3120
    8SAPS   H7R  980   5.314   5.905  10.005  0.3406  0.7168 -0.5627
    8SAPS   H7S  981   5.454   5.866   9.895  0.4210 -0.1094 -1.1454
    8SAPS   C28  982   5.486   6.037  10.020  0.3050  0.1664  0.5676
    8SAPS   H8R  983   5.528   6.051  10.121  0.8389  0.9829  0.2371
    8SAPS   C29  984   5.508   6.136   9.932 -0.3295  0.5122 -0.9847
    8SAPS   H9R  985   5.560   6.229   9.960  1.6610 -0.6888 -0.5781
    8SAPS  C210  986   5.447   6.132   9.793  0.4596  1.0818  0.3469
    8SAPS  H10R  987   5.383   6.222   9.777  2.5824  2.4943 -0.3050
    8SAPS  H10S  988   5.369   6.053   9.785  2.9871 -1.6025  1.4876
    8SAPS  C211  989   5.550   6.119   9.683  0.7803 -0.0849 -0.3346
    8SAPS  H11R  990   5.605   6.023   9.689 -1.9030 -1.7716 -2.0230
    8SAPS  C212  991   5.580   6.198   9.577 -0.2113  0.1965  0.3890
    8SAPS  H12R  992   5.659   6.168   9.507  0.0928 -1.9111  1.6244
    8SAPS  C213  993   5.516   6.326   9.528  0.2842  0.0838 -0.1597
    8SAPS  H13R  994   5.420   6.343   9.582 -1.2945 -3.1709 -1.7321
    8SAPS  H13S  995   5.501   6.314   9.419 -0.9239  0.9212 -0.0960
    8SAPS  C214  996   5.595   6.453   9.571  0.0891  0.8376 -0.3545
    8SAPS  H14R  997   5.612   6.480   9.676 -1.8949 -0.8783  0.4461
    8SAPS  C215  998   5.630   6.552   9.491 -0.0858  0.0030  0.7136
    8SAPS  H15R  999   5.685   6.640   9.530  1.1967  0.3309 -1.7187
    8SAPS  C216 1000   5.603   6.559   9.344  0.2761  0.2088 -0.0466
    8SAPS  H16R 1001   5.592   6.459   9.297 -1.2824 -0.8638  2.5162
    8SAPS  H16S 1002   5.692   6.601   9.292 -0.0655  0.6691 -0.2701
    8SAPS  C217 1003   5.467   6.635   9.318 -0.1774 -0.0274  0.4762
    8SAPS  H17R 1004   5.374   6.590   9.359 -1.7346  1.9865 -0.7286
    8SAPS  H17S 1005   5.445   6.648   9.210 -0.8812  0.8339  0.7231
    8SAPS  C218 1006   5.464   6.775   9.375  0.5648  0.2074  0.0402
    8SAPS  H18R 1007   5.565   6.818   9.356  0.2691  1.8040  1.8973
    8SAPS  H18S 1008   5.446   6.778   9.484 -0.6118  0.4535 -0.1508
    8SAPS  C219 1009   5.368   6.879   9.311  0.0240 -0.2772 -0.5301
    8SAPS  H19R 1010   5.264   6.843   9.329 -0.4784  1.1876 -0.5059
    8SAPS  H19S 1011   5.379   6.892   9.202 -0.4357 -1.1983 -0.7003
    8SAPS  C220 1012   5.378   7.022   9.373  0.2684 -0.7198 -0.6525
    8SAPS  H20R 1013   5.275   7.064   9.377  0.5923  0.4636 -3.4621
    8SAPS  H20S 1014   5.452   7.086   9.321  0.4188 -0.9289 -0.6968
    8SAPS  H20T 1015   5.417   7.000   9.475  2.4970 -2.2126 -1.7944
    8SAPS   C33 1016   5.567   6.494  10.468 -0.0303 -0.4789  0.2497
    8SAPS   H3X 1017   5.588   6.563  10.383 -1.4827 -2.3641 -1.7126
    8SAPS   H3Y 1018   5.561   6.553  10.561 -0.6951 -1.9923  1.1831
    8SAPS   C34 1019   5.437   6.417  10.445 -0.1113  0.0192  0.3745
    8SAPS   H4X 1020   5.398   6.376  10.541 -1.0249  1.9312  0.8593
    8SAPS   H4Y 1021   5.463   6.332  10.379  0.6258  0.0004  0.6886
    8SAPS   C35 1022   5.328   6.513  10.400 -0.4967  0.1846  0.6092
    8SAPS   H5X 1023   5.317   6.602  10.466 -1.2534  0.9731 -0.5525
    8SAPS   H5Y 1024   5.230   6.462  10.405  1.1798 -3.3837 -1.0774
    8SAPS   C36 1025   5.343   6.556  10.247  0.5228 -0.5113 -0.1703
    8SAPS   H6X 1026   5.382   6.479  10.178  1.3858 -0.8077  0.6473
    8SAPS   H6Y 1027   5.389   6.657  10.238 -0.9529  0.1741 -0.2425
    8SAPS   C37 1028   5.208   6.597  10.189  0.2085 -0.6774  0.5790
    8SAPS   H7X 1029   5.152   6.666  10.255  2.7544 -0.5412  2.6908
    8SAPS   H7Y 1030   5.144   6.507  10.177  1.0588 -0.8317 -3.4586
    8SAPS   C38 1031   5.209   6.674  10.049 -0.7276  0.4883 -0.2769
    8SAPS   H8X 1032   5.253   6.776  10.045 -1.0978  0.6851  0.5384
    8SAPS   H8Y 1033   5.102   6.679  10.017 -0.5736  0.6867 -0.7589
    8SAPS   C39 1034   5.287   6.587   9.940  0.5024 -0.9302  1.2636
    8SAPS   H9X 1035   5.260   6.479   9.933  3.3023 -1.5689 -0.3192
    8SAPS   H9Y 1036   5.397   6.589   9.956  0.5281  1.3196  1.0195
    8SAPS  C310 1037   5.271   6.650   9.803  0.8426  0.3753 -0.3017
    8SAPS  H10X 1038   5.348   6.603   9.738 -0.2355 -0.0357 -1.3031
    8SAPS  H10Y 1039   5.283   6.760   9.812 -2.8739  0.8777 -0.7298
    8SAPS  C311 1040   5.134   6.616   9.744 -0.4250  0.2504 -0.2803
    8SAPS  H11X 1041   5.057   6.673   9.799 -0.6099  0.2466 -0.5365
    8SAPS  H11Y 1042   5.105   6.512   9.771 -0.1356  0.2970  0.2234
    8SAPS  C312 1043   5.134   6.639   9.592  0.4072 -0.1148 -0.1680
    8SAPS  H12X 1044   5.202   6.571   9.537 -0.0200 -0.4068 -0.3354
    8SAPS  H12Y 1045   5.173   6.741   9.571  2.8193 -0.6145  1.7309
    8SAPS  C313 1046   4.986   6.627   9.536 -0.5102 -0.4643  0.0050
    8SAPS  H13X 1047   4.927   6.701   9.594  0.7843  0.5657  0.0352
    8SAPS  H13Y 1048   4.953   6.526   9.569 -0.7724 -0.7173 -1.0109
    8SAPS  C314 1049   4.975   6.645   9.385  1.0173 -0.4228  0.4889
    8SAPS  H14X 1050   5.046   6.568   9.348  2.0506  1.2907 -1.2170
    8SAPS  H14Y 1051   5.020   6.744   9.360 -0.5207  1.1215  3.5251
    8SAPS  C315 1052   4.828   6.626   9.341 -0.0725  0.0510 -0.4302
    8SAPS  H15X 1053   4.770   6.711   9.383 -0.0731 -1.5498  2.9980
    8SAPS  H15Y 1054   4.794   6.534   9.394  1.6922  0.8031  2.1313
    8SAPS  C316 1055   4.804   6.619   9.191 -0.0531 -0.3659  0.1199
    8SAPS  H16X 1056   4.862   6.692   9.130 -2.3319  2.1281  0.8292
    8SAPS  H16Y 1057   4.698   6.651   9.177 -0.3078 -0.9018  0.7761
    8SAPS  C317 1058   4.832   6.479   9.130  0.1200  0.0425 -0.3021
    8SAPS  H17X 1059   4.799   6.389   9.185 -1.6568 -0.4806 -2.1435
    8SAPS  H17Y 1060   4.942   6.466   9.130 -0.0387 -1.3806 -0.8029
    8SAPS  C318 1061   4.785   6.456   8.985 -0.2186  0.0164 -0.4724
    8SAPS  H18X 1062   4.805   6.352   8.950  0.7726 -0.0311  0.2259
    8SAPS  H18Y 1063   4.839   6.527   8.920 -0.6863 -0.1554 -1.0501
    8SAPS  H18Z 1064   4.676   6.475   8.973 -0.5744 -1.5458  0.1584
    9SAPS     N 1065   0.287   2.904   6.220  0.0960 -0.5401 -0.2154
    9SAPS   HN1 1066   0.315   3.000   6.246  0.0325 -1.2465  2.6111
    9SAPS   HN2 1067   0.346   2.880   6.138  1.5435  0.6368  0.4651
    9SAPS   HN3 1068   0.187   2.894   6.196 -0.0213 -0.2828  0.1671
    9SAPS   C12 1069   0.310   2.816   6.333 -0.2902 -0.3989  0.0159
    9SAPS  H12A 1070   0.291   2.877   6.420  0.1628 -1.0330  0.5682
    9SAPS   C13 1071   0.242   2.680   6.335  0.2545  0.6288  0.1368
    9SAPS  O13A 1072   0.202   2.621   6.229 -1.1241 -0.5926 -0.1589
    9SAPS  O13B 1073   0.245   2.611   6.440 -0.0822  0.3085  0.4663
    9SAPS   C11 1074   0.461   2.790   6.347  0.6561  0.0669 -0.8079
    9SAPS  H11A 1075   0.498   2.733   6.260  0.8156  0.2833 -0.8808
    9SAPS  H11B 1076   0.472   2.732   6.442 -1.7264  1.1477  0.1927
    9SAPS     P 1077   0.684   2.919   6.322 -0.1674 -0.1042 -0.1079
    9SAPS   O13 1078   0.711   2.798   6.238 -0.2839 -0.4702 -0.0248
    9SAPS   O14 1079   0.707   3.054   6.276 -0.4654 -0.1246  0.2786
    9SAPS   O12 1080   0.525   2.914   6.357 -0.4123 -0.1913 -0.1067
    9SAPS   O11 1081   0.754   2.893   6.464 -0.0926  0.1709 -0.2875
    9SAPS    C1 1082   0.894   2.862   6.462  0.4173 -0.1460  0.2127
    9SAPS    HA 1083   0.905   2.752   6.458 -0.0394 -0.3511  3.3297
    9SAPS    HB 1084   0.951   2.905   6.377  1.2652  0.7074  1.1981
    9SAPS    C2 1085   0.969   2.904   6.595  0.2855  0.8761 -0.2654
    9SAPS    HS 1086   1.072   2.862   6.589  0.1947  0.3416  1.5298
    9SAPS   O21 1087   0.892   2.857   6.710  0.2265  0.4053  1.0056
    9SAPS   C21 1088   0.962   2.836   6.821 -0.0073 -0.0171  0.0707
    9SAPS   O22 1089   1.083   2.856   6.833  0.0663  0.2043  0.2710
    9SAPS   C22 1090   0.873   2.797   6.942 -0.0143 -0.5728 -0.2458
    9SAPS   H2R 1091   0.799   2.880   6.949  1.4552  0.7350 -0.0091
    9SAPS   H2S 1092   0.814   2.703   6.931 -0.5380 -0.3711  0.7154
    9SAPS    C3 1093   0.990   3.053   6.589 -0.6437 -0.2596 -0.5002
    9SAPS    HX 1094   0.898   3.105   6.622 -0.4095 -1.3725  1.9787
    9SAPS    HY 1095   1.003   3.086   6.483 -1.2399 -0.6748 -0.7011
    9SAPS   O31 1096   1.104   3.102   6.661 -0.5035  0.2999 -0.9227
    9SAPS   C31 1097   1.071   3.176   6.768 -0.2294 -0.0207  0.2425
    9SAPS   O32 1098   0.961   3.181   6.820 -0.2687 -0.4388  0.4659
    9SAPS   C32 1099   1.193   3.246   6.824  0.3164 -0.6319 -0.3567
    9SAPS   H2X 1100   1.248   3.296   6.741 -0.2924  0.1696 -0.2876
    9SAPS   H2Y 1101   1.264   3.173   6.868  1.8872  0.4554 -1.0228
    9SAPS   C23 1102   0.951   2.779   7.082  0.2492 -0.3724  0.4657
    9SAPS   H3R 1103   0.976   2.876   7.131  1.5547 -0.2962 -0.3275
    9SAPS   H3S 1104   1.041   2.715   7.068  0.5511  0.1469  0.0221
    9SAPS   C24 1105   0.861   2.712   7.184 -0.1975 -0.1020  0.3293
    9SAPS   H4R 1106   0.912   2.678   7.276 -0.6358 -1.7300 -0.0102
    9SAPS   H4S 1107   0.833   2.619   7.130  0.4020  0.0741 -0.3003
    9SAPS   C25 1108   0.746   2.793   7.225 -0.0698  0.6029 -0.5448
    9SAPS   H5R 1109   0.678   2.823   7.144 -1.2566  2.6956  1.1600
    9SAPS   C26 1110   0.716   2.843   7.348  0.0189 -0.0581 -0.2004
    9SAPS   H6R 1111   0.635   2.917   7.360  1.3576  1.0669  2.5833
    9SAPS   C27 1112   0.795   2.825   7.473 -0.3853 -0.0917  0.1896
    9SAPS   H7R 1113   0.774   2.904   7.549  1.9046 -0.8737  1.6805
    9SAPS   H7S 1114   0.904   2.821   7.455 -0.5607  0.5324 -1.0705
    9SAPS   C28 1115   0.763   2.690   7.543 -1.1352  0.3524  0.5773
    9SAPS   H8R 1116   0.732   2.606   7.479 -0.0721  0.8561 -0.6266
    9SAPS   C29 1117   0.755   2.661   7.674 -0.9096  0.1417  0.0612
    9SAPS   H9R 1118   0.715   2.566   7.710 -2.2253  0.8522  0.5191
    9SAPS  C210 1119   0.772   2.771   7.781  0.0268 -0.0392 -0.0920
    9SAPS  H10R 1120   0.695   2.850   7.767  1.5674  1.1044 -2.3535
    9SAPS  H10S 1121   0.873   2.815   7.767  0.2451  0.1103  1.9182
    9SAPS  C211 1122   0.757   2.730   7.924  0.1940  0.4284 -0.1141
    9SAPS  H11R 1123   0.845   2.738   7.990  1.6619 -3.6282 -1.4068
    9SAPS  C212 1124   0.650   2.675   7.990 -0.7110 -0.5160 -0.4326
    9SAPS  H12R 1125   0.669   2.643   8.093 -1.4515  0.2770 -0.0437
    9SAPS  C213 1126   0.518   2.643   7.936 -0.3296  0.0717  0.2202
    9SAPS  H13R 1127   0.521   2.644   7.825  3.3438 -0.4288  0.2595
    9SAPS  H13S 1128   0.451   2.723   7.974 -1.1400 -0.2992 -0.4118
    9SAPS  C214 1129   0.449   2.518   7.994 -0.0197  0.6146 -0.6188
    9SAPS  H14R 1130   0.445   2.516   8.104 -0.4224 -2.4972 -0.6399
    9SAPS  C215 1131   0.366   2.427   7.935  0.1655 -1.0230  0.7736
    9SAPS  H15R 1132   0.312   2.342   7.978 -2.4828 -0.4664 -1.3560
    9SAPS  C216 1133   0.347   2.436   7.784 -0.0496 -0.3859  0.2600
    9SAPS  H16R 1134   0.442   2.462   7.733  0.6357 -0.0980  1.6784
    9SAPS  H16S 1135   0.279   2.517   7.751  0.8308  0.3933  0.3431
    9SAPS  C217 1136   0.312   2.302   7.714 -0.6786 -0.8259  0.2640
    9SAPS  H17R 1137   0.208   2.268   7.730 -0.6159 -0.4137  1.5213
    9SAPS  H17S 1138   0.379   2.225   7.760 -0.5687 -1.4200 -0.8595
    9SAPS  C218 1139   0.332   2.312   7.568  0.1690 -0.3409  0.2714
    9SAPS  H18R 1140   0.440   2.332   7.549 -0.3450  0.4045 -2.0050
    9SAPS  H18S 1141   0.283   2.399   7.519  0.9048 -0.6127 -0.9750
    9SAPS  C219 1142   0.284   2.176   7.503  0.9122 -0.4121 -0.0679
    9SAPS  H19R 1143   0.184   2.155   7.545  1.0526 -1.1619 -0.0973
    9SAPS  H19S 1144   0.346   2.094   7.545  1.8653 -0.4213 -1.4762
    9SAPS  C220 1145   0.309   2.174   7.351  0.3311 -0.3261  0.4670
    9SAPS  H20R 1146   0.231   2.241   7.308  1.6591  0.2316 -1.1026
    9SAPS  H20S 1147   0.303   2.072   7.308  0.4585 -0.5785  1.0397
    9SAPS  H20T 1148   0.412   2.204   7.323  0.4847 -0.2323  1.1175
    9SAPS   C33 1149   1.154   3.354   6.930 -0.0775 -0.4881 -0.0567
    9SAPS   H3X 1150   1.076   3.425   6.893  1.0069  0.5656 -0.3504
    9SAPS   H3Y 1151   1.247   3.414   6.941 -0.5411  0.5553 -1.6351
    9SAPS   C34 1152   1.122   3.303   7.069 -0.1645  0.6159 -0.4697
    9SAPS   H4X 1153   1.203   3.233   7.098 -0.5127  0.0839 -0.7604
    9SAPS   H4Y 1154   1.023   3.255   7.083 -0.9536  1.8359 -1.6969
    9SAPS   C35 1155   1.112   3.422   7.163 -0.0974  0.2254 -0.2703
    9SAPS   H5X 1156   1.015   3.476   7.155  0.7839  1.5605 -2.2984
    9SAPS   H5Y 1157   1.179   3.504   7.131  1.7205 -0.5005  1.5606
    9SAPS   C36 1158   1.142   3.380   7.308 -0.0825  0.3778  0.0038
    9SAPS   H6X 1159   1.170   3.471   7.366  0.4699 -0.1016  0.4889
    9SAPS   H6Y 1160   1.225   3.306   7.301 -0.3761 -0.1725  2.0018
    9SAPS   C37 1161   1.028   3.303   7.374  0.0950 -0.7126 -0.5056
    9SAPS   H7X 1162   1.011   3.203   7.327  0.2254 -1.6880  1.4769
    9SAPS   H7Y 1163   0.927   3.348   7.364  0.4668  0.5914  1.4601
    9SAPS   C38 1164   1.053   3.263   7.518  0.0212  0.0640 -0.4049
    9SAPS   H8X 1165   1.073   3.353   7.580 -0.5105  1.0173 -1.5818
    9SAPS   H8Y 1166   1.151   3.214   7.533  0.0206  0.1395 -0.1565
    9SAPS   C39 1167   0.941   3.188   7.582 -0.6241 -0.0356  0.5295
    9SAPS   H9X 1168   0.913   3.108   7.511  0.1810  1.3226 -1.3354
    9SAPS   H9Y 1169   0.845   3.242   7.593 -0.6807 -0.1241  0.4700
    9SAPS  C310 1170   0.969   3.122   7.715 -0.6685 -0.1656  0.0073
    9SAPS  H10X 1171   1.073   3.086   7.699 -0.9740 -0.7875 -0.6350
    9SAPS  H10Y 1172   0.895   3.040   7.732  1.7825 -2.0112  2.1560
    9SAPS  C311 1173   0.955   3.206   7.844 -0.2399 -0.3095  0.1157
    9SAPS  H11X 1174   0.847   3.228   7.860 -0.5488  0.5432 -2.7225
    9SAPS  H11Y 1175   1.002   3.305   7.828  1.8562 -1.2545  0.3177
    9SAPS  C312 1176   1.011   3.136   7.971 -0.1574 -0.1986  0.7891
    9SAPS  H12X 1177   1.121   3.131   7.959  0.2272  3.8849  1.9949
    9SAPS  H12Y 1178   0.960   3.037   7.982  0.0132 -0.2046  1.5712
    9SAPS  C313 1179   0.977   3.233   8.084 -0.0351  0.2594 -0.0844
    9SAPS  H13X 1180   0.866   3.237   8.088 -0.0299  1.6679 -0.9205
    9SAPS  H13Y 1181   1.017   3.335   8.065  2.6477 -0.8459 -0.4851
    9SAPS  C314 1182   1.021   3.181   8.223 -0.5873  0.1244 -0.2229
    9SAPS  H14X 1183   1.125   3.147   8.207 -0.8606 -1.2231  0.7967
    9SAPS  H14Y 1184   0.961   3.091   8.251 -1.2025  0.5628 -0.1148
    9SAPS  C315 1185   0.996   3.287   8.332 -1.3694 -0.0407  0.8534
    9SAPS  H15X 1186   0.886   3.304   8.324 -1.4026 -1.4414 -2.4851
    9SAPS  H15Y 1187   1.050   3.382   8.317 -2.8266  0.8716  1.3002
    9SAPS  C316 1188   1.036   3.252   8.475 -0.3020  0.2341 -0.1930
    9SAPS  H16X 1189   1.025   3.341   8.540 -0.7406  0.8265 -1.0625
    9SAPS  H16Y 1190   1.145   3.233   8.466 -0.5480 -0.7609 -1.2318
    9SAPS  C317 1191   0.956   3.129   8.522  0.0970 -0.7991  0.1436
    9SAPS  H17X 1192   1.006   3.037   8.483  3.1336  0.8769 -0.0580
    9SAPS  H17Y 1193   0.852   3.127   8.485  0.5546 -1.0547 -1.1417
    9SAPS  C318 1194   0.946   3.099   8.669  0.5390 -0.2945 -0.0663
    9SAPS  H18X 1195   0.893   3.003   8.692  1.1064 -0.4371  0.6417
    9SAPS  H18Y 1196   0.891   3.173   8.730  3.1547  1.9283 -0.3255
    9SAPS  H18Z 1197   1.047   3.090   8.714  0.1566 -4.2972  0.2388
   10SAPS     N 1198   1.026   2.019   6.428 -0.9036 -0.7013  0.1383
   10SAPS   HN1 1199   1.091   2.081   6.480 -2.0321  0.0756  0.6529
   10SAPS   HN2 1200   0.941   2.033   6.487  0.5025  2.0598  1.6180
   10SAPS   HN3 1201   1.062   1.922   6.441 -1.4252 -0.6287  2.3113
   10SAPS   C12 1202   0.998   2.081   6.295  0.2150  0.2485  0.4121
   10SAPS  H12A 1203   1.101   2.078   6.263  0.4172 -3.4655  1.1382
   10SAPS   C13 1204   0.906   2.009   6.195 -0.6136  0.8483 -0.9091
   10SAPS  O13A 1205   0.834   1.915   6.235 -0.2701 -0.2690  0.2368
   10SAPS  O13B 1206   0.905   2.041   6.074 -0.4664  0.2700 -0.5434
   10SAPS   C11 1207   0.947   2.232   6.326 -1.0562  0.1171  0.3122
   10SAPS  H11A 1208   0.849   2.238   6.377 -0.9023 -0.1337  0.6403
   10SAPS  H11B 1209   0.927   2.298   6.239 -1.6471  0.7107  0.8890
   10SAPS     P 1210   1.046   2.448   6.431  0.4267  0.0655 -0.2938
   10SAPS   O13 1211   1.124   2.506   6.320 -0.3296  0.1803  0.2180
   10SAPS   O14 1212   0.915   2.514   6.461  0.2230 -0.0795  0.3177
   10SAPS   O12 1213   1.039   2.294   6.404 -0.0729  0.0533  0.3337
   10SAPS   O11 1214   1.134   2.453   6.556  0.3138  0.0663 -0.0469
   10SAPS    C1 1215   1.266   2.402   6.569 -0.3984 -0.5231  0.5732
   10SAPS    HA 1216   1.276   2.309   6.509 -0.0165 -0.4785  0.5691
   10SAPS    HB 1217   1.341   2.476   6.532  1.0950 -1.3993  1.8039
   10SAPS    C2 1218   1.300   2.374   6.718 -0.1564  0.3015 -0.1807
   10SAPS    HS 1219   1.400   2.326   6.720  0.4186  1.5251  0.9809
   10SAPS   O21 1220   1.198   2.310   6.793 -0.5172 -0.1604  0.3703
   10SAPS   C21 1221   1.147   2.197   6.743 -0.2186  0.5115 -0.9138
   10SAPS   O22 1222   1.179   2.142   6.641 -0.3842  0.1556  0.8168
   10SAPS   C22 1223   1.062   2.131   6.857 -0.4830 -0.7238  0.3812
   10SAPS   H2R 1224   1.044   2.195   6.945  1.0595  0.2013  0.0503
   10SAPS   H2S 1225   0.964   2.118   6.806  0.2266 -2.4841 -0.5847
   10SAPS    C3 1226   1.332   2.504   6.795  0.2482 -0.5354  0.3791
   10SAPS    HX 1227   1.253   2.582   6.784  1.0507  0.7025  2.9151
   10SAPS    HY 1228   1.421   2.551   6.749 -1.1379 -0.2170 -2.1005
   10SAPS   O31 1229   1.375   2.484   6.929 -0.6910  0.0676  0.2345
   10SAPS   C31 1230   1.289   2.504   7.027  0.2461  0.3527  0.2815
   10SAPS   O32 1231   1.174   2.549   7.016  0.0408  0.1075 -0.3026
   10SAPS   C32 1232   1.351   2.478   7.166  0.6128  0.0599  0.3680
   10SAPS   H2X 1233   1.387   2.576   7.205 -1.3710  0.8517  0.2858
   10SAPS   H2Y 1234   1.442   2.418   7.150  0.3193  0.0901 -1.5956
   10SAPS   C23 1235   1.118   1.997   6.908  0.1077 -0.5009 -0.3655
   10SAPS   H3R 1236   1.228   2.009   6.918  0.1687 -1.4800  0.1746
   10SAPS   H3S 1237   1.112   1.922   6.827 -0.5450 -1.5308  0.6263
   10SAPS   C24 1238   1.059   1.928   7.034  0.9215 -0.1106  0.4961
   10SAPS   H4R 1239   0.953   1.909   7.007  0.9125  0.3414  0.1951
   10SAPS   H4S 1240   1.054   1.997   7.121 -1.3487  1.9683 -1.2182
   10SAPS   C25 1241   1.123   1.798   7.067  0.1720 -0.3318  0.1834
   10SAPS   H5R 1242   1.119   1.734   6.978  0.1017  0.5288 -0.4384
   10SAPS   C26 1243   1.162   1.750   7.185 -0.2899 -0.5819 -0.2902
   10SAPS   H6R 1244   1.212   1.652   7.190 -0.6303 -0.8178 -1.3950
   10SAPS   C27 1245   1.149   1.816   7.314 -0.2098  0.4926 -0.4444
   10SAPS   H7R 1246   1.069   1.762   7.370  1.8263 -0.8897  1.2189
   10SAPS   H7S 1247   1.103   1.917   7.304 -1.4075 -0.1032 -1.0935
   10SAPS   C28 1248   1.280   1.829   7.384 -0.2512  0.3393  0.2992
   10SAPS   H8R 1249   1.359   1.869   7.320 -0.3118  1.2852  0.8044
   10SAPS   C29 1250   1.313   1.808   7.512 -0.7115 -0.2718  0.3382
   10SAPS   H9R 1251   1.411   1.835   7.556 -1.2643 -0.3905  1.6784
   10SAPS  C210 1252   1.213   1.774   7.617  0.5958  0.8351 -0.4968
   10SAPS  H10R 1253   1.173   1.671   7.604 -0.4310  0.9332  1.5464
   10SAPS  H10S 1254   1.114   1.823   7.599  1.0205  1.9199  0.0422
   10SAPS  C211 1255   1.259   1.794   7.764 -0.4275 -0.3409  0.3286
   10SAPS  H11R 1256   1.369   1.803   7.771 -0.3702 -0.8483  0.1648
   10SAPS  C212 1257   1.195   1.786   7.881 -0.0495  0.4100  0.0404
   10SAPS  H12R 1258   1.251   1.826   7.966  2.0648 -0.5132 -0.8774
   10SAPS  C213 1259   1.048   1.759   7.900 -0.1441 -0.0797 -0.3497
   10SAPS  H13R 1260   1.018   1.655   7.927 -1.9011  0.4420 -0.2094
   10SAPS  H13S 1261   0.990   1.768   7.806 -1.7685 -2.1074  0.4153
   10SAPS  C214 1262   0.976   1.849   7.993  0.0605 -0.2674  0.0355
   10SAPS  H14R 1263   0.908   1.926   7.955  2.3929  1.4180 -0.8386
   10SAPS  C215 1264   0.996   1.841   8.129  0.3880  0.8826 -0.1362
   10SAPS  H15R 1265   0.926   1.908   8.180  0.0062  0.3450  0.0388
   10SAPS  C216 1266   1.079   1.752   8.212 -0.3429  0.3091  0.5275
   10SAPS  H16R 1267   1.144   1.697   8.141  0.3375  0.8507  0.7365
   10SAPS  H16S 1268   1.014   1.682   8.269 -1.3556  1.1059  0.3620
   10SAPS  C217 1269   1.167   1.834   8.312  0.0446 -0.1365 -0.0033
   10SAPS  H17R 1270   1.108   1.915   8.361 -1.4600 -1.6030  0.6776
   10SAPS  H17S 1271   1.253   1.865   8.249  0.7569  1.1172  1.5636
   10SAPS  C218 1272   1.226   1.749   8.425  0.4212 -0.0749 -0.1120
   10SAPS  H18R 1273   1.281   1.657   8.395  0.0018 -0.3371 -0.0888
   10SAPS  H18S 1274   1.149   1.716   8.498  0.3527 -0.4765 -0.3599
   10SAPS  C219 1275   1.312   1.841   8.502  0.5731 -0.0621 -0.0201
   10SAPS  H19R 1276   1.269   1.941   8.526  1.9987  0.7111 -0.6721
   10SAPS  H19S 1277   1.399   1.868   8.438  0.8794 -2.9651 -0.9167
   10SAPS  C220 1278   1.377   1.780   8.626  0.3408  0.4858 -0.0140
   10SAPS  H20R 1279   1.429   1.865   8.675  3.7525 -3.0094  2.8432
   10SAPS  H20S 1280   1.456   1.708   8.596  1.5925  2.4252 -1.4887
   10SAPS  H20T 1281   1.298   1.750   8.698  1.1564  0.7268  1.0001
   10SAPS   C33 1282   1.248   2.439   7.269  0.4137 -0.5102 -0.2905
   10SAPS   H3X 1283   1.196   2.345   7.242  0.9494 -0.6316 -0.8900
   10SAPS   H3Y 1284   1.167   2.515   7.280  1.9251  0.8410  1.7675
   10SAPS   C34 1285   1.320   2.426   7.401  0.0439  0.0219  0.2875
   10SAPS   H4X 1286   1.241   2.430   7.479 -1.5269  0.1577 -1.2831
   10SAPS   H4Y 1287   1.402   2.498   7.419 -0.9055  0.5679  2.6723
   10SAPS   C35 1288   1.395   2.290   7.408 -0.1554  0.2305  0.3731
   10SAPS   H5X 1289   1.481   2.285   7.338 -0.8206  1.5299 -0.5508
   10SAPS   H5Y 1290   1.326   2.210   7.375 -1.3367  1.0572  0.8176
   10SAPS   C36 1291   1.465   2.257   7.540 -0.4653 -0.0698  0.8360
   10SAPS   H6X 1292   1.549   2.329   7.553 -0.6050 -0.0445  1.5985
   10SAPS   H6Y 1293   1.507   2.155   7.528 -2.5019 -1.2126  2.9654
   10SAPS   C37 1294   1.365   2.247   7.657  0.4748  0.5932  0.5857
   10SAPS   H7X 1295   1.308   2.157   7.626  2.5085 -0.4928 -0.1058
   10SAPS   H7Y 1296   1.286   2.324   7.665 -1.1080 -0.9555 -0.0065
   10SAPS   C38 1297   1.426   2.205   7.791  0.3825 -0.7612  0.4004
   10SAPS   H8X 1298   1.495   2.285   7.826 -1.7702  1.0500  0.6265
   10SAPS   H8Y 1299   1.476   2.109   7.772 -0.9283 -1.3102 -0.3671
   10SAPS   C39 1300   1.326   2.164   7.900  0.1061 -0.8104 -0.0233
   10SAPS   H9X 1301   1.385   2.089   7.957 -0.1378 -2.3102 -1.7054
   10SAPS   H9Y 1302   1.247   2.103   7.850 -1.0941  0.4943  0.2507
   10SAPS  C310 1303   1.268   2.264   7.998 -0.7717  1.0369 -0.4474
   10SAPS  H10X 1304   1.167   2.302   7.971 -0.1091  3.8702  0.8898
   10SAPS  H10Y 1305   1.339   2.349   8.011  0.2412 -0.0451  1.2785
   10SAPS  C311 1306   1.256   2.201   8.142  0.2240  0.0593 -0.0972
   10SAPS  H11X 1307   1.356   2.161   8.170  0.7292  0.5418 -1.1370
   10SAPS  H11Y 1308   1.186   2.117   8.131  3.5924 -2.7815 -0.7346
   10SAPS  C312 1309   1.225   2.302   8.250 -0.2505  0.5431  0.4429
   10SAPS  H12X 1310   1.120   2.336   8.240 -0.4479 -0.3796 -0.7853
   10SAPS  H12Y 1311   1.272   2.403   8.247  0.1654  0.3736  1.1729
   10SAPS  C313 1312   1.239   2.255   8.397 -0.3741  0.1280  0.3583
   10SAPS  H13X 1313   1.214   2.147   8.400  1.0949 -0.2264  0.2537
   10SAPS  H13Y 1314   1.158   2.299   8.459 -1.9168 -1.3019 -0.5907
   10SAPS  C314 1315   1.375   2.287   8.467  0.6982  0.1216  0.0426
   10SAPS  H14X 1316   1.396   2.396   8.462  0.6805  0.1085 -0.3854
   10SAPS  H14Y 1317   1.454   2.251   8.398 -0.2868  0.5734 -1.3655
   10SAPS  C315 1318   1.393   2.231   8.612 -0.0287 -0.0457  0.6671
   10SAPS  H15X 1319   1.396   2.120   8.609 -0.1781 -0.0459  0.5328
   10SAPS  H15Y 1320   1.303   2.239   8.676 -0.9703 -2.6456 -0.2786
   10SAPS  C316 1321   1.515   2.279   8.688  0.4252 -0.5159 -0.2602
   10SAPS  H16X 1322   1.505   2.228   8.786 -0.9776  0.9091  0.3572
   10SAPS  H16Y 1323   1.507   2.389   8.704 -3.1289 -0.8266  0.4081
   10SAPS  C317 1324   1.644   2.245   8.614  0.0043 -0.1726  0.1221
   10SAPS  H17X 1325   1.660   2.315   8.529  1.4183  0.0954  0.5923
   10SAPS  H17Y 1326   1.630   2.143   8.573 -0.2704  0.8571 -2.4374
   10SAPS  C318 1327   1.763   2.248   8.704 -0.5480 -0.1472  0.2583
   10SAPS  H18X 1328   1.862   2.239   8.655  0.3006 -0.9675  2.0785
   10SAPS  H18Y 1329   1.766   2.168   8.781  0.5853 -0.7372 -0.3769
   10SAPS  H18Z 1330   1.778   2.345   8.756  0.8407  0.4626 -1.2288
   11SAPS     N 1331   3.156   5.329   5.924 -0.3056 -1.0705  0.9492
   11SAPS   HN1 1332   3.249   5.363   5.892 -1.9135  3.1067  0.4186
   11SAPS   HN2 1333   3.112   5.401   5.984  0.6147 -2.4653  3.3894
   11SAPS   HN3 1334   3.170   5.237   5.971  3.7192 -1.4976 -0.8591
   11SAPS   C12 1335   3.080   5.302   5.801 -0.2042 -0.0239  0.2227
   11SAPS  H12A 1336   3.006   5.378   5.781 -1.0153 -1.1844 -1.3275
   11SAPS   C13 1337   3.165   5.295   5.675  0.4884  0.2747  0.0507
   11SAPS  O13A 1338   3.289   5.315   5.682  0.2268  0.7043  0.4710
   11SAPS  O13B 1339   3.114   5.269   5.563 -0.5834 -0.1465 -0.2550
   11SAPS   C11 1340   3.019   5.161   5.804  0.1511 -0.2430  0.6176
   11SAPS  H11A 1341   3.106   5.092   5.807  0.0643 -0.3223  1.3615
   11SAPS  H11B 1342   2.963   5.130   5.713  0.9722 -0.3002  0.1295
   11SAPS     P 1343   2.792   5.141   5.903  0.4186  0.2744 -0.3355
   11SAPS   O13 1344   2.750   5.278   5.870  0.0310  0.0654  0.3066
   11SAPS   O14 1345   2.733   5.033   5.823  0.2279 -0.0032  0.4734
   11SAPS   O12 1346   2.950   5.133   5.922 -0.2611 -0.1998 -0.5384
   11SAPS   O11 1347   2.748   5.118   6.047 -0.1299 -0.4937 -0.4850
   11SAPS    C1 1348   2.805   5.038   6.150 -0.2275 -0.2226 -0.6333
   11SAPS    HA 1349   2.734   4.954   6.164 -0.4469  0.2302  1.0768
   11SAPS    HB 1350   2.903   4.995   6.120  0.4567  2.1202 -1.8297
   11SAPS    C2 1351   2.811   5.124   6.276 -0.4470 -0.0995 -0.2235
   11SAPS    HS 1352   2.849   5.069   6.365 -1.2910  0.6935  0.6337
   11SAPS   O21 1353   2.682   5.174   6.300 -0.1770  0.0670 -0.4637
   11SAPS   C21 1354   2.597   5.106   6.373  0.7394 -0.4726 -1.2061
   11SAPS   O22 1355   2.616   4.997   6.423  0.5013 -0.5707 -1.0010
   11SAPS   C22 1356   2.462   5.184   6.382 -0.2539  0.1983  0.3132
   11SAPS   H2R 1357   2.462   5.278   6.323  1.8483  0.1484  0.2162
   11SAPS   H2S 1358   2.388   5.115   6.335  1.3732 -0.6450 -1.0384
   11SAPS    C3 1359   2.911   5.242   6.263 -0.7127 -0.8122  0.0386
   11SAPS    HX 1360   2.893   5.314   6.179  1.0057 -1.2608 -0.7225
   11SAPS    HY 1361   3.013   5.205   6.241 -0.0702  1.9361 -1.9919
   11SAPS   O31 1362   2.903   5.316   6.382  0.1056  0.2634 -0.2550
   11SAPS   C31 1363   3.016   5.355   6.437 -0.5360 -0.7032  0.0168
   11SAPS   O32 1364   3.127   5.329   6.389  0.0073 -0.1743  0.3940
   11SAPS   C32 1365   2.990   5.433   6.561 -0.4871 -0.1738  0.0104
   11SAPS   H2X 1366   2.911   5.372   6.609 -1.8437  0.7206 -1.0435
   11SAPS   H2Y 1367   2.948   5.530   6.527 -1.5018 -0.2257  1.0564
   11SAPS   C23 1368   2.419   5.213   6.524 -0.1454  0.0408 -0.6485
   11SAPS   H3R 1369   2.434   5.140   6.606  0.5861  1.5164  0.5756
   11SAPS   H3S 1370   2.309   5.217   6.512 -0.4269 -0.0905  1.7134
   11SAPS   C24 1371   2.469   5.345   6.577 -0.3899  0.7088  0.5574
   11SAPS   H4R 1372   2.421   5.425   6.516  2.6325  0.7561 -1.8989
   11SAPS   H4S 1373   2.579   5.350   6.559 -0.5170 -0.6258 -0.6903
   11SAPS   C25 1374   2.417   5.365   6.721  0.7341 -0.5564  0.6124
   11SAPS   H5R 1375   2.310   5.346   6.733  0.6968 -0.1192  0.9846
   11SAPS   C26 1376   2.490   5.390   6.827  0.9559  0.6017  0.6861
   11SAPS   H6R 1377   2.430   5.418   6.915 -2.8321 -2.7011 -0.6358
   11SAPS   C27 1378   2.635   5.414   6.832 -0.0553  0.2397  0.4134
   11SAPS   H7R 1379   2.692   5.398   6.738  0.9299  1.8171  0.7273
   11SAPS   H7S 1380   2.674   5.335   6.900  1.6868 -0.7203 -1.6534
   11SAPS   C28 1381   2.689   5.545   6.873  0.0988 -0.0406 -0.1866
   11SAPS   H8R 1382   2.696   5.625   6.798 -0.8293 -1.6248 -1.9979
   11SAPS   C29 1383   2.737   5.574   6.995 -0.1827  0.1803  0.1254
   11SAPS   H9R 1384   2.781   5.673   7.014  0.0818  0.0446  0.2064
   11SAPS  C210 1385   2.731   5.488   7.124 -0.1796  0.4320  0.2595
   11SAPS  H10R 1386   2.836   5.466   7.156 -0.3210 -2.6929 -1.2376
   11SAPS  H10S 1387   2.688   5.388   7.105  1.3444  0.0354 -1.2745
   11SAPS  C211 1388   2.654   5.555   7.233  0.0681 -0.1168 -0.3786
   11SAPS  H11R 1389   2.564   5.611   7.202 -1.5512 -2.6644 -0.3886
   11SAPS  C212 1390   2.689   5.554   7.363  0.4221  0.0939 -1.0443
   11SAPS  H12R 1391   2.616   5.609   7.425 -0.6095 -2.5266  0.1719
   11SAPS  C213 1392   2.793   5.488   7.439 -0.3319 -0.4443 -0.4190
   11SAPS  H13R 1393   2.819   5.560   7.519  0.0373 -1.1986  0.1482
   11SAPS  H13S 1394   2.882   5.491   7.372  0.0828  1.8011  0.2008
   11SAPS  C214 1395   2.765   5.353   7.486 -0.6694 -0.6424 -0.5475
   11SAPS  H14R 1396   2.671   5.357   7.544 -1.2310  0.6003 -1.5093
   11SAPS  C215 1397   2.820   5.238   7.442 -0.2098 -0.1381  0.4414
   11SAPS  H15R 1398   2.777   5.146   7.483 -1.6439  1.5124  2.7941
   11SAPS  C216 1399   2.929   5.240   7.337  0.3557 -0.2043 -0.4058
   11SAPS  H16R 1400   3.027   5.209   7.379  0.2024 -1.6051 -1.0564
   11SAPS  H16S 1401   2.949   5.340   7.293 -1.5499  0.1114 -0.6034
   11SAPS  C217 1402   2.894   5.154   7.214  0.6555  0.0543  0.0999
   11SAPS  H17R 1403   2.805   5.192   7.158 -0.8821 -2.5709  0.6711
   11SAPS  H17S 1404   2.876   5.046   7.231  1.6202 -0.6520 -3.0780
   11SAPS  C218 1405   3.014   5.160   7.117  0.5435 -0.2788  0.0640
   11SAPS  H18R 1406   3.106   5.128   7.172  2.2182  0.7174 -2.0709
   11SAPS  H18S 1407   3.021   5.264   7.080  1.6767  0.0058  1.0254
   11SAPS  C219 1408   2.994   5.069   6.991 -0.2427  0.0420  0.0371
   11SAPS  H19R 1409   2.893   5.085   6.946  0.0576  0.2324 -0.5880
   11SAPS  H19S 1410   2.994   4.965   7.029  0.9400  0.1095  0.2284
   11SAPS  C220 1411   3.101   5.097   6.883  0.6873  1.0883 -0.5393
   11SAPS  H20R 1412   3.204   5.099   6.923  0.9237 -0.9624 -1.0123
   11SAPS  H20S 1413   3.083   5.196   6.836 -0.1177  0.3341 -1.8223
   11SAPS  H20T 1414   3.094   5.014   6.810 -0.5968 -0.9856  1.8396
   11SAPS   C33 1415   3.107   5.436   6.666 -0.1888  0.2878 -0.0897
   11SAPS   H3X 1416   3.187   5.507   6.636  1.2330  0.2529  3.3678
   11SAPS   H3Y 1417   3.150   5.334   6.666 -0.6980  0.0553  1.5360
   11SAPS   C34 1418   3.056   5.474   6.813  0.0356  0.2107 -0.0835
   11SAPS   H4X 1419   2.976   5.404   6.846 -1.4165  2.6792  1.7969
   11SAPS   H4Y 1420   3.011   5.575   6.803 -1.0561 -0.0091  2.3112
   11SAPS   C35 1421   3.168   5.497   6.907 -0.2265 -0.3829 -0.2904
   11SAPS   H5X 1422   3.237   5.571   6.861  0.3247 -0.9474 -0.3885
   11SAPS   H5Y 1423   3.212   5.399   6.936  0.5404  0.0861  0.1541
   11SAPS   C36 1424   3.120   5.561   7.047 -0.1472 -0.1465 -0.4978
   11SAPS   H6X 1425   3.044   5.492   7.089  0.1489  1.1276  2.2021
   11SAPS   H6Y 1426   3.067   5.654   7.018  0.3021  0.2860  0.0692
   11SAPS   C37 1427   3.226   5.573   7.147  0.3384 -0.3547 -0.7062
   11SAPS   H7X 1428   3.316   5.615   7.098 -0.2642 -1.9932 -3.3495
   11SAPS   H7Y 1429   3.263   5.476   7.187 -2.0140 -0.3688  1.5908
   11SAPS   C38 1430   3.163   5.662   7.259 -0.3095 -0.3966  0.3489
   11SAPS   H8X 1431   3.064   5.629   7.297 -1.6511  2.2424 -0.7180
   11SAPS   H8Y 1432   3.136   5.763   7.219 -0.0448 -1.1600 -1.7992
   11SAPS   C39 1433   3.256   5.673   7.381  0.0723 -0.2569  0.5610
   11SAPS   H9X 1434   3.351   5.719   7.346  0.7185 -1.8705  0.1840
   11SAPS   H9Y 1435   3.291   5.576   7.420  0.7896 -0.5874 -0.8546
   11SAPS  C310 1436   3.196   5.749   7.501  0.0556 -0.2744  0.3092
   11SAPS  H10X 1437   3.118   5.673   7.523  1.2285 -0.7980  2.8095
   11SAPS  H10Y 1438   3.145   5.842   7.466  0.6438  1.3274  3.5014
   11SAPS  C311 1439   3.284   5.764   7.632 -0.3747  0.4567  0.0073
   11SAPS  H11X 1440   3.381   5.816   7.618 -1.2032  2.0897  0.2006
   11SAPS  H11Y 1441   3.308   5.661   7.665 -2.3912 -0.3825 -1.0786
   11SAPS  C312 1442   3.214   5.839   7.748 -0.0298 -0.1136 -0.2958
   11SAPS  H12X 1443   3.107   5.813   7.746  0.4738 -2.1681 -3.0971
   11SAPS  H12Y 1444   3.219   5.949   7.730  2.4844 -0.2980 -1.0389
   11SAPS  C313 1445   3.276   5.799   7.889 -0.0997 -0.0578  0.0585
   11SAPS  H13X 1446   3.386   5.809   7.875 -0.1281 -0.8046 -0.7672
   11SAPS  H13Y 1447   3.247   5.692   7.891 -0.4013  0.0159 -0.3170
   11SAPS  C314 1448   3.207   5.865   8.012 -0.1697  0.3229 -0.0378
   11SAPS  H14X 1449   3.106   5.823   8.034  0.0319  1.2503  2.9331
   11SAPS  H14Y 1450   3.188   5.966   7.971 -1.6497  0.2141  0.3510
   11SAPS  C315 1451   3.284   5.883   8.147 -0.5109 -0.2810  0.1315
   11SAPS  H15X 1452   3.393   5.874   8.130 -0.6789 -1.3169 -0.3663
   11SAPS  H15Y 1453   3.251   5.799   8.211 -0.4653  0.8652  1.7002
   11SAPS  C316 1454   3.232   6.002   8.222 -0.2489 -0.8167  0.1566
   11SAPS  H16X 1455   3.260   6.094   8.165 -2.1647 -1.4492 -1.9185
   11SAPS  H16Y 1456   3.287   6.004   8.318  0.5429  0.5647 -0.3081
   11SAPS  C317 1457   3.083   6.001   8.244  0.5031 -0.1862  0.4830
   11SAPS  H17X 1458   3.058   5.912   8.305 -2.2410  1.0272  1.1764
   11SAPS  H17Y 1459   3.021   5.993   8.152 -3.1927  0.9945  2.8026
   11SAPS  C318 1460   3.039   6.128   8.315 -0.3906  0.6765 -0.3552
   11SAPS  H18X 1461   3.053   6.221   8.255 -1.5560  0.6363 -0.6931
   11SAPS  H18Y 1462   3.101   6.135   8.407  0.8255  0.5892 -1.1477
   11SAPS  H18Z 1463   2.934   6.134   8.350 -0.8685 -5.1456 -0.2780
   12SAPS     N 1464   2.454   6.675   5.933  0.3275  0.1394  0.6170
   12SAPS   HN1 1465   2.514   6.611   5.989  1.0549 -0.5969 -0.9692
   12SAPS   HN2 1466   2.419   6.613   5.856 -0.3375  0.4964  0.6257
   12SAPS   HN3 1467   2.519   6.740   5.884 -2.3018  0.4675 -2.6455
   12SAPS   C12 1468   2.340   6.726   6.017 -0.1049 -0.5458  0.1869
   12SAPS  H12A 1469   2.378   6.758   6.113 -0.7345  0.0633  0.2425
   12SAPS   C13 1470   2.255   6.842   5.957 -0.2568 -0.0876 -0.6157
   12SAPS  O13A 1471   2.273   6.884   5.838  0.5315 -0.3288  0.1902
   12SAPS  O13B 1472   2.154   6.873   6.026 -0.2247  0.4877  0.3523
   12SAPS   C11 1473   2.243   6.610   6.051  0.2946  0.2869 -0.6211
   12SAPS  H11A 1474   2.186   6.589   5.957  1.4260 -0.9441 -1.0481
   12SAPS  H11B 1475   2.166   6.651   6.120  0.9588  0.8048 -0.1854
   12SAPS     P 1476   2.247   6.392   6.192 -0.2894 -0.1076 -0.4367
   12SAPS   O13 1477   2.117   6.358   6.131  0.0036 -0.0883 -0.5003
   12SAPS   O14 1478   2.344   6.287   6.212  0.4053 -0.0713  0.2850
   12SAPS   O12 1479   2.315   6.496   6.098  0.0463 -0.4503  0.0781
   12SAPS   O11 1480   2.223   6.466   6.334 -0.5324  0.2999  0.5636
   12SAPS    C1 1481   2.316   6.572   6.359 -0.1550  0.0028 -0.5290
   12SAPS    HA 1482   2.404   6.580   6.292 -0.6637  4.0678 -0.8682
   12SAPS    HB 1483   2.258   6.667   6.366  2.9016  1.8407  0.9909
   12SAPS    C2 1484   2.399   6.540   6.493  0.9133 -0.5447  0.1522
   12SAPS    HS 1485   2.476   6.620   6.493  0.1565  0.2416  2.5447
   12SAPS   O21 1486   2.449   6.402   6.495  0.2085 -0.1115  0.1551
   12SAPS   C21 1487   2.568   6.392   6.438  0.0180  0.0738 -0.0210
   12SAPS   O22 1488   2.621   6.480   6.368  0.0844  0.0109 -0.5776
   12SAPS   C22 1489   2.632   6.253   6.472 -0.1261 -0.1538  0.3651
   12SAPS   H2R 1490   2.586   6.210   6.563 -0.6965  2.0345  1.1379
   12SAPS   H2S 1491   2.605   6.186   6.387  0.1109  0.4579 -0.1930
   12SAPS    C3 1492   2.304   6.562   6.616 -0.4880  0.6010  0.0497
   12SAPS    HX 1493   2.222   6.487   6.620 -0.3407  0.5125  3.0846
   12SAPS    HY 1494   2.253   6.659   6.595  2.9464  2.3497 -0.6299
   12SAPS   O31 1495   2.396   6.560   6.732  0.1211  0.1049 -0.2393
   12SAPS   C31 1496   2.459   6.673   6.756  0.0401 -0.1865 -0.7899
   12SAPS   O32 1497   2.453   6.774   6.686  0.0964  0.1372  0.2212
   12SAPS   C32 1498   2.529   6.666   6.890 -0.0802  1.1047 -0.0750
   12SAPS   H2X 1499   2.606   6.744   6.903 -0.9098  1.7345  1.2036
   12SAPS   H2Y 1500   2.583   6.570   6.898  0.8008  1.6147  0.1422
   12SAPS   C23 1501   2.792   6.252   6.467 -0.4552 -0.8128  0.5241
   12SAPS   H3R 1502   2.846   6.314   6.392  0.0225 -0.4081  1.1976
   12SAPS   H3S 1503   2.813   6.143   6.466 -0.0684 -0.7451  1.0026
   12SAPS   C24 1504   2.854   6.300   6.595 -0.0849 -0.6109 -0.8330
   12SAPS   H4R 1505   2.963   6.278   6.593  0.1071  0.4109 -2.1015
   12SAPS   H4S 1506   2.815   6.238   6.679  1.2412 -0.0108  0.2334
   12SAPS   C25 1507   2.847   6.449   6.615  0.7000 -0.5263  0.2874
   12SAPS   H5R 1508   2.853   6.515   6.526 -1.7328  1.8923  1.8407
   12SAPS   C26 1509   2.845   6.513   6.734 -0.2042 -0.2533 -0.7389
   12SAPS   H6R 1510   2.842   6.623   6.738 -0.3658 -0.2647 -0.5697
   12SAPS   C27 1511   2.845   6.453   6.875  0.1843  0.1884 -0.7222
   12SAPS   H7R 1512   2.821   6.344   6.879  0.5095  0.1485  0.2063
   12SAPS   H7S 1513   2.769   6.504   6.938  0.5123 -1.4510  1.0460
   12SAPS   C28 1514   2.979   6.471   6.945  0.0122  0.3723 -0.9759
   12SAPS   H8R 1515   3.056   6.518   6.881  1.9001  0.0984  1.0468
   12SAPS   C29 1516   3.007   6.446   7.080  0.9285 -0.2241  0.2408
   12SAPS   H9R 1517   3.105   6.462   7.127  2.2343 -0.2848 -2.4083
   12SAPS  C210 1518   2.912   6.388   7.184  0.0631  0.6251  0.3247
   12SAPS  H10R 1519   2.967   6.327   7.259 -1.9434 -0.7370  0.7257
   12SAPS  H10S 1520   2.837   6.326   7.131  0.7992  0.3927 -0.4703
   12SAPS  C211 1521   2.848   6.508   7.247 -1.1061  0.0376 -0.8564
   12SAPS  H11R 1522   2.877   6.606   7.207 -1.2864  0.3921 -0.1224
   12SAPS  C212 1523   2.757   6.488   7.346  0.5816  0.0722  0.4637
   12SAPS  H12R 1524   2.713   6.576   7.395 -2.9817 -0.8924 -0.9052
   12SAPS  C213 1525   2.703   6.354   7.384  0.0718  0.4632 -1.0356
   12SAPS  H13R 1526   2.758   6.260   7.361 -0.8932 -0.1893 -0.7387
   12SAPS  H13S 1527   2.610   6.346   7.324 -1.5445 -3.4859  1.7939
   12SAPS  C214 1528   2.673   6.344   7.537  0.3239 -0.2494  0.5004
   12SAPS  H14R 1529   2.764   6.354   7.597  0.8061  0.0408 -0.2616
   12SAPS  C215 1530   2.563   6.312   7.595 -0.1448  0.1785 -0.3312
   12SAPS  H15R 1531   2.570   6.310   7.705 -0.1058 -2.0538 -0.3385
   12SAPS  C216 1532   2.429   6.273   7.535  0.7086  0.2663  0.2462
   12SAPS  H16R 1533   2.429   6.253   7.425  0.0916 -1.2195  0.5056
   12SAPS  H16S 1534   2.361   6.361   7.544  1.0706  0.3660  2.0850
   12SAPS  C217 1535   2.362   6.159   7.612  0.1823 -0.1666 -0.6389
   12SAPS  H17R 1536   2.415   6.062   7.614  0.2623 -0.1066  1.2808
   12SAPS  H17S 1537   2.257   6.145   7.577 -0.1538 -2.2877  1.1193
   12SAPS  C218 1538   2.339   6.200   7.763 -0.0446 -0.3921  0.8730
   12SAPS  H18R 1539   2.282   6.295   7.771 -0.8833 -0.9548  1.5477
   12SAPS  H18S 1540   2.439   6.224   7.805  1.4165  0.2542 -2.7877
   12SAPS  C219 1541   2.279   6.092   7.850 -1.4612 -0.4716  0.0035
   12SAPS  H19R 1542   2.297   6.128   7.954  0.1918 -0.1940 -0.3597
   12SAPS  H19S 1543   2.335   5.997   7.838 -0.7648 -0.2289  1.1912
   12SAPS  C220 1544   2.130   6.060   7.829  0.1444  0.3348  1.0650
   12SAPS  H20R 1545   2.055   6.137   7.858 -1.9104 -1.3637  0.3203
   12SAPS  H20S 1546   2.115   5.971   7.893  2.1505  0.7510  2.1808
   12SAPS  H20T 1547   2.115   6.036   7.722 -1.3927  0.9970  1.1269
   12SAPS   C33 1548   2.425   6.687   7.004 -0.0717  0.3468  0.0791
   12SAPS   H3X 1549   2.335   6.625   6.980  1.1770 -0.6503 -2.1965
   12SAPS   H3Y 1550   2.393   6.793   7.010  2.4538  1.0128  2.3288
   12SAPS   C34 1551   2.479   6.649   7.136 -0.0323 -0.4370  0.1299
   12SAPS   H4X 1552   2.574   6.702   7.158  0.1233 -0.7666  0.2542
   12SAPS   H4Y 1553   2.503   6.542   7.151  2.9225  0.3227  1.2311
   12SAPS   C35 1554   2.372   6.694   7.239  0.0581  0.2943 -0.0548
   12SAPS   H5X 1555   2.280   6.637   7.213 -1.1940  2.2575 -0.0436
   12SAPS   H5Y 1556   2.349   6.802   7.229 -0.6618  0.1043 -0.5254
   12SAPS   C36 1557   2.400   6.661   7.389 -0.2022  0.4207 -0.2089
   12SAPS   H6X 1558   2.461   6.746   7.426  0.2432 -0.4522  1.0934
   12SAPS   H6Y 1559   2.460   6.568   7.394 -1.2381 -0.3342 -1.3396
   12SAPS   C37 1560   2.266   6.651   7.464  0.0138 -0.3422 -0.9452
   12SAPS   H7X 1561   2.204   6.565   7.430 -0.5768 -0.2278 -0.1793
   12SAPS   H7Y 1562   2.206   6.740   7.437  1.3276  0.5807 -0.8202
   12SAPS   C38 1563   2.290   6.644   7.612  0.6099 -0.4205 -0.2356
   12SAPS   H8X 1564   2.314   6.747   7.644 -0.7193 -0.9636  2.7434
   12SAPS   H8Y 1565   2.380   6.583   7.637  1.1466  1.1665  1.7594
   12SAPS   C39 1566   2.175   6.577   7.692 -0.0173  0.8482  0.3688
   12SAPS   H9X 1567   2.160   6.472   7.659 -2.9970  1.8509 -1.6127
   12SAPS   H9Y 1568   2.084   6.641   7.692 -0.8748 -0.3539  0.9060
   12SAPS  C310 1569   2.221   6.574   7.837  0.8206  0.4181  0.0292
   12SAPS  H10X 1570   2.228   6.678   7.873  2.0465  0.4681 -0.3383
   12SAPS  H10Y 1571   2.321   6.526   7.829  0.5995 -0.1713  0.7160
   12SAPS  C311 1572   2.132   6.499   7.933 -0.2643 -0.4761 -0.5397
   12SAPS  H11X 1573   2.142   6.391   7.907  2.1639  0.1139 -2.2620
   12SAPS  H11Y 1574   2.026   6.527   7.916 -0.5530 -1.0164  0.3052
   12SAPS  C312 1575   2.180   6.500   8.077 -0.1420 -0.3446 -0.1226
   12SAPS  H12X 1576   2.125   6.576   8.137  0.6158  0.7980 -0.8735
   12SAPS  H12Y 1577   2.290   6.516   8.078  0.0660 -1.6631 -0.8357
   12SAPS  C313 1578   2.144   6.365   8.160 -0.0084 -0.6289  0.4190
   12SAPS  H13X 1579   2.199   6.276   8.123 -1.3821 -2.0200  1.6993
   12SAPS  H13Y 1580   2.039   6.334   8.145 -0.9421  2.4972  0.1361
   12SAPS  C314 1581   2.159   6.381   8.307 -0.1992  0.3452 -0.4008
   12SAPS  H14X 1582   2.093   6.466   8.334 -0.9290 -0.7202  1.2601
   12SAPS  H14Y 1583   2.266   6.404   8.322 -0.8905  3.8279 -0.5063
   12SAPS  C315 1584   2.102   6.268   8.390  0.5696  0.5365 -0.0363
   12SAPS  H15X 1585   2.156   6.171   8.384 -2.3033 -1.0867 -0.1571
   12SAPS  H15Y 1586   2.000   6.247   8.352 -0.0938  2.3915  0.6446
   12SAPS  C316 1587   2.085   6.306   8.544 -0.8050  0.5043 -0.8379
   12SAPS  H16X 1588   1.998   6.372   8.568 -1.3341 -1.2971  2.5660
   12SAPS  H16Y 1589   2.180   6.354   8.577  0.6664 -3.1438  0.4637
   12SAPS  C317 1590   2.053   6.179   8.623 -0.1167  0.1966 -0.6280
   12SAPS  H17X 1591   2.146   6.120   8.605  0.0484  0.5767 -1.0222
   12SAPS  H17Y 1592   1.968   6.118   8.588  0.7814 -0.0895 -2.3514
   12SAPS  C318 1593   2.044   6.203   8.776  0.6057 -0.0091 -0.6623
   12SAPS  H18X 1594   2.148   6.209   8.815  0.9387 -0.5273 -1.4583
   12SAPS  H18Y 1595   2.002   6.114   8.828  0.7183 -0.6359 -1.6418
   12SAPS  H18Z 1596   1.995   6.300   8.801 -0.2177 -0.2484 -1.3262
   13SAPS     N 1597   3.244   3.352   6.255  0.2194 -0.0543 -0.3680
   13SAPS   HN1 1598   3.244   3.421   6.333  0.6069 -1.1825  0.6468
   13SAPS   HN2 1599   3.184   3.273   6.285  1.7962 -0.4213  1.9155
   13SAPS   HN3 1600   3.339   3.310   6.253 -0.4227 -1.6398  1.3344
   13SAPS   C12 1601   3.190   3.412   6.124 -0.8961  0.0761 -0.3527
   13SAPS  H12A 1602   3.264   3.484   6.093  0.8301 -1.4466  0.1736
   13SAPS   C13 1603   3.149   3.328   6.005  0.4717  0.2431  0.2585
   13SAPS  O13A 1604   3.182   3.206   6.009 -0.4833  0.3330 -0.3651
   13SAPS  O13B 1605   3.117   3.379   5.895  0.0691 -0.1668 -0.6273
   13SAPS   C11 1606   3.067   3.502   6.156  0.0817  1.0267  0.5818
   13SAPS  H11A 1607   2.983   3.439   6.190 -0.5120  1.8315  0.6246
   13SAPS  H11B 1608   3.033   3.532   6.054 -0.0801 -0.2031  0.2641
   13SAPS     P 1609   3.103   3.747   6.214 -0.1708 -0.5146 -0.2392
   13SAPS   O13 1610   3.232   3.802   6.262  0.5696 -0.0993 -0.1687
   13SAPS   O14 1611   3.084   3.760   6.068 -0.0542  0.1002 -0.1785
   13SAPS   O12 1612   3.097   3.600   6.246  0.0735 -0.0295 -0.0984
   13SAPS   O11 1613   2.980   3.798   6.299  0.0314  0.8710  0.3518
   13SAPS    C1 1614   2.982   3.831   6.438 -0.4063 -0.0485 -0.4387
   13SAPS    HA 1615   3.077   3.884   6.463 -1.0549  0.7399  0.4042
   13SAPS    HB 1616   2.899   3.901   6.462 -0.1254  0.7417 -1.7281
   13SAPS    C2 1617   2.969   3.708   6.531 -0.2556 -0.0340  0.2416
   13SAPS    HS 1618   2.950   3.618   6.468 -1.2138  0.9004 -0.8309
   13SAPS   O21 1619   2.859   3.728   6.622 -0.2003 -0.1352 -0.1774
   13SAPS   C21 1620   2.803   3.621   6.674  0.0874  0.1319 -0.2676
   13SAPS   O22 1621   2.823   3.507   6.628  0.2815  0.5641  0.1713
   13SAPS   C22 1622   2.716   3.649   6.792 -0.0372 -0.1759  0.2857
   13SAPS   H2R 1623   2.641   3.721   6.754  0.4744  1.1017  1.6581
   13SAPS   H2S 1624   2.658   3.559   6.822  0.9593 -1.4688 -1.5827
   13SAPS    C3 1625   3.103   3.682   6.612 -0.2115 -0.3725  0.6032
   13SAPS    HX 1626   3.105   3.759   6.692  0.3630  0.8490 -0.5723
   13SAPS    HY 1627   3.196   3.702   6.553 -0.4845 -0.7435  0.0445
   13SAPS   O31 1628   3.096   3.555   6.677  0.6404  0.0159  0.4416
   13SAPS   C31 1629   3.144   3.451   6.612 -0.9674  0.5648 -0.3327
   13SAPS   O32 1630   3.212   3.464   6.510 -0.2041  0.1324  0.2885
   13SAPS   C32 1631   3.107   3.318   6.675  0.5528 -0.4700  0.4131
   13SAPS   H2X 1632   3.160   3.233   6.628  1.9603  0.1675  0.8117
   13SAPS   H2Y 1633   2.997   3.307   6.678  0.1258  2.4131 -1.5981
   13SAPS   C23 1634   2.801   3.702   6.913  0.2746 -0.5491  0.1335
   13SAPS   H3R 1635   2.735   3.756   6.984 -0.2505 -0.6102 -0.3033
   13SAPS   H3S 1636   2.867   3.784   6.875  0.0177 -0.7483 -0.7397
   13SAPS   C24 1637   2.889   3.593   6.981  0.1561  0.7503  0.7301
   13SAPS   H4R 1638   2.951   3.637   7.062  0.5963 -1.7212  1.7905
   13SAPS   H4S 1639   2.970   3.558   6.914  1.0480 -1.0374  2.6758
   13SAPS   C25 1640   2.792   3.481   7.027  0.0128 -0.4534  0.4149
   13SAPS   H5R 1641   2.764   3.415   6.944 -0.5806  0.3218 -0.0045
   13SAPS   C26 1642   2.751   3.455   7.152 -0.4564  0.1147  0.1088
   13SAPS   H6R 1643   2.687   3.366   7.163  1.8238 -1.5145  0.5743
   13SAPS   C27 1644   2.771   3.531   7.281  0.0647 -0.2282 -0.4073
   13SAPS   H7R 1645   2.672   3.540   7.331  0.1379 -1.7731  0.0247
   13SAPS   H7S 1646   2.803   3.635   7.259 -0.0398  0.2874  1.8472
   13SAPS   C28 1647   2.869   3.466   7.378 -0.3338  0.0557  0.2270
   13SAPS   H8R 1648   2.964   3.441   7.330 -1.7150 -1.4639 -1.7793
   13SAPS   C29 1649   2.855   3.444   7.507  0.2766 -0.3313 -0.7316
   13SAPS   H9R 1650   2.939   3.405   7.566  0.3164  0.0749 -0.5188
   13SAPS  C210 1651   2.738   3.477   7.597 -0.6842 -0.2947  0.7754
   13SAPS  H10R 1652   2.642   3.440   7.555 -1.0773 -0.4472  1.7983
   13SAPS  H10S 1653   2.714   3.586   7.596  0.3953 -0.0568 -0.8418
   13SAPS  C211 1654   2.738   3.425   7.740 -0.0201  0.7457 -0.2030
   13SAPS  H11R 1655   2.667   3.343   7.757 -0.6841  1.2710 -0.4389
   13SAPS  C212 1656   2.824   3.449   7.843  0.1304 -0.1144  0.3497
   13SAPS  H12R 1657   2.812   3.399   7.940 -1.4799  1.2267  0.8706
   13SAPS  C213 1658   2.921   3.559   7.837  0.4298  0.2005  0.5560
   13SAPS  H13R 1659   2.849   3.640   7.813 -0.2698 -0.8141 -0.8042
   13SAPS  H13S 1660   2.998   3.544   7.758  0.9782 -1.6309  1.4015
   13SAPS  C214 1661   2.987   3.568   7.972  0.1472 -0.1933 -0.0751
   13SAPS  H14R 1662   3.068   3.496   7.994  0.7097  0.5058  0.1395
   13SAPS  C215 1663   2.961   3.660   8.062  0.1126 -0.0003 -0.0663
   13SAPS  H15R 1664   3.031   3.669   8.147  1.0455 -0.0562 -0.8207
   13SAPS  C216 1665   2.869   3.781   8.049  0.1229 -0.2619  0.3883
   13SAPS  H16R 1666   2.841   3.817   7.948  2.6376 -0.8093 -0.5405
   13SAPS  H16S 1667   2.922   3.863   8.102  1.0431  0.2430 -1.3049
   13SAPS  C217 1668   2.736   3.774   8.126  0.2771  1.0535  0.0877
   13SAPS  H17R 1669   2.752   3.720   8.221 -0.9916  2.1277  0.9407
   13SAPS  H17S 1670   2.665   3.707   8.073  1.4850 -0.9095  0.9042
   13SAPS  C218 1671   2.672   3.908   8.153  0.5852  0.1335  0.3850
   13SAPS  H18R 1672   2.640   3.957   8.060  0.0839 -0.4966  0.2207
   13SAPS  H18S 1673   2.745   3.974   8.204  0.9980  2.4942 -3.1753
   13SAPS  C219 1674   2.541   3.903   8.246 -0.7553 -0.1126 -0.1006
   13SAPS  H19R 1675   2.465   3.830   8.214 -0.5976  0.0940 -0.9416
   13SAPS  H19S 1676   2.493   4.003   8.232 -0.3677 -0.1497 -1.6699
   13SAPS  C220 1677   2.574   3.886   8.394  0.0758 -0.2008 -0.1153
   13SAPS  H20R 1678   2.624   3.978   8.432  0.8263 -0.7741  0.3169
   13SAPS  H20S 1679   2.649   3.804   8.397 -1.8553 -2.0638 -1.3594
   13SAPS  H20T 1680   2.478   3.870   8.447 -0.9099  2.5851 -0.9763
   13SAPS   C33 1681   3.142   3.328   6.824 -0.8234 -0.4512 -0.1955
   13SAPS   H3X 1682   3.124   3.228   6.869 -0.4067  0.3368  1.7667
   13SAPS   H3Y 1683   3.063   3.389   6.873 -1.6411 -1.9071  0.3288
   13SAPS   C34 1684   3.275   3.386   6.866 -0.3182 -0.4325 -0.5251
   13SAPS   H4X 1685   3.297   3.487   6.824 -0.8295 -0.2575 -0.3684
   13SAPS   H4Y 1686   3.351   3.316   6.824  0.7025 -1.2494  2.5087
   13SAPS   C35 1687   3.289   3.386   7.018 -0.9537 -0.3185 -0.0486
   13SAPS   H5X 1688   3.397   3.402   7.039 -1.0412 -0.7144  0.7048
   13SAPS   H5Y 1689   3.265   3.289   7.066  0.1893 -0.8306 -0.5099
   13SAPS   C36 1690   3.204   3.492   7.083 -0.6488  0.7641  0.4731
   13SAPS   H6X 1691   3.142   3.435   7.156 -1.5522 -2.1957 -2.4851
   13SAPS   H6Y 1692   3.133   3.532   7.007  0.7806  1.2135 -0.6447
   13SAPS   C37 1693   3.281   3.611   7.145  0.2448  0.5244 -0.4961
   13SAPS   H7X 1694   3.226   3.700   7.108  0.5104  1.2915  0.9273
   13SAPS   H7Y 1695   3.381   3.608   7.097  0.1054 -0.8764 -0.7148
   13SAPS   C38 1696   3.310   3.617   7.295  1.0092 -0.2965 -0.3920
   13SAPS   H8X 1697   3.381   3.536   7.320  1.6022  0.1229 -0.6964
   13SAPS   H8Y 1698   3.219   3.588   7.353  0.5682 -2.0600 -1.9211
   13SAPS   C39 1699   3.372   3.746   7.328  0.9393 -0.1394 -0.1661
   13SAPS   H9X 1700   3.308   3.827   7.286 -0.2543 -1.8423 -1.6953
   13SAPS   H9Y 1701   3.475   3.754   7.287  0.1561  1.0925 -1.9792
   13SAPS  C310 1702   3.393   3.766   7.483  0.2954 -0.5360 -0.1860
   13SAPS  H10X 1703   3.450   3.861   7.490  0.8531 -0.9279  0.6469
   13SAPS  H10Y 1704   3.452   3.680   7.519  1.4631  0.3349 -0.0069
   13SAPS  C311 1705   3.263   3.811   7.554 -0.2972  0.6304  0.3085
   13SAPS  H11X 1706   3.174   3.757   7.515  0.5110  0.3423 -1.1482
   13SAPS  H11Y 1707   3.248   3.919   7.535 -2.0887  0.7020  1.9176
   13SAPS  C312 1708   3.260   3.807   7.715 -0.4186 -0.0969  0.1640
   13SAPS  H12X 1709   3.269   3.705   7.757  0.1038 -0.3219 -0.5052
   13SAPS  H12Y 1710   3.161   3.851   7.743 -0.5281 -0.3536  0.1762
   13SAPS  C313 1711   3.360   3.901   7.775 -0.0932  0.5918  0.7800
   13SAPS  H13X 1712   3.371   4.000   7.726  0.4449 -0.6949 -1.7791
   13SAPS  H13Y 1713   3.458   3.853   7.755  0.2873  0.9230  1.8362
   13SAPS  C314 1714   3.330   3.931   7.921 -0.0086 -0.4543  0.5116
   13SAPS  H14X 1715   3.409   3.981   7.982 -1.8502  2.1681  0.8131
   13SAPS  H14Y 1716   3.309   3.833   7.969  0.6163 -0.1491  1.4352
   13SAPS  C315 1717   3.213   4.031   7.921  0.1542 -0.1642 -0.1285
   13SAPS  H15X 1718   3.131   3.990   7.858  1.6232 -3.8098  0.2428
   13SAPS  H15Y 1719   3.250   4.126   7.875  0.9335  0.4238  1.6733
   13SAPS  C316 1720   3.159   4.057   8.066  0.1171 -0.2530  0.0761
   13SAPS  H16X 1721   3.242   4.114   8.113  0.4132 -1.4760  1.0768
   13SAPS  H16Y 1722   3.136   3.960   8.116 -1.7883  0.9574  1.6224
   13SAPS  C317 1723   3.031   4.147   8.065 -0.7732  0.0503  0.4552
   13SAPS  H17X 1724   2.950   4.106   8.002 -0.8595 -1.6255  1.6208
   13SAPS  H17Y 1725   3.063   4.241   8.015  2.0940 -1.0754  0.0468
   13SAPS  C318 1726   2.980   4.177   8.207 -0.2258 -0.1875  0.1872
   13SAPS  H18X 1727   2.934   4.082   8.244  0.7158 -0.4261  0.7677
   13SAPS  H18Y 1728   2.898   4.251   8.200 -0.6671 -0.3154  3.3178
   13SAPS  H18Z 1729   3.067   4.205   8.270  3.7940 -1.9598 -4.2534
   14SAPS     N 1730   2.318   5.987   5.969  0.0713 -0.2161  0.5428
   14SAPS   HN1 1731   2.406   6.040   5.985  0.1467  0.2047 -1.1694
   14SAPS   HN2 1732   2.315   5.987   5.865 -1.0720  0.5812  0.5620
   14SAPS   HN3 1733   2.235   6.036   6.007 -0.2233 -1.3059  1.3302
   14SAPS   C12 1734   2.338   5.844   6.012 -0.1385 -0.8777  1.0905
   14SAPS  H12A 1735   2.355   5.841   6.119 -1.4642 -0.6301  1.3181
   14SAPS   C13 1736   2.214   5.752   5.992  0.1920  0.7810 -0.5675
   14SAPS  O13A 1737   2.119   5.797   5.923  0.1898  0.0568 -0.5097
   14SAPS  O13B 1738   2.206   5.652   6.064  0.5429 -0.0233  0.1584
   14SAPS   C11 1739   2.454   5.788   5.928  0.2239  0.3886  0.1569
   14SAPS  H11A 1740   2.419   5.782   5.823 -0.2576  1.2255  0.2599
   14SAPS  H11B 1741   2.478   5.683   5.955  0.5064  0.4910  0.3154
   14SAPS     P 1742   2.712   5.814   5.866  0.3175 -0.0653  0.0614
   14SAPS   O13 1743   2.682   5.736   5.746  0.7111  0.0991 -0.5141
   14SAPS   O14 1744   2.811   5.922   5.860  0.4486  0.0172 -0.1030
   14SAPS   O12 1745   2.571   5.871   5.936 -0.3804 -0.5835  0.7830
   14SAPS   O11 1746   2.780   5.713   5.969  0.2105  0.1780 -0.0535
   14SAPS    C1 1747   2.723   5.612   6.046 -0.0819 -0.7143 -0.3471
   14SAPS    HA 1748   2.629   5.565   6.009  0.6193 -2.3150 -0.1427
   14SAPS    HB 1749   2.801   5.533   6.045 -0.6138 -1.2833  1.7167
   14SAPS    C2 1750   2.698   5.661   6.192  1.1283  0.3568  0.1689
   14SAPS    HS 1751   2.624   5.742   6.179  1.5057  0.3913 -1.8495
   14SAPS   O21 1752   2.825   5.703   6.243  0.8113  0.4076 -0.3411
   14SAPS   C21 1753   2.833   5.826   6.278  0.6161 -0.1296 -0.0410
   14SAPS   O22 1754   2.736   5.908   6.273  0.6289  0.6640  0.0160
   14SAPS   C22 1755   2.971   5.861   6.326  0.3027  0.2604  0.4160
   14SAPS   H2R 1756   3.037   5.804   6.257  0.4708  0.8345  0.1004
   14SAPS   H2S 1757   2.990   5.967   6.299 -0.2150  0.0351 -0.8896
   14SAPS    C3 1758   2.641   5.555   6.286  0.1547  0.2396  0.0833
   14SAPS    HX 1759   2.713   5.478   6.322  0.7068  0.7426  0.0691
   14SAPS    HY 1760   2.567   5.492   6.232  0.3068 -0.0176  0.1704
   14SAPS   O31 1761   2.593   5.610   6.409 -0.1898  0.5355  0.2911
   14SAPS   C31 1762   2.489   5.679   6.399 -0.6630 -0.6795  0.0228
   14SAPS   O32 1763   2.404   5.678   6.311  0.1793 -0.3625 -0.2269
   14SAPS   C32 1764   2.474   5.762   6.534  0.3654 -0.8060  0.4929
   14SAPS   H2X 1765   2.439   5.693   6.613  0.1568 -1.5709 -0.2617
   14SAPS   H2Y 1766   2.392   5.833   6.507  0.9842 -0.6423 -1.0495
   14SAPS   C23 1767   2.986   5.844   6.485 -0.4132 -0.4999  0.5809
   14SAPS   H3R 1768   2.952   5.740   6.504  0.5440 -1.1647 -1.1879
   14SAPS   H3S 1769   2.923   5.924   6.530  1.9615  1.1869  1.0087
   14SAPS   C24 1770   3.133   5.850   6.528 -0.1060 -0.6222 -0.3766
   14SAPS   H4R 1771   3.173   5.951   6.505 -1.2231  0.3624  1.8454
   14SAPS   H4S 1772   3.187   5.771   6.472  3.2540 -0.7036  2.7423
   14SAPS   C25 1773   3.130   5.821   6.677  0.0231  0.0972  0.2291
   14SAPS   H5R 1774   3.052   5.750   6.706 -0.4243  1.4252  2.4071
   14SAPS   C26 1775   3.197   5.886   6.773 -0.3654  0.1691 -0.5233
   14SAPS   H6R 1776   3.178   5.849   6.875 -1.3075  0.5354 -0.5642
   14SAPS   C27 1777   3.292   6.009   6.759 -0.0087  0.4181 -0.6366
   14SAPS   H7R 1778   3.254   6.102   6.806 -0.3167 -0.7747  1.5851
   14SAPS   H7S 1779   3.304   6.047   6.656 -0.5437  0.3805 -0.7126
   14SAPS   C28 1780   3.427   5.985   6.819 -0.2840 -0.6164 -0.2066
   14SAPS   H8R 1781   3.496   5.944   6.743  0.0083 -0.5251  0.0106
   14SAPS   C29 1782   3.464   5.998   6.949 -0.3784  0.4132 -0.4078
   14SAPS   H9R 1783   3.564   5.975   6.987 -1.2669 -1.0094  1.1343
   14SAPS  C210 1784   3.374   6.048   7.057 -0.2798 -0.1007  0.1535
   14SAPS  H10R 1785   3.270   6.015   7.036 -0.1012 -0.7230  0.2093
   14SAPS  H10S 1786   3.381   6.158   7.055  0.3934 -0.1301  0.6271
   14SAPS  C211 1787   3.404   5.993   7.196  0.6319 -0.0596  0.3328
   14SAPS  H11R 1788   3.461   5.899   7.188  0.6417 -0.0495  0.2829
   14SAPS  C212 1789   3.366   6.045   7.313  0.4704 -0.5157 -0.8722
   14SAPS  H12R 1790   3.407   5.993   7.400  0.1657 -2.0309 -1.6185
   14SAPS  C213 1791   3.285   6.173   7.341 -0.2427  0.2912 -0.1004
   14SAPS  H13R 1792   3.280   6.233   7.248 -0.4404 -0.3314 -0.4933
   14SAPS  H13S 1793   3.353   6.227   7.410 -0.3950 -1.3212  1.3503
   14SAPS  C214 1794   3.146   6.148   7.391 -0.7588  0.2634 -0.0126
   14SAPS  H14R 1795   3.094   6.063   7.344 -0.0962 -0.1956  0.0857
   14SAPS  C215 1796   3.080   6.222   7.481  0.4157 -0.3391  0.2556
   14SAPS  H15R 1797   2.973   6.204   7.497 -0.2140  0.6158 -2.5609
   14SAPS  C216 1798   3.127   6.348   7.546  0.4012 -0.2181  0.0709
   14SAPS  H16R 1799   3.077   6.433   7.495 -2.5838 -1.4832  0.8012
   14SAPS  H16S 1800   3.237   6.366   7.549  0.3076  0.3592  0.2348
   14SAPS  C217 1801   3.073   6.357   7.682  0.2095  0.4538 -0.8421
   14SAPS  H17R 1802   2.966   6.331   7.696  0.0151  1.8636  0.4876
   14SAPS  H17S 1803   3.084   6.461   7.720 -0.4386  0.0316  0.5040
   14SAPS  C218 1804   3.149   6.276   7.798 -0.3848 -0.6755  0.6292
   14SAPS  H18R 1805   3.256   6.306   7.796 -0.6301  0.1747 -0.7051
   14SAPS  H18S 1806   3.159   6.168   7.775 -1.1654 -0.6556  0.1555
   14SAPS  C219 1807   3.102   6.299   7.943 -0.0066  0.5392 -0.4834
   14SAPS  H19R 1808   3.097   6.407   7.970 -2.3343  0.8669 -2.1257
   14SAPS  H19S 1809   3.175   6.251   8.012 -1.6382  1.7612  2.1546
   14SAPS  C220 1810   2.953   6.256   7.959  0.4247  0.1773 -0.3544
   14SAPS  H20R 1811   2.912   6.284   8.059  2.2603 -0.3149  0.5490
   14SAPS  H20S 1812   2.949   6.150   7.926  0.0543  0.2116 -0.4250
   14SAPS  H20T 1813   2.897   6.315   7.883  2.0591  1.8983 -0.2453
   14SAPS   C33 1814   2.602   5.839   6.578  0.2560 -0.0491  0.7576
   14SAPS   H3X 1815   2.620   5.910   6.495 -2.5304  0.7310  0.7690
   14SAPS   H3Y 1816   2.689   5.770   6.589  0.8502  0.4416 -0.7584
   14SAPS   C34 1817   2.572   5.917   6.710  0.1819  0.2596  0.1595
   14SAPS   H4X 1818   2.510   5.864   6.785  0.8547  0.4401  0.8606
   14SAPS   H4Y 1819   2.529   6.020   6.705  0.8794  0.5313 -0.3993
   14SAPS   C35 1820   2.709   5.941   6.781 -0.3527 -0.6886  0.3509
   14SAPS   H5X 1821   2.790   5.977   6.714 -1.2519  0.8753  0.0737
   14SAPS   H5Y 1822   2.736   5.848   6.834  0.6131 -1.6789 -1.8175
   14SAPS   C36 1823   2.690   6.043   6.898  0.3749  0.2149 -0.1908
   14SAPS   H6X 1824   2.610   6.007   6.967  0.7305  2.7071  1.5733
   14SAPS   H6Y 1825   2.647   6.138   6.860  1.9006  0.6255 -0.9085
   14SAPS   C37 1826   2.825   6.061   6.970  0.5325  0.0385  0.3557
   14SAPS   H7X 1827   2.817   6.150   7.036  1.4724 -0.9799  1.8962
   14SAPS   H7Y 1828   2.899   6.081   6.890 -1.0084  0.0708 -1.0727
   14SAPS   C38 1829   2.860   5.944   7.054 -0.3347  0.2021  0.0176
   14SAPS   H8X 1830   2.948   5.971   7.115 -0.4156  1.8561 -0.5542
   14SAPS   H8Y 1831   2.881   5.855   6.990 -1.4438  0.7578 -1.1378
   14SAPS   C39 1832   2.762   5.907   7.165 -0.1547  0.4016  0.2888
   14SAPS   H9X 1833   2.811   5.834   7.232 -0.7553 -0.8586 -0.6137
   14SAPS   H9Y 1834   2.667   5.871   7.119 -1.7522  1.4142  2.6647
   14SAPS  C310 1835   2.726   6.025   7.256  0.3343  0.0020  0.1954
   14SAPS  H10X 1836   2.661   6.101   7.208  1.0331 -0.0507 -0.8440
   14SAPS  H10Y 1837   2.821   6.079   7.273  0.4530  0.4199 -1.7815
   14SAPS  C311 1838   2.664   5.990   7.390  0.3141 -0.7325  0.5092
   14SAPS  H11X 1839   2.591   5.909   7.372 -0.8020  0.6464 -1.3989
   14SAPS  H11Y 1840   2.612   6.076   7.437  0.6646 -0.0975 -0.2516
   14SAPS  C312 1841   2.765   5.941   7.488 -0.3021  0.1115  0.2555
   14SAPS  H12X 1842   2.831   6.026   7.514 -0.7725 -0.3524  3.1536
   14SAPS  H12Y 1843   2.815   5.855   7.438 -2.2918 -0.6213 -0.5049
   14SAPS  C313 1844   2.699   5.885   7.613  0.3246 -0.9575  0.4774
   14SAPS  H13X 1845   2.642   5.799   7.572 -2.3457  0.1431  1.7771
   14SAPS  H13Y 1846   2.625   5.951   7.663  0.9341 -0.4071  0.6626
   14SAPS  C314 1847   2.797   5.822   7.715  0.9425  0.1828  0.3805
   14SAPS  H14X 1848   2.866   5.893   7.765  0.4496 -0.7090  2.4078
   14SAPS  H14Y 1849   2.849   5.737   7.666 -0.4674  1.0689 -2.8014
   14SAPS  C315 1850   2.704   5.761   7.817 -0.6007 -0.1111 -0.3417
   14SAPS  H15X 1851   2.767   5.702   7.886  3.6626  1.5443 -2.6684
   14SAPS  H15Y 1852   2.640   5.682   7.772 -0.2304 -1.1913  0.9950
   14SAPS  C316 1853   2.625   5.862   7.905 -0.6418  0.2650 -0.1514
   14SAPS  H16X 1854   2.520   5.857   7.870 -0.5419  3.2700 -1.0531
   14SAPS  H16Y 1855   2.675   5.960   7.885  0.1042  0.4959  2.5832
   14SAPS  C317 1856   2.616   5.837   8.052 -0.4596  0.7464 -0.3853
   14SAPS  H17X 1857   2.715   5.848   8.102  0.0355 -0.1664 -1.1566
   14SAPS  H17Y 1858   2.566   5.742   8.078 -0.2708  0.9969  0.9051
   14SAPS  C318 1859   2.527   5.935   8.127  0.6203  0.0286 -0.3379
   14SAPS  H18X 1860   2.517   5.907   8.234 -2.6663  0.6260 -0.4415
   14SAPS  H18Y 1861   2.425   5.942   8.085  1.2259  2.3677 -1.4542
   14SAPS  H18Z 1862   2.553   6.041   8.110 -2.1900  0.5833 -1.4387
   15SAPS     N 1863   3.373   5.572   5.660 -0.5730 -0.0835 -0.0237
   15SAPS   HN1 1864   3.284   5.625   5.664  1.2144  3.0781 -0.7072
   15SAPS   HN2 1865   3.405   5.600   5.565  1.2150  2.1248  1.1855
   15SAPS   HN3 1866   3.348   5.472   5.673  1.5663 -0.4227  1.8409
   15SAPS   C12 1867   3.464   5.640   5.762  0.3986  0.5143  0.6874
   15SAPS  H12A 1868   3.562   5.595   5.765 -0.5247 -1.7947 -1.9514
   15SAPS   C13 1869   3.480   5.795   5.750 -0.2731 -0.2798  0.0349
   15SAPS  O13A 1870   3.430   5.861   5.653  0.7192 -0.1181 -0.5670
   15SAPS  O13B 1871   3.561   5.853   5.825 -0.2779 -0.9260 -0.1530
   15SAPS   C11 1872   3.407   5.618   5.908  0.0099 -0.0197 -0.3795
   15SAPS  H11A 1873   3.305   5.660   5.923  0.0777  0.3585 -0.9724
   15SAPS  H11B 1874   3.466   5.668   5.987 -0.0069  1.6138 -1.3656
   15SAPS     P 1875   3.536   5.421   6.008 -0.2950  0.0797 -0.4995
   15SAPS   O13 1876   3.555   5.284   5.960  0.7260  0.4070 -0.2422
   15SAPS   O14 1877   3.644   5.516   5.962  0.4335 -0.1813  0.4978
   15SAPS   O12 1878   3.398   5.475   5.943  0.1692  0.3051  0.0143
   15SAPS   O11 1879   3.517   5.420   6.165 -0.4757 -0.1583 -0.0081
   15SAPS    C1 1880   3.388   5.407   6.221 -0.4246 -0.1428 -0.0865
   15SAPS    HA 1881   3.308   5.445   6.154 -0.4658  0.4237  0.2808
   15SAPS    HB 1882   3.355   5.304   6.248  0.5470 -0.4183  0.0399
   15SAPS    C2 1883   3.375   5.500   6.347 -0.0078 -0.7635 -0.4916
   15SAPS    HS 1884   3.274   5.523   6.387  0.3645  0.0181  0.0183
   15SAPS   O21 1885   3.459   5.617   6.325  0.1403 -0.3191 -0.3155
   15SAPS   C21 1886   3.381   5.706   6.271 -0.1255 -0.9746 -0.2424
   15SAPS   O22 1887   3.273   5.693   6.226  0.4235 -0.4540 -0.0216
   15SAPS   C22 1888   3.460   5.843   6.273 -0.3162 -0.9221  0.3800
   15SAPS   H2R 1889   3.557   5.848   6.219 -0.9671  1.1894 -0.6495
   15SAPS   H2S 1890   3.390   5.912   6.222  0.9747  1.4898  1.7943
   15SAPS    C3 1891   3.435   5.426   6.466 -0.0543  0.1234 -0.3082
   15SAPS    HX 1892   3.533   5.389   6.430  0.4990  0.6556  0.6263
   15SAPS    HY 1893   3.376   5.334   6.481  0.4837  0.0638  1.6124
   15SAPS   O31 1894   3.433   5.511   6.586  0.3958 -0.4592  0.2232
   15SAPS   C31 1895   3.560   5.531   6.640  0.6054  0.0117  0.0094
   15SAPS   O32 1896   3.664   5.507   6.579 -0.2800  0.0990  0.1145
   15SAPS   C32 1897   3.536   5.567   6.787  0.2948 -0.0069  0.5078
   15SAPS   H2X 1898   3.442   5.516   6.815 -0.3034  1.4312  1.1499
   15SAPS   H2Y 1899   3.515   5.675   6.799 -0.4603 -0.0368 -0.5226
   15SAPS   C23 1900   3.486   5.898   6.418 -0.2732  0.1137 -0.4467
   15SAPS   H3R 1901   3.554   5.826   6.468  1.0338  1.6887  0.0865
   15SAPS   H3S 1902   3.383   5.899   6.462  0.2047 -0.6645  0.7248
   15SAPS   C24 1903   3.551   6.037   6.426 -0.6846 -0.1173  0.4385
   15SAPS   H4R 1904   3.553   6.075   6.531  1.4124 -0.4769  0.5592
   15SAPS   H4S 1905   3.493   6.117   6.377  0.8401  0.0764 -1.1036
   15SAPS   C25 1906   3.687   6.040   6.358 -0.1534  0.2989 -0.0253
   15SAPS   H5R 1907   3.676   6.011   6.252  0.9722 -0.9266  0.1730
   15SAPS   C26 1908   3.810   6.047   6.413 -0.3187  0.7673 -0.6609
   15SAPS   H6R 1909   3.902   6.043   6.353  0.4018 -3.3997  0.5599
   15SAPS   C27 1910   3.828   6.064   6.560  0.2310  1.0827 -0.3669
   15SAPS   H7R 1911   3.749   6.123   6.611  2.9955  1.8221  3.3357
   15SAPS   H7S 1912   3.915   6.134   6.568  2.3633 -1.6147  1.3408
   15SAPS   C28 1913   3.862   5.925   6.611 -0.0527 -1.0078 -0.6929
   15SAPS   H8R 1914   3.892   5.852   6.534 -1.1263 -2.7286  0.4743
   15SAPS   C29 1915   3.869   5.890   6.738 -0.9563 -0.2244 -0.7552
   15SAPS   H9R 1916   3.911   5.790   6.757  1.3264  0.4105 -2.2997
   15SAPS  C210 1917   3.847   5.988   6.850  0.4044 -0.0418  0.2311
   15SAPS  H10R 1918   3.751   6.041   6.835 -0.4346 -2.1750 -2.4801
   15SAPS  H10S 1919   3.928   6.063   6.837 -0.6226  0.9240 -0.7131
   15SAPS  C211 1920   3.848   5.912   6.982 -0.4752  0.7443  0.2003
   15SAPS  H11R 1921   3.812   5.808   6.973  1.2439  0.1264  0.3984
   15SAPS  C212 1922   3.880   5.959   7.102 -0.1748  0.1125  0.0971
   15SAPS  H12R 1923   3.877   5.891   7.188  0.2762  0.1693  0.1592
   15SAPS  C213 1924   3.912   6.106   7.137 -0.6354 -0.3447 -0.1764
   15SAPS  H13R 1925   3.948   6.166   7.051 -0.0233  1.1713  1.1138
   15SAPS  H13S 1926   3.999   6.115   7.205 -1.1069  0.8091  0.2905
   15SAPS  C214 1927   3.797   6.177   7.201 -0.3216  0.2352  0.8875
   15SAPS  H14R 1928   3.733   6.221   7.122  1.7712 -1.8899 -2.0954
   15SAPS  C215 1929   3.747   6.176   7.333 -0.2609 -0.4350  0.5451
   15SAPS  H15R 1930   3.656   6.236   7.348 -1.2637 -1.7523 -0.1715
   15SAPS  C216 1931   3.816   6.122   7.458 -1.0848  0.4143 -0.3630
   15SAPS  H16R 1932   3.877   6.191   7.520  0.9529 -0.5497 -1.2433
   15SAPS  H16S 1933   3.887   6.045   7.421 -0.6880 -0.0021  1.1965
   15SAPS  C217 1934   3.714   6.048   7.553 -0.3705 -0.2644 -0.2869
   15SAPS  H17R 1935   3.666   5.963   7.500  2.7339 -1.9519 -0.4687
   15SAPS  H17S 1936   3.648   6.131   7.587 -0.2728 -1.3374  2.7051
   15SAPS  C218 1937   3.777   5.980   7.672  0.3634 -0.0698  0.2163
   15SAPS  H18R 1938   3.863   6.043   7.703  0.5953 -1.1566  1.8572
   15SAPS  H18S 1939   3.816   5.885   7.629 -1.4258 -0.1228 -1.3841
   15SAPS  C219 1940   3.689   5.943   7.792  0.1054  0.4334  0.2272
   15SAPS  H19R 1941   3.750   5.863   7.838 -3.3942 -1.6567  1.4595
   15SAPS  H19S 1942   3.607   5.890   7.737  1.5407 -1.6732  0.0654
   15SAPS  C220 1943   3.641   6.056   7.883  0.7361 -0.1289  0.6761
   15SAPS  H20R 1944   3.562   6.111   7.827 -0.5013 -2.5014  0.0424
   15SAPS  H20S 1945   3.720   6.132   7.901 -0.1134  0.4254  2.1519
   15SAPS  H20T 1946   3.612   6.020   7.984 -0.1373 -0.0819  0.4442
   15SAPS   C33 1947   3.659   5.531   6.877  0.1380  0.6262 -0.8912
   15SAPS   H3X 1948   3.746   5.579   6.828 -0.4414  2.3948 -0.2451
   15SAPS   H3Y 1949   3.670   5.421   6.882 -2.9511  0.3351  1.1036
   15SAPS   C34 1950   3.631   5.592   7.019  0.2105 -0.1792 -0.1468
   15SAPS   H4X 1951   3.533   5.545   7.042  0.9611 -1.1689  1.1060
   15SAPS   H4Y 1952   3.617   5.702   7.018  1.0652 -0.0631  0.3788
   15SAPS   C35 1953   3.733   5.559   7.123 -0.2023 -0.2283 -0.2035
   15SAPS   H5X 1954   3.833   5.591   7.086  0.3525 -2.3886 -0.6590
   15SAPS   H5Y 1955   3.736   5.449   7.137  0.1364 -0.1636  0.2970
   15SAPS   C36 1956   3.731   5.612   7.258  0.2066  0.2968  0.1056
   15SAPS   H6X 1957   3.676   5.707   7.273 -0.9396 -0.0126 -2.0143
   15SAPS   H6Y 1958   3.834   5.640   7.288  1.2328 -0.9175 -2.1949
   15SAPS   C37 1959   3.677   5.509   7.358  0.2670  0.2572  0.3543
   15SAPS   H7X 1960   3.745   5.422   7.344  3.6249  2.9723 -0.9615
   15SAPS   H7Y 1961   3.576   5.494   7.313 -0.0094  0.8635  0.7684
   15SAPS   C38 1962   3.673   5.563   7.503 -0.5937 -0.6683  0.2254
   15SAPS   H8X 1963   3.576   5.539   7.552 -1.6342  1.8202 -0.5382
   15SAPS   H8Y 1964   3.687   5.671   7.522 -0.3401 -0.7722  0.6415
   15SAPS   C39 1965   3.789   5.487   7.585 -0.6251 -0.5411  0.0585
   15SAPS   H9X 1966   3.879   5.514   7.525 -0.1741  1.4158  1.5696
   15SAPS   H9Y 1967   3.783   5.376   7.576  1.3737 -0.6730  0.0360
   15SAPS  C310 1968   3.808   5.532   7.732 -0.6296 -0.3862  0.6647
   15SAPS  H10X 1969   3.777   5.639   7.727 -1.4599 -0.6795 -0.8808
   15SAPS  H10Y 1970   3.909   5.510   7.771 -0.4930  0.6876  0.9286
   15SAPS  C311 1971   3.701   5.458   7.813 -0.4337  0.0575  0.4557
   15SAPS  H11X 1972   3.721   5.349   7.805  1.1169  0.1523  2.6054
   15SAPS  H11Y 1973   3.598   5.475   7.775  0.3060  1.0469 -1.1634
   15SAPS  C312 1974   3.693   5.491   7.964 -0.5882  1.0855  0.0078
   15SAPS  H12X 1975   3.693   5.601   7.978 -0.7691  1.1729 -0.6398
   15SAPS  H12Y 1976   3.781   5.448   8.017 -0.7140  0.5747 -0.1949
   15SAPS  C313 1977   3.573   5.419   8.028  0.0497 -0.2556  0.3803
   15SAPS  H13X 1978   3.559   5.322   7.977  1.9780 -0.8645  0.9530
   15SAPS  H13Y 1979   3.482   5.468   7.987  0.4899 -0.2525 -0.5999
   15SAPS  C314 1980   3.589   5.423   8.185 -0.1774  0.2037  0.3693
   15SAPS  H14X 1981   3.599   5.530   8.214  2.2476  0.5036 -1.4894
   15SAPS  H14Y 1982   3.684   5.373   8.212 -0.3580 -0.5568 -0.4015
   15SAPS  C315 1983   3.477   5.352   8.266 -0.6253 -0.4739 -0.8733
   15SAPS  H15X 1984   3.458   5.245   8.243 -1.0508 -0.7149  0.5757
   15SAPS  H15Y 1985   3.381   5.401   8.236  0.4080  1.1558 -1.6301
   15SAPS  C316 1986   3.515   5.349   8.422 -0.4451  0.6008 -0.0106
   15SAPS  H16X 1987   3.519   5.455   8.452 -1.9694  0.3793  1.0196
   15SAPS  H16Y 1988   3.620   5.311   8.423  0.1295  2.1969  0.8908
   15SAPS  C317 1989   3.412   5.267   8.507 -0.4844  0.3496 -0.2213
   15SAPS  H17X 1990   3.464   5.259   8.605 -0.9635 -1.4009 -0.0805
   15SAPS  H17Y 1991   3.402   5.163   8.468 -2.5531  0.4267  0.0187
   15SAPS  C318 1992   3.277   5.337   8.510 -0.0908  0.2420 -0.5856
   15SAPS  H18X 1993   3.200   5.272   8.557  0.1878  0.5152  0.2673
   15SAPS  H18Y 1994   3.238   5.353   8.407 -1.4949  1.3894  0.1022
   15SAPS  H18Z 1995   3.275   5.430   8.572 -2.4787  0.1343 -0.4615
   16SAPS     N 1996   5.377   0.024   6.412  0.1304  1.2657  0.4465
   16SAPS   HN1 1997   5.291  -0.035   6.418  1.3102 -0.6802 -1.0273
   16SAPS   HN2 1998   5.454  -0.039   6.443 -0.4744 -0.7061 -1.8120
   16SAPS   HN3 1999   5.361   0.100   6.480  0.6362  0.7070  1.1943
   16SAPS   C12 2000   5.384   0.085   6.274  0.2531 -0.4603  0.1668
   16SAPS  H12A 2001   5.489   0.107   6.265 -0.1358  1.4027 -0.0568
   16SAPS   C13 2002   5.336  -0.009   6.158  0.2945  1.1894 -0.4029
   16SAPS  O13A 2003   5.327  -0.131   6.182 -0.1338  0.7030 -0.2166
   16SAPS  O13B 2004   5.335   0.033   6.039 -0.2595 -0.5245  0.5565
   16SAPS   C11 2005   5.313   0.220   6.273  0.9453 -0.2020  0.0038
   16SAPS  H11A 2006   5.320   0.257   6.169  2.2751 -1.0029 -0.2002
   16SAPS  H11B 2007   5.370   0.294   6.333 -1.3120  1.4268  0.2090
   16SAPS     P 2008   5.104   0.324   6.408  0.2855 -0.2722 -0.3772
   16SAPS   O13 2009   4.972   0.343   6.343 -0.0769  0.1041  0.1986
   16SAPS   O14 2010   5.108   0.268   6.544  0.6594 -0.1038 -0.2160
   16SAPS   O12 2011   5.174   0.209   6.320 -0.1520  0.4841 -0.3337
   16SAPS   O11 2012   5.190   0.455   6.403 -0.2427  0.2283  0.2349
   16SAPS    C1 2013   5.284   0.480   6.512  0.4625  0.2596  0.4847
   16SAPS    HA 2014   5.323   0.383   6.550  1.4778 -0.9871 -3.4767
   16SAPS    HB 2015   5.374   0.526   6.465  0.2489 -0.5280 -0.7102
   16SAPS    C2 2016   5.222   0.568   6.627  0.5390  0.1156  0.5934
   16SAPS    HS 2017   5.308   0.611   6.683  0.2058 -0.2904  1.4315
   16SAPS   O21 2018   5.124   0.500   6.703 -0.6225 -0.3190  0.4201
   16SAPS   C21 2019   5.173   0.425   6.801 -0.1043  1.0051 -0.0552
   16SAPS   O22 2020   5.294   0.418   6.825 -0.3079  0.1905 -0.0437
   16SAPS   C22 2021   5.065   0.354   6.874  0.5748  0.1645 -0.1639
   16SAPS   H2R 2022   5.023   0.270   6.813  1.0568 -2.9085  3.5415
   16SAPS   H2S 2023   5.113   0.299   6.958  0.2728 -2.1334 -1.4239
   16SAPS    C3 2024   5.155   0.692   6.562  0.0745 -0.1148 -0.0009
   16SAPS    HX 2025   5.087   0.648   6.486  3.3889 -0.9799 -2.6252
   16SAPS    HY 2026   5.220   0.748   6.491 -2.2019 -0.3274 -2.3377
   16SAPS   O31 2027   5.081   0.775   6.652  0.5804  0.3199  0.3059
   16SAPS   C31 2028   5.153   0.870   6.700 -1.1510 -0.2678 -0.2315
   16SAPS   O32 2029   5.273   0.880   6.681  0.2327  0.2333  0.2720
   16SAPS   C32 2030   5.068   0.947   6.799  0.1326  0.1602  0.4393
   16SAPS   H2X 2031   5.004   0.874   6.854  2.1500 -2.1076 -0.1308
   16SAPS   H2Y 2032   4.987   1.004   6.749 -0.2672 -0.4508  0.3823
   16SAPS   C23 2033   4.959   0.450   6.925 -0.2857  0.8486 -0.4465
   16SAPS   H3R 2034   4.872   0.392   6.962 -1.2843  3.0813  0.8157
   16SAPS   H3S 2035   4.916   0.521   6.852 -0.9051  0.3325 -0.5909
   16SAPS   C24 2036   4.998   0.519   7.059  0.6227 -0.1576  0.6826
   16SAPS   H4R 2037   5.070   0.597   7.026  0.6588 -0.6771 -0.4997
   16SAPS   H4S 2038   5.057   0.450   7.123 -0.9705  0.1592  2.5641
   16SAPS   C25 2039   4.889   0.579   7.141 -0.2040 -0.2770 -0.8790
   16SAPS   H5R 2040   4.872   0.687   7.133  0.5702  0.1221  2.0632
   16SAPS   C26 2041   4.818   0.511   7.234 -0.2475  0.4522  0.6040
   16SAPS   H6R 2042   4.734   0.554   7.291 -1.4572  0.5953 -1.2438
   16SAPS   C27 2043   4.829   0.361   7.255 -0.0342 -0.4931 -0.1337
   16SAPS   H7R 2044   4.888   0.359   7.348 -1.3077 -3.1226  0.6545
   16SAPS   H7S 2045   4.895   0.319   7.176 -0.6696  0.3782 -1.1612
   16SAPS   C28 2046   4.700   0.283   7.251 -0.4510 -0.5796 -0.3002
   16SAPS   H8R 2047   4.679   0.258   7.146  0.1199 -0.9523 -0.3316
   16SAPS   C29 2048   4.620   0.245   7.353 -0.2507 -0.3760 -0.3917
   16SAPS   H9R 2049   4.534   0.182   7.326  1.4656 -1.5953 -3.2387
   16SAPS  C210 2050   4.643   0.275   7.501 -0.2227  0.0965  0.4914
   16SAPS  H10R 2051   4.685   0.378   7.509  1.3613 -0.2699 -2.5425
   16SAPS  H10S 2052   4.716   0.204   7.546  0.8852 -0.9454 -2.8276
   16SAPS  C211 2053   4.524   0.274   7.586  0.1198 -0.1177 -0.4908
   16SAPS  H11R 2054   4.442   0.339   7.553 -0.0673 -0.1063 -0.0138
   16SAPS  C212 2055   4.512   0.207   7.708  0.0514 -0.3656  0.3386
   16SAPS  H12R 2056   4.418   0.218   7.764 -0.0649  1.4621 -0.1890
   16SAPS  C213 2057   4.611   0.114   7.768 -0.0993  0.4703 -0.5307
   16SAPS  H13R 2058   4.667   0.176   7.841 -0.0493 -0.8538  0.5745
   16SAPS  H13S 2059   4.681   0.071   7.693  1.3073  1.9395 -0.0962
   16SAPS  C214 2060   4.538   0.002   7.838  0.2226  0.3908  0.2883
   16SAPS  H14R 2061   4.503  -0.074   7.766 -2.2712  2.7641 -1.0565
   16SAPS  C215 2062   4.528  -0.020   7.970 -0.2510 -0.6015 -0.3304
   16SAPS  H15R 2063   4.476  -0.109   8.009 -0.3112 -1.0200 -1.3501
   16SAPS  C216 2064   4.590   0.062   8.079 -0.2495 -0.3636 -0.3546
   16SAPS  H16R 2065   4.678   0.115   8.036 -0.5230 -0.1641 -0.6689
   16SAPS  H16S 2066   4.619  -0.007   8.161 -0.2444 -0.3626 -0.3550
   16SAPS  C217 2067   4.485   0.157   8.138 -0.3116 -0.0997  0.0222
   16SAPS  H17R 2068   4.409   0.101   8.195 -1.2375  0.5363 -0.5735
   16SAPS  H17S 2069   4.448   0.226   8.059 -0.6063  2.4753  2.3045
   16SAPS  C218 2070   4.540   0.255   8.242 -0.5009 -0.2084  0.7836
   16SAPS  H18R 2071   4.449   0.310   8.276 -1.1412 -1.2037  0.7085
   16SAPS  H18S 2072   4.614   0.333   8.216 -0.5673  0.1417  1.6013
   16SAPS  C219 2073   4.609   0.196   8.372 -0.0359 -0.1782 -0.2526
   16SAPS  H19R 2074   4.692   0.136   8.329  0.1379  0.0983 -0.3039
   16SAPS  H19S 2075   4.528   0.144   8.428 -1.8923  0.4260 -2.2926
   16SAPS  C220 2076   4.658   0.308   8.463 -0.5643  0.2525 -0.2369
   16SAPS  H20R 2077   4.724   0.383   8.414  0.6464  0.8134  2.1999
   16SAPS  H20S 2078   4.702   0.259   8.552  3.4000 -0.6738 -2.5841
   16SAPS  H20T 2079   4.568   0.356   8.506 -0.9985 -1.1541  0.4603
   16SAPS   C33 2080   5.144   1.023   6.909  0.1324 -0.3834  0.1639
   16SAPS   H3X 2081   5.069   1.082   6.966  0.4636 -0.1315  0.3379
   16SAPS   H3Y 2082   5.203   1.106   6.865 -0.3582 -0.3691 -0.4759
   16SAPS   C34 2083   5.214   0.938   7.013  0.3848  0.0023  0.1645
   16SAPS   H4X 2084   5.316   0.903   6.988  1.0353  0.5983  1.9190
   16SAPS   H4Y 2085   5.150   0.849   7.029  0.9851 -0.6093 -0.7987
   16SAPS   C35 2086   5.243   1.006   7.152  0.2576  0.5215 -0.0217
   16SAPS   H5X 2087   5.313   1.092   7.139 -0.7153  0.9263 -2.9399
   16SAPS   H5Y 2088   5.296   0.929   7.211 -0.8251  0.9862  1.5890
   16SAPS   C36 2089   5.122   1.053   7.230 -0.3567  0.3790  0.5284
   16SAPS   H6X 2090   5.056   0.967   7.253 -0.3015  0.0950 -0.3511
   16SAPS   H6Y 2091   5.069   1.125   7.164 -0.5222  0.2100  0.4792
   16SAPS   C37 2092   5.156   1.127   7.360  0.2014 -0.5165 -0.4837
   16SAPS   H7X 2093   5.067   1.183   7.394  2.2129  2.9318 -0.6389
   16SAPS   H7Y 2094   5.230   1.210   7.356 -0.4720  0.0851 -0.6351
   16SAPS   C38 2095   5.201   1.026   7.466  0.3051 -0.9711  0.1677
   16SAPS   H8X 2096   5.299   0.985   7.436 -0.0915 -2.9430  1.4804
   16SAPS   H8Y 2097   5.131   0.940   7.461 -0.2407 -0.5434  0.3764
   16SAPS   C39 2098   5.204   1.081   7.611 -0.0560  0.2430 -0.5904
   16SAPS   H9X 2099   5.114   1.146   7.612  0.7804  1.4433 -1.1013
   16SAPS   H9Y 2100   5.288   1.149   7.636  0.4529 -0.7321  0.4177
   16SAPS  C310 2101   5.202   0.975   7.712  0.1834  0.3855  0.7314
   16SAPS  H10X 2102   5.296   0.917   7.701  0.6534  1.1980  0.4419
   16SAPS  H10Y 2103   5.119   0.904   7.689  1.0417 -0.7139  0.9643
   16SAPS  C311 2104   5.186   1.034   7.855 -0.0952 -0.4262  0.1588
   16SAPS  H11X 2105   5.098   1.101   7.867  0.4334 -0.0116  1.8246
   16SAPS  H11Y 2106   5.258   1.108   7.894  0.7047 -1.5850  0.8897
   16SAPS  C312 2107   5.162   0.931   7.961 -0.0302  0.1007 -0.6750
   16SAPS  H12X 2108   5.251   0.866   7.977 -0.0798  0.3756  0.7710
   16SAPS  H12Y 2109   5.079   0.869   7.921 -0.2578  1.1167 -1.7954
   16SAPS  C313 2110   5.126   0.986   8.093 -0.1660  0.2742  0.3721
   16SAPS  H13X 2111   5.063   1.076   8.077  0.4634  0.8228  0.9056
   16SAPS  H13Y 2112   5.213   1.028   8.149 -1.3942  0.8465  1.8793
   16SAPS  C314 2113   5.041   0.892   8.179  0.2319 -0.0097  0.1316
   16SAPS  H14X 2114   4.955   0.847   8.124 -0.2353  0.6014  0.3554
   16SAPS  H14Y 2115   4.993   0.948   8.262 -0.5451 -2.9922  1.7682
   16SAPS  C315 2116   5.115   0.772   8.243 -0.3175 -0.7114 -0.0840
   16SAPS  H15X 2117   5.215   0.812   8.272 -0.9311 -0.3593  1.6143
   16SAPS  H15Y 2118   5.124   0.701   8.159 -0.9007 -1.8111  0.7698
   16SAPS  C316 2119   5.039   0.698   8.348  0.4432 -0.0109  0.0628
   16SAPS  H16X 2120   4.950   0.663   8.293  0.0272 -0.1759  0.8341
   16SAPS  H16Y 2121   5.000   0.763   8.429 -2.9299  1.0263 -2.3160
   16SAPS  C317 2122   5.119   0.586   8.405 -0.1479  0.0750 -0.8033
   16SAPS  H17X 2123   5.221   0.625   8.429 -1.3031  2.0012  1.0866
   16SAPS  H17Y 2124   5.144   0.515   8.323 -0.3444  1.0596 -1.7318
   16SAPS  C318 2125   5.055   0.520   8.532 -0.0257 -0.4544 -0.0705
   16SAPS  H18X 2126   5.117   0.434   8.562  0.3680 -0.4810 -0.9345
   16SAPS  H18Y 2127   4.956   0.476   8.507 -1.4944  2.0706  1.0249
   16SAPS  H18Z 2128   5.041   0.593   8.615  1.1295  1.2899 -1.3564
   17SAPC     N 2129   2.968   3.450  10.540  0.2965  0.1357 -0.3628
   17SAPC   C12 2130   2.985   3.537  10.411  0.1880  0.3289  0.4779
   17SAPC  H12A 2131   2.946   3.633  10.441  0.9694  1.3607 -1.7024
   17SAPC  H12B 2132   2.923   3.497  10.332 -0.3889  3.6503 -0.8073
   17SAPC   C13 2133   2.837   3.457  10.608  0.3369 -0.4627 -0.8713
   17SAPC  H13A 2134   2.757   3.442  10.537 -0.5998 -0.3341  0.1405
   17SAPC  H13B 2135   2.820   3.387  10.688  1.2461 -0.8466 -1.0124
   17SAPC  H13C 2136   2.823   3.553  10.656  0.7020 -0.9438  0.2046
   17SAPC   C14 2137   2.999   3.313  10.511 -0.2515  0.2452  0.4729
   17SAPC  H14A 2138   3.094   3.313  10.460  0.2887  0.4972  1.4669
   17SAPC  H14B 2139   3.006   3.245  10.595 -2.6491 -0.9366 -0.2308
   17SAPC  H14C 2140   2.927   3.274  10.440 -1.1438  1.1787  0.8628
   17SAPC   C15 2141   3.067   3.500  10.643 -0.2946  0.0465 -0.3270
   17SAPC  H15A 2142   3.045   3.601  10.674 -1.9858 -0.6252  0.7584
   17SAPC  H15B 2143   3.050   3.445  10.735 -2.2322 -0.9063 -1.2352
   17SAPC  H15C 2144   3.165   3.481  10.603 -0.5915 -0.6816 -0.7218
   17SAPC   C11 2145   3.116   3.563  10.344  0.2859  0.1128  0.0821
   17SAPC  H11A 2146   3.177   3.636  10.401 -1.7569  0.6713  1.6403
   17SAPC  H11B 2147   3.117   3.630  10.256 -0.7291 -0.6445 -0.5160
   17SAPC     P 2148   3.187   3.365  10.208 -0.3318  0.1599 -0.0686
   17SAPC   O13 2149   3.212   3.460  10.094 -1.2037  0.9343  0.3588
   17SAPC   O14 2150   3.272   3.248  10.212  0.2606 -0.1820  0.2298
   17SAPC   O12 2151   3.210   3.453  10.341  0.0047  0.8818 -0.0309
   17SAPC   O11 2152   3.035   3.328  10.223  0.0513  0.4745 -0.0903
   17SAPC    C1 2153   2.940   3.343  10.109  0.4447  0.4661  0.3463
   17SAPC    HA 2154   2.917   3.451  10.100 -1.7914  0.1404  1.6857
   17SAPC    HB 2155   2.973   3.306  10.010 -1.9839 -2.0737  0.3953
   17SAPC    C2 2156   2.800   3.282  10.136 -0.0609 -0.0327 -0.2371
   17SAPC    HS 2157   2.778   3.296  10.244 -0.6683 -0.9968 -0.2283
   17SAPC   O21 2158   2.810   3.142  10.104 -0.1841 -0.1223  0.4461
   17SAPC   C21 2159   2.826   3.062  10.203  0.2350  0.4886 -0.7795
   17SAPC   O22 2160   2.829   3.090  10.324  0.1588  0.7820  0.2956
   17SAPC   C22 2161   2.842   2.923  10.146 -0.4873  0.6436  0.2700
   17SAPC   H2R 2162   2.907   2.924  10.056  1.0657  1.9115  1.3755
   17SAPC   H2S 2163   2.889   2.858  10.222 -0.3962  0.8313  0.3741
   17SAPC    C3 2164   2.691   3.340  10.052  0.3832  0.0799  0.1844
   17SAPC    HX 2165   2.678   3.446  10.085 -2.5407 -0.3661  0.6362
   17SAPC    HY 2166   2.597   3.285  10.075  1.0037 -1.2927 -0.5144
   17SAPC   O31 2167   2.724   3.336   9.916 -0.6396  0.2608  0.2520
   17SAPC   C31 2168   2.672   3.253   9.830  0.4521  0.7531  0.7238
   17SAPC   O32 2169   2.579   3.175   9.859  0.2076 -0.2366 -0.2571
   17SAPC   C32 2170   2.751   3.262   9.700  0.0287  0.5567  0.4163
   17SAPC   H2X 2171   2.861   3.261   9.718 -0.1109 -2.2411  1.3583
   17SAPC   H2Y 2172   2.710   3.356   9.659  0.2301  0.1169 -0.8496
   17SAPC   C23 2173   2.707   2.856  10.096 -0.1945  0.0642  0.7346
   17SAPC   H3R 2174   2.651   2.936  10.044 -1.5090 -2.9475 -2.6899
   17SAPC   H3S 2175   2.663   2.825  10.193 -0.3738 -3.3264 -0.3652
   17SAPC   C24 2176   2.721   2.739   9.998  0.3693 -0.6483  0.8270
   17SAPC   H4R 2177   2.779   2.661  10.052  0.7120 -0.9763 -0.0129
   17SAPC   H4S 2178   2.783   2.774   9.913 -0.2913 -1.7225 -0.1004
   17SAPC   C25 2179   2.590   2.678   9.953 -0.4415 -0.1973 -0.4073
   17SAPC   H5R 2180   2.546   2.607  10.025  0.7201 -1.1552 -0.6207
   17SAPC   C26 2181   2.531   2.711   9.840  1.0875 -0.6885 -0.2686
   17SAPC   H6R 2182   2.454   2.642   9.802  0.6615  0.4740 -1.5620
   17SAPC   C27 2183   2.573   2.815   9.740 -0.2902  0.1902 -0.7143
   17SAPC   H7R 2184   2.649   2.884   9.783  0.1195 -0.0828 -0.9970
   17SAPC   H7S 2185   2.488   2.877   9.706  0.5100  0.5292 -2.1500
   17SAPC   C28 2186   2.629   2.744   9.620  0.6723  0.0069  0.3239
   17SAPC   H8R 2187   2.708   2.669   9.633  0.0655 -0.7555 -0.3443
   17SAPC   C29 2188   2.569   2.742   9.500 -0.1990 -0.1366 -0.1564
   17SAPC   H9R 2189   2.611   2.689   9.413  0.3068 -0.9486  0.5823
   17SAPC  C210 2190   2.439   2.813   9.456 -0.1144  0.2472  0.4952
   17SAPC  H10R 2191   2.470   2.857   9.358 -0.1857 -0.2980  0.2257
   17SAPC  H10S 2192   2.423   2.905   9.516 -1.7942 -0.8562  1.7611
   17SAPC  C211 2193   2.308   2.735   9.468 -0.6398 -0.2693  0.4132
   17SAPC  H11R 2194   2.286   2.687   9.564 -0.2562  2.3164  1.8367
   17SAPC  C212 2195   2.225   2.721   9.367  0.4289  0.9412 -0.2254
   17SAPC  H12R 2196   2.132   2.664   9.376  0.4156  0.8222 -1.0141
   17SAPC  C213 2197   2.226   2.789   9.229  0.2803  0.0747  0.0467
   17SAPC  H13R 2198   2.293   2.736   9.158  1.7356  2.9182 -0.7686
   17SAPC  H13S 2199   2.273   2.888   9.250 -0.6169  0.2859  1.0608
   17SAPC  C214 2200   2.091   2.818   9.182  0.0489 -0.5421  0.3297
   17SAPC  H14R 2201   2.006   2.851   9.242 -0.8112  2.3711 -2.3652
   17SAPC  C215 2202   2.068   2.825   9.049 -0.7175 -0.3692  0.6569
   17SAPC  H15R 2203   1.965   2.846   9.017 -0.0090  0.9574 -0.8115
   17SAPC  C216 2204   2.149   2.796   8.922  0.1712 -0.0841 -0.8028
   17SAPC  H16R 2205   2.254   2.826   8.944 -0.5155  1.7564  0.0794
   17SAPC  H16S 2206   2.126   2.859   8.833 -2.2405  0.9155  0.4709
   17SAPC  C217 2207   2.113   2.652   8.873  0.0740 -0.5180  0.7251
   17SAPC  H17R 2208   2.007   2.645   8.842  0.1357  0.9499  0.1486
   17SAPC  H17S 2209   2.113   2.584   8.961 -2.3078 -2.6128 -0.8287
   17SAPC  C218 2210   2.216   2.598   8.771 -0.2014 -0.8037 -0.0908
   17SAPC  H18R 2211   2.297   2.547   8.827  0.0200  1.0764  1.3426
   17SAPC  H18S 2212   2.262   2.693   8.737  0.1558  0.0413  2.7041
   17SAPC  C219 2213   2.165   2.507   8.657 -0.0783  0.0137  0.9107
   17SAPC  H19R 2214   2.083   2.564   8.608  1.2245 -0.1732 -1.5346
   17SAPC  H19S 2215   2.130   2.407   8.692 -3.1715  0.5873 -0.3079
   17SAPC  C220 2216   2.276   2.475   8.551 -0.4531  0.3389 -0.7814
   17SAPC  H20R 2217   2.245   2.395   8.481  4.0492 -1.0461 -1.3206
   17SAPC  H20S 2218   2.351   2.420   8.611 -1.2833  0.2879  0.2434
   17SAPC  H20T 2219   2.325   2.560   8.500 -1.7990  1.2290 -0.6361
   17SAPC   C33 2220   2.711   3.143   9.597 -0.3390  0.0158  0.1793
   17SAPC   H3X 2221   2.603   3.144   9.567 -0.1440 -1.7971 -0.6361
   17SAPC   H3Y 2222   2.734   3.046   9.646  0.6981  0.0509 -0.2346
   17SAPC   C34 2223   2.773   3.166   9.460  0.1307 -0.0795  0.5370
   17SAPC   H4X 2224   2.883   3.156   9.469  0.0445 -2.7363 -1.0219
   17SAPC   H4Y 2225   2.754   3.272   9.432  0.8678 -0.8085 -2.7995
   17SAPC   C35 2226   2.717   3.075   9.352 -0.0962  0.1060 -0.3331
   17SAPC   H5X 2227   2.608   3.059   9.367  0.5325 -2.8326  1.5924
   17SAPC   H5Y 2228   2.773   2.979   9.362 -1.9008 -1.0814 -1.4257
   17SAPC   C36 2229   2.751   3.126   9.213  0.4497 -0.5060  0.0975
   17SAPC   H6X 2230   2.845   3.186   9.216  0.1628 -0.0232 -0.4860
   17SAPC   H6Y 2231   2.664   3.182   9.173  1.7213 -0.9306 -3.4380
   17SAPC   C37 2232   2.779   3.018   9.104 -0.2206 -0.1791  0.0246
   17SAPC   H7X 2233   2.872   2.960   9.126  0.1751  0.5355  0.2608
   17SAPC   H7Y 2234   2.800   3.071   9.009  1.2381 -1.0781 -0.1743
   17SAPC   C38 2235   2.660   2.924   9.065  0.3188  0.6017 -0.0426
   17SAPC   H8X 2236   2.641   2.857   9.151  0.5080  0.1433 -0.3504
   17SAPC   H8Y 2237   2.686   2.851   8.986  2.5841  1.6823 -0.3537
   17SAPC   C39 2238   2.528   2.991   9.018 -0.5400  0.2715 -0.8073
   17SAPC   H9X 2239   2.507   3.072   9.090  0.4560 -1.4681  1.4863
   17SAPC   H9Y 2240   2.449   2.913   9.017  0.5112 -0.8227 -0.6512
   17SAPC  C310 2241   2.544   3.034   8.872 -0.0173 -0.2342 -0.2823
   17SAPC  H10X 2242   2.595   2.960   8.806 -1.3303 -0.9170 -0.5407
   17SAPC  H10Y 2243   2.614   3.119   8.884 -0.8827  0.5910 -0.9706
   17SAPC  C311 2244   2.411   3.075   8.804 -0.3300  0.1197 -0.6534
   17SAPC  H11X 2245   2.346   3.148   8.857 -0.8763  2.1467 -3.9497
   17SAPC  H11Y 2246   2.353   2.981   8.793 -0.9880  0.5534 -0.8991
   17SAPC  C312 2247   2.445   3.144   8.671 -0.2047 -0.5594 -0.7020
   17SAPC  H12X 2248   2.363   3.119   8.600 -0.1176  0.6788 -1.2655
   17SAPC  H12Y 2249   2.529   3.095   8.618  1.4932 -2.5709  3.6116
   17SAPC  C313 2250   2.460   3.292   8.686 -0.6976 -0.3584 -0.4834
   17SAPC  H13X 2251   2.526   3.326   8.768 -0.4684  1.9046 -1.5541
   17SAPC  H13Y 2252   2.360   3.334   8.714 -0.1899  0.0102  0.7911
   17SAPC  C314 2253   2.508   3.377   8.560 -0.7262 -0.6074  0.0108
   17SAPC  H14X 2254   2.607   3.337   8.531 -1.9149 -2.7700 -1.2358
   17SAPC  H14Y 2255   2.511   3.486   8.583 -1.2682 -0.3838 -0.9420
   17SAPC  C315 2256   2.416   3.352   8.433  0.1236  0.5285  0.7693
   17SAPC  H15X 2257   2.311   3.389   8.439  1.0810  3.5698 -0.1123
   17SAPC  H15Y 2258   2.394   3.247   8.405 -0.1083  0.4369  1.2766
   17SAPC  C316 2259   2.462   3.429   8.309 -0.5919  0.5302 -0.1256
   17SAPC  H16X 2260   2.573   3.426   8.307 -0.5809 -0.4246  1.3392
   17SAPC  H16Y 2261   2.442   3.537   8.321  0.0939  0.5610  0.7580
   17SAPC  C317 2262   2.403   3.378   8.175  0.2023  0.0213  0.3923
   17SAPC  H17X 2263   2.294   3.364   8.189 -0.1529  3.5856  1.8240
   17SAPC  H17Y 2264   2.449   3.279   8.154 -2.2647 -0.8329 -1.1406
   17SAPC  C318 2265   2.432   3.473   8.051 -0.8763 -0.2174  0.5890
   17SAPC  H18X 2266   2.386   3.573   8.068 -3.4049 -1.4182  1.1147
   17SAPC  H18Y 2267   2.541   3.478   8.033 -1.1116 -0.6712 -1.1260
   17SAPC  H18Z 2268   2.385   3.437   7.957 -0.1036 -1.0224  0.5034
   18SAPC     N 2269   3.693   3.150  10.687  1.0384 -0.4378  0.1123
   18SAPC   C12 2270   3.674   3.083  10.546 -0.0249 -0.4745  0.6007
   18SAPC  H12A 2271   3.705   3.151  10.468 -2.2516  1.6960  1.5350
   18SAPC  H12B 2272   3.569   3.067  10.525 -0.0616  0.0610  0.3627
   18SAPC   C13 2273   3.626   3.287  10.683  0.5889  0.1809  0.0615
   18SAPC  H13A 2274   3.650   3.357  10.762  0.4047  2.0961 -1.5563
   18SAPC  H13B 2275   3.655   3.338  10.592 -1.6888  1.1530 -0.1624
   18SAPC  H13C 2276   3.519   3.273  10.675  0.5856  0.2396  0.0024
   18SAPC   C14 2277   3.628   3.065  10.793 -0.2246  0.0735  0.1087
   18SAPC  H14A 2278   3.654   2.963  10.771  1.4400  0.5353 -0.1807
   18SAPC  H14B 2279   3.673   3.082  10.890  0.5496 -0.6368 -0.1220
   18SAPC  H14C 2280   3.520   3.066  10.798 -0.2996 -1.9543 -0.7412
   18SAPC   C15 2281   3.833   3.172  10.718 -0.3907 -0.2019 -0.5168
   18SAPC  H15A 2282   3.882   3.226  10.639 -1.1296 -0.2849 -1.0325
   18SAPC  H15B 2283   3.850   3.248  10.793  0.3541 -1.9493  1.1275
   18SAPC  H15C 2284   3.871   3.080  10.759  0.8964  0.4307 -0.2613
   18SAPC   C11 2285   3.734   2.944  10.529  0.6144  0.6236 -0.0904
   18SAPC  H11A 2286   3.844   2.948  10.550 -0.0266  0.3305  3.7115
   18SAPC  H11B 2287   3.715   2.922  10.422  0.0494  0.7519 -0.0136
   18SAPC     P 2288   3.557   2.764  10.585 -0.0575 -0.1955  0.0635
   18SAPC   O13 2289   3.528   2.665  10.686 -0.9058  0.6385  0.3356
   18SAPC   O14 2290   3.450   2.860  10.551  0.8993 -0.0254 -0.3956
   18SAPC   O12 2291   3.686   2.847  10.619 -0.2031 -0.0779 -0.0923
   18SAPC   O11 2292   3.598   2.686  10.457 -0.3693 -0.0174 -0.3308
   18SAPC    C1 2293   3.711   2.601  10.465  0.3250  0.1638 -0.3858
   18SAPC    HA 2294   3.799   2.652  10.509  0.0210 -1.4541  2.1946
   18SAPC    HB 2295   3.680   2.516  10.529 -0.9156  0.9475  0.0790
   18SAPC    C2 2296   3.742   2.540  10.335 -0.1352 -0.5242 -0.5700
   18SAPC    HS 2297   3.830   2.472  10.343 -0.1623 -0.4252  0.6859
   18SAPC   O21 2298   3.764   2.643  10.239  0.2721  0.3081 -0.2808
   18SAPC   C21 2299   3.890   2.671  10.216  0.3656  0.0672  0.2572
   18SAPC   O22 2300   3.986   2.618  10.273  0.1364  0.5226  1.2196
   18SAPC   C22 2301   3.897   2.773  10.099 -0.4186  0.5596  1.0029
   18SAPC   H2R 2302   3.807   2.838  10.089 -0.8983 -0.0940  1.0161
   18SAPC   H2S 2303   3.979   2.837  10.138 -0.4152 -0.4402  2.6817
   18SAPC    C3 2304   3.620   2.463  10.269 -0.1098  0.7304  0.2414
   18SAPC    HX 2305   3.543   2.540  10.247  0.4056  1.6166  1.4984
   18SAPC    HY 2306   3.581   2.398  10.350 -1.1931 -0.0251 -0.8630
   18SAPC   O31 2307   3.654   2.398  10.154 -0.1697  0.1523  0.2432
   18SAPC   C31 2308   3.722   2.283  10.179  0.4262 -0.2707 -0.1358
   18SAPC   O32 2309   3.735   2.241  10.294 -0.1261 -0.0125 -0.1645
   18SAPC   C32 2310   3.776   2.218  10.051  0.1672  0.3707  0.1504
   18SAPC   H2X 2311   3.807   2.297   9.980  0.2407 -0.3211 -0.5947
   18SAPC   H2Y 2312   3.694   2.162  10.002  1.5277 -0.5654 -1.1049
   18SAPC   C23 2313   3.957   2.716   9.967 -0.2354  0.0044  0.3425
   18SAPC   H3R 2314   4.061   2.694   9.999 -1.4835 -3.2470  2.4797
   18SAPC   H3S 2315   3.967   2.803   9.898  0.3569 -0.8669 -0.6771
   18SAPC   C24 2316   3.877   2.601   9.913  0.0061  0.6434 -0.4789
   18SAPC   H4R 2317   3.893   2.520   9.988 -1.6986  0.9888  0.2768
   18SAPC   H4S 2318   3.931   2.565   9.822  0.5697 -0.6196  0.3323
   18SAPC   C25 2319   3.724   2.617   9.894 -0.0743 -0.4000  0.6474
   18SAPC   H5R 2320   3.672   2.651   9.985 -0.3160  0.1713  0.3019
   18SAPC   C26 2321   3.650   2.601   9.788  0.3994 -0.4250 -0.1013
   18SAPC   H6R 2322   3.545   2.629   9.804  1.3383  1.7246  2.8180
   18SAPC   C27 2323   3.693   2.563   9.646 -0.0223  0.4140  0.4920
   18SAPC   H7R 2324   3.803   2.549   9.634 -0.0969 -1.5984  1.8930
   18SAPC   H7S 2325   3.681   2.646   9.574  0.1767  0.1458  0.1477
   18SAPC   C28 2326   3.628   2.433   9.609  0.1133 -0.7090 -0.5996
   18SAPC   H8R 2327   3.640   2.341   9.667  0.4050  0.3281  1.0395
   18SAPC   C29 2328   3.531   2.423   9.513 -0.4679  0.5809  0.2593
   18SAPC   H9R 2329   3.482   2.325   9.501  1.0316 -0.0578 -0.7855
   18SAPC  C210 2330   3.488   2.538   9.426 -0.0840  0.2862  0.7682
   18SAPC  H10R 2331   3.574   2.556   9.358  1.0796  1.6138  2.5539
   18SAPC  H10S 2332   3.469   2.631   9.483  0.1606  0.5950  0.3444
   18SAPC  C211 2333   3.362   2.500   9.352  0.0445  0.1263 -0.5843
   18SAPC  H11R 2334   3.281   2.486   9.425 -0.2920 -0.3885 -1.0536
   18SAPC  C212 2335   3.351   2.465   9.221  0.1947 -0.0378 -0.5714
   18SAPC  H12R 2336   3.250   2.437   9.189  0.0135 -3.9574  2.9979
   18SAPC  C213 2337   3.461   2.485   9.119 -0.6850  0.0205  0.5356
   18SAPC  H13R 2338   3.481   2.395   9.057  1.4596 -0.0938  1.3445
   18SAPC  H13S 2339   3.559   2.494   9.172  0.4354 -1.1551 -1.2699
   18SAPC  C214 2340   3.435   2.606   9.032 -0.0754 -0.2698  0.3430
   18SAPC  H14R 2341   3.421   2.700   9.087 -0.2821  0.4905 -0.9966
   18SAPC  C215 2342   3.424   2.616   8.900 -0.6239  0.2571  0.4667
   18SAPC  H15R 2343   3.405   2.713   8.853  0.3332  0.4554  0.4821
   18SAPC  C216 2344   3.419   2.509   8.799  0.0233  0.2668  0.4127
   18SAPC  H16R 2345   3.409   2.407   8.841  0.4064  1.4746  3.6144
   18SAPC  H16S 2346   3.508   2.510   8.733 -0.9787  0.6407 -0.9721
   18SAPC  C217 2347   3.318   2.510   8.681 -0.4187 -0.3657 -0.4939
   18SAPC  H17R 2348   3.324   2.612   8.639 -0.0277  0.4776  1.5188
   18SAPC  H17S 2349   3.219   2.498   8.729  0.8998 -1.9280  1.9489
   18SAPC  C218 2350   3.332   2.401   8.576 -0.6898 -1.0493 -0.0087
   18SAPC  H18R 2351   3.370   2.313   8.633  0.2527 -1.7845 -1.7249
   18SAPC  H18S 2352   3.409   2.421   8.498 -0.2731  1.4421  0.9866
   18SAPC  C219 2353   3.194   2.376   8.505 -0.8912 -0.5811 -0.0736
   18SAPC  H19R 2354   3.172   2.467   8.444 -1.5644 -0.9227 -0.3460
   18SAPC  H19S 2355   3.124   2.382   8.591 -1.7691  0.0079 -0.8143
   18SAPC  C220 2356   3.187   2.260   8.409 -0.2983  0.7242  0.4117
   18SAPC  H20R 2357   3.086   2.222   8.384  0.8668 -0.9923 -1.8132
   18SAPC  H20S 2358   3.248   2.177   8.449 -0.8608  0.6151  1.0454
   18SAPC  H20T 2359   3.230   2.301   8.314  0.7251  3.0303  1.8100
   18SAPC   C33 2360   3.887   2.112  10.078  0.6856 -0.5834  0.2095
   18SAPC   H3X 2361   3.856   2.015  10.122  0.2222 -0.1173  0.9134
   18SAPC   H3Y 2362   3.971   2.160  10.132  1.1358 -1.0611 -0.0760
   18SAPC   C34 2363   3.937   2.062   9.946  0.2374  0.0208 -0.1296
   18SAPC   H4X 2364   4.020   1.989   9.947  0.3736  0.1021 -2.0263
   18SAPC   H4Y 2365   3.985   2.151   9.898 -2.3623  1.5144 -0.0135
   18SAPC   C35 2366   3.828   1.996   9.855 -0.1054  0.2375  0.1038
   18SAPC   H5X 2367   3.723   1.994   9.890 -0.1542 -2.7819 -0.0550
   18SAPC   H5Y 2368   3.858   1.890   9.836  0.1119  0.3395 -0.1238
   18SAPC   C36 2369   3.825   2.066   9.715 -1.2200 -0.4332 -0.0555
   18SAPC   H6X 2370   3.920   2.041   9.663  0.8600 -1.1204  3.8778
   18SAPC   H6Y 2371   3.821   2.177   9.726 -0.5497 -0.4553  0.4189
   18SAPC   C37 2372   3.710   2.024   9.627  0.1048  0.2906  0.7852
   18SAPC   H7X 2373   3.617   2.055   9.681 -0.5383  0.4141 -0.3746
   18SAPC   H7Y 2374   3.717   1.915   9.609  1.6017  0.3169  1.1475
   18SAPC   C38 2375   3.724   2.089   9.491  0.7890 -0.0678  0.0645
   18SAPC   H8X 2376   3.811   2.048   9.434 -1.3824 -0.4310 -3.1403
   18SAPC   H8Y 2377   3.735   2.200   9.496 -0.9006  0.2675 -2.3537
   18SAPC   C39 2378   3.602   2.088   9.396  0.7529  0.3490  0.0541
   18SAPC   H9X 2379   3.602   2.190   9.352 -0.7735  0.8428  1.1522
   18SAPC   H9Y 2380   3.507   2.086   9.454  0.0912 -1.7642 -1.0500
   18SAPC  C310 2381   3.604   1.972   9.298  0.1877  0.0891 -0.1056
   18SAPC  H10X 2382   3.621   1.875   9.350  2.0244  0.1743 -0.5339
   18SAPC  H10Y 2383   3.697   1.989   9.240 -0.8874  0.3706 -1.7636
   18SAPC  C311 2384   3.481   1.957   9.201 -0.0106 -0.5919  0.0792
   18SAPC  H11X 2385   3.456   2.059   9.166 -0.4542 -1.0622 -1.0008
   18SAPC  H11Y 2386   3.406   1.913   9.271 -0.5638 -0.8459 -0.6738
   18SAPC  C312 2387   3.496   1.865   9.082 -0.2384  0.1404  0.3964
   18SAPC  H12X 2388   3.396   1.854   9.036  0.1748  1.3501 -0.7989
   18SAPC  H12Y 2389   3.537   1.765   9.112 -1.4095 -0.4423  0.0792
   18SAPC  C313 2390   3.585   1.910   8.971 -0.1680  0.1971  0.0315
   18SAPC  H13X 2391   3.593   1.839   8.887  2.8572 -0.2833  0.6779
   18SAPC  H13Y 2392   3.689   1.908   9.010  0.9849  0.4976 -2.8814
   18SAPC  C314 2393   3.561   2.051   8.925 -0.0669 -0.0740  0.2326
   18SAPC  H14X 2394   3.647   2.070   8.857  0.2043 -2.1763 -0.0447
   18SAPC  H14Y 2395   3.565   2.122   9.010 -1.9130  0.8822 -0.4542
   18SAPC  C315 2396   3.431   2.065   8.843 -0.5132  0.3069  0.3062
   18SAPC  H15X 2397   3.443   2.171   8.811 -0.0231  0.0351 -0.4090
   18SAPC  H15Y 2398   3.351   2.054   8.919 -0.0439  0.0488  0.7679
   18SAPC  C316 2399   3.408   1.981   8.716  0.5032  0.3851  0.1772
   18SAPC  H16X 2400   3.317   2.024   8.670 -0.3596 -1.8434 -0.2856
   18SAPC  H16Y 2401   3.391   1.875   8.745  0.2485  0.2155 -0.5869
   18SAPC  C317 2402   3.516   1.983   8.610 -0.7966 -0.1134 -0.5182
   18SAPC  H17X 2403   3.471   1.942   8.517 -0.4967 -0.3913 -0.5424
   18SAPC  H17Y 2404   3.608   1.928   8.640  0.4930  2.3899  0.2015
   18SAPC  C318 2405   3.565   2.123   8.564 -0.3756 -0.3465  0.1314
   18SAPC  H18X 2406   3.641   2.119   8.483 -0.9019 -0.4050 -0.3717
   18SAPC  H18Y 2407   3.612   2.188   8.640 -1.2159  0.2417  0.1608
   18SAPC  H18Z 2408   3.473   2.175   8.528 -0.5489 -1.0189 -0.4244
   19SAPC     N 2409   2.838   4.649  10.723  0.1013 -0.0729 -0.0816
   19SAPC   C12 2410   2.979   4.654  10.660 -0.4041  0.3477  0.1973
   19SAPC  H12A 2411   3.026   4.743  10.700  0.7848  0.7643 -2.0393
   19SAPC  H12B 2412   2.981   4.672  10.554  0.1616 -0.6184  0.0400
   19SAPC   C13 2413   2.852   4.675  10.865 -0.0371 -0.1902  0.0390
   19SAPC  H13A 2414   2.893   4.773  10.882 -2.1080  0.5061  1.2435
   19SAPC  H13B 2415   2.759   4.672  10.921  0.0477  0.9770  0.2516
   19SAPC  H13C 2416   2.922   4.614  10.921  0.2129  0.0485 -0.0170
   19SAPC   C14 2417   2.757   4.761  10.667  0.3521 -0.1961 -0.3594
   19SAPC  H14A 2418   2.775   4.765  10.561  1.2359 -0.4112 -0.2196
   19SAPC  H14B 2419   2.651   4.745  10.675  0.4853 -1.7096 -1.4271
   19SAPC  H14C 2420   2.784   4.857  10.708  2.7576 -1.1020  0.2939
   19SAPC   C15 2421   2.762   4.525  10.716 -0.2513  0.0731  0.1289
   19SAPC  H15A 2422   2.730   4.498  10.616  0.4058 -0.9691  0.2037
   19SAPC  H15B 2423   2.835   4.451  10.742  0.4617  1.3190  1.7569
   19SAPC  H15C 2424   2.695   4.502  10.797  0.8546 -0.4742  0.8765
   19SAPC   C11 2425   3.074   4.532  10.698 -0.1535 -0.5374 -0.1606
   19SAPC  H11A 2426   3.034   4.441  10.648  0.0694 -0.0778 -1.1913
   19SAPC  H11B 2427   3.069   4.506  10.806  0.7305 -0.1768 -0.0293
   19SAPC     P 2428   3.283   4.441  10.556  0.3293  0.1548  0.1394
   19SAPC   O13 2429   3.420   4.423  10.609  0.5098 -0.5251 -0.2795
   19SAPC   O14 2430   3.208   4.319  10.531  0.1398 -0.0395 -0.0854
   19SAPC   O12 2431   3.208   4.546  10.650  0.5955 -0.3489 -0.2330
   19SAPC   O11 2432   3.299   4.532  10.421  0.2924 -0.4328  0.1696
   19SAPC    C1 2433   3.293   4.672  10.422 -0.2243 -0.4135  0.0505
   19SAPC    HA 2434   3.190   4.706  10.449 -0.8860 -2.2489 -0.0692
   19SAPC    HB 2435   3.364   4.711  10.498 -0.7917  0.4678  0.1347
   19SAPC    C2 2436   3.327   4.740  10.286  0.6458  0.0937  0.3008
   19SAPC    HS 2437   3.292   4.844  10.303 -0.7104  0.2641 -3.1693
   19SAPC   O21 2438   3.254   4.675  10.183  0.0217 -0.1600  0.9532
   19SAPC   C21 2439   3.136   4.735  10.163 -1.0838  0.4015 -0.2362
   19SAPC   O22 2440   3.096   4.840  10.215 -0.1582 -0.4035  0.0110
   19SAPC   C22 2441   3.054   4.649  10.062  0.9824  0.0494  0.1088
   19SAPC   H2R 2442   3.121   4.581  10.005  0.8952  0.3221 -0.3229
   19SAPC   H2S 2443   3.006   4.577  10.131  2.0414 -0.3772  0.4077
   19SAPC    C3 2444   3.480   4.739  10.260 -0.0208  0.1672 -1.3843
   19SAPC    HX 2445   3.506   4.634  10.235 -1.5596 -0.4146 -0.6317
   19SAPC    HY 2446   3.528   4.766  10.357 -0.0076 -1.1622 -0.9994
   19SAPC   O31 2447   3.531   4.828  10.162  0.0966  1.0168  0.1716
   19SAPC   C31 2448   3.655   4.820  10.125 -0.1217  0.4742  0.3483
   19SAPC   O32 2449   3.732   4.733  10.161 -0.7214 -0.2846 -0.3545
   19SAPC   C32 2450   3.672   4.931  10.018  0.1650 -0.1229 -0.2547
   19SAPC   H2X 2451   3.772   4.976  10.037 -0.2229  0.2429  0.9756
   19SAPC   H2Y 2452   3.598   5.013  10.030 -1.7213 -1.4228 -2.6935
   19SAPC   C23 2453   2.955   4.722   9.974  0.0563  0.6897 -0.2391
   19SAPC   H3R 2454   2.931   4.820  10.020 -1.1510  0.7875 -1.0653
   19SAPC   H3S 2455   2.871   4.652   9.959  0.0204  0.6369  0.1960
   19SAPC   C24 2456   3.007   4.739   9.830  0.9701 -0.5739 -0.4404
   19SAPC   H4R 2457   3.024   4.638   9.787  0.0157 -0.5933 -0.7688
   19SAPC   H4S 2458   3.107   4.787   9.828  1.6363 -1.9406 -1.0089
   19SAPC   C25 2459   2.909   4.810   9.748  0.5279  0.1937 -0.5184
   19SAPC   H5R 2460   2.815   4.840   9.797  1.0897  0.3916  0.4400
   19SAPC   C26 2461   2.916   4.845   9.618 -0.4272  0.7791 -0.0228
   19SAPC   H6R 2462   2.825   4.885   9.570 -1.3188  0.2420  1.1738
   19SAPC   C27 2463   3.040   4.821   9.529  0.3072  0.3072  0.3665
   19SAPC   H7R 2464   3.140   4.832   9.576  0.5064 -1.1250  0.2957
   19SAPC   H7S 2465   3.041   4.911   9.464 -1.9869 -0.4496 -0.7479
   19SAPC   C28 2466   3.036   4.698   9.441  0.1661 -0.1032  0.1967
   19SAPC   H8R 2467   3.072   4.610   9.496  0.9902  0.2488  0.2397
   19SAPC   C29 2468   2.991   4.678   9.321 -0.3020 -0.4328  0.4643
   19SAPC   H9R 2469   3.023   4.585   9.271  1.3297  1.6377 -2.4969
   19SAPC  C210 2470   2.931   4.780   9.238  0.6070  0.3414 -0.4896
   19SAPC  H10R 2471   2.995   4.871   9.234  2.6121 -1.0397 -0.5459
   19SAPC  H10S 2472   2.839   4.814   9.290  0.0475 -0.0004 -1.2622
   19SAPC  C211 2473   2.880   4.722   9.102 -0.2777  0.2577 -0.2435
   19SAPC  H11R 2474   2.772   4.739   9.085 -0.0912  0.2168 -1.5095
   19SAPC  C212 2475   2.954   4.677   9.000 -0.2192 -0.1235 -0.3050
   19SAPC  H12R 2476   2.899   4.649   8.909  0.1036  1.6962 -1.0737
   19SAPC  C213 2477   3.106   4.663   8.999  0.7253 -0.7227  0.4525
   19SAPC  H13R 2478   3.134   4.621   9.098 -1.0841 -1.6625  0.5878
   19SAPC  H13S 2479   3.146   4.765   8.979  0.5249 -0.7883 -0.2741
   19SAPC  C214 2480   3.144   4.564   8.888  0.3315  0.4689 -0.0102
   19SAPC  H14R 2481   3.060   4.496   8.865 -0.5202  1.3186  0.5094
   19SAPC  C215 2482   3.254   4.551   8.811 -0.6758 -0.7954 -0.6056
   19SAPC  H15R 2483   3.264   4.466   8.742 -0.0944 -1.2969  0.0896
   19SAPC  C216 2484   3.376   4.641   8.824  0.6281  0.0686 -0.0976
   19SAPC  H16R 2485   3.469   4.581   8.813 -1.1666 -2.9101  0.4512
   19SAPC  H16S 2486   3.375   4.698   8.919 -3.0423 -1.3968  0.8564
   19SAPC  C217 2487   3.364   4.734   8.705  0.0116 -0.2436 -0.7296
   19SAPC  H17R 2488   3.446   4.809   8.701 -0.1419  0.0119  0.6383
   19SAPC  H17S 2489   3.284   4.806   8.732 -1.7537 -2.9162  1.4429
   19SAPC  C218 2490   3.357   4.659   8.565 -0.0676  0.2036 -0.9492
   19SAPC  H18R 2491   3.266   4.596   8.558 -0.4577  0.6932 -0.3568
   19SAPC  H18S 2492   3.437   4.583   8.559 -1.7899 -1.8026  0.5097
   19SAPC  C219 2493   3.377   4.763   8.449 -0.5840 -0.5731  0.3152
   19SAPC  H19R 2494   3.389   4.705   8.356 -0.6458 -0.3469  0.1672
   19SAPC  H19S 2495   3.474   4.818   8.455 -1.1489  0.3315  1.2712
   19SAPC  C220 2496   3.251   4.847   8.433  0.2797  0.0299 -0.7520
   19SAPC  H20R 2497   3.156   4.789   8.428  0.3350 -0.2001  0.6839
   19SAPC  H20S 2498   3.250   4.896   8.333 -2.0186  2.2026  0.3097
   19SAPC  H20T 2499   3.258   4.920   8.516  1.9548 -0.1697 -0.6964
   19SAPC   C33 2500   3.653   4.869   9.874 -0.1995  0.4950  0.1444
   19SAPC   H3X 2501   3.720   4.781   9.872 -1.8327 -0.7823  0.1331
   19SAPC   H3Y 2502   3.689   4.946   9.802  0.2575  0.2095  0.0659
   19SAPC   C34 2503   3.512   4.830   9.838  0.0059  0.2321 -0.1830
   19SAPC   H4X 2504   3.451   4.924   9.836  0.1475  0.3933  2.0468
   19SAPC   H4Y 2505   3.460   4.764   9.910  0.7320 -0.8987 -0.6890
   19SAPC   C35 2506   3.511   4.770   9.699  0.4486 -0.5849 -0.0775
   19SAPC   H5X 2507   3.404   4.745   9.682 -0.2108 -0.7983  3.9465
   19SAPC   H5Y 2508   3.579   4.683   9.696  1.4638  0.2177 -0.3991
   19SAPC   C36 2509   3.559   4.857   9.585  0.7214  0.6341  0.6724
   19SAPC   H6X 2510   3.661   4.825   9.555  0.4999  1.5439 -1.1135
   19SAPC   H6Y 2511   3.569   4.964   9.610  0.3964  0.8754 -0.1909
   19SAPC   C37 2512   3.465   4.853   9.461 -0.7808 -0.6762 -1.2623
   19SAPC   H7X 2513   3.378   4.917   9.488 -1.8940 -2.0258 -1.5727
   19SAPC   H7Y 2514   3.427   4.750   9.441  1.8505 -1.7566 -0.9037
   19SAPC   C38 2515   3.524   4.929   9.336  0.1863  0.3872 -1.0994
   19SAPC   H8X 2516   3.528   5.039   9.352 -0.3731  0.4474 -1.3418
   19SAPC   H8Y 2517   3.447   4.907   9.259 -0.0796 -1.4620 -0.3392
   19SAPC   C39 2518   3.663   4.896   9.279 -0.1489  0.3305 -0.1224
   19SAPC   H9X 2519   3.717   4.829   9.350  0.7031  1.4018  0.2417
   19SAPC   H9Y 2520   3.715   4.994   9.277 -1.6933  1.1944  1.4776
   19SAPC  C310 2521   3.667   4.847   9.138 -0.0185  0.6997  0.1933
   19SAPC  H10X 2522   3.615   4.920   9.073 -0.8252  0.6770  0.8107
   19SAPC  H10Y 2523   3.612   4.752   9.119  2.5686 -0.7820 -0.2159
   19SAPC  C311 2524   3.810   4.821   9.092  0.0693  0.4915  1.0875
   19SAPC  H11X 2525   3.870   4.760   9.163  1.9031 -1.0669 -1.7051
   19SAPC  H11Y 2526   3.857   4.922   9.100 -2.3171  1.6789  0.7899
   19SAPC  C312 2527   3.837   4.758   8.948  0.1900  0.7879  0.2650
   19SAPC  H12X 2528   3.947   4.749   8.934 -0.2459 -1.1435 -2.4025
   19SAPC  H12Y 2529   3.796   4.826   8.870 -1.1095  2.0379  1.9932
   19SAPC  C313 2530   3.767   4.626   8.933  0.6081 -0.1760  0.2358
   19SAPC  H13X 2531   3.656   4.632   8.938  0.5800 -1.6457  1.6982
   19SAPC  H13Y 2532   3.803   4.559   9.013  1.2416  2.2694  2.0695
   19SAPC  C314 2533   3.797   4.564   8.796 -0.8766 -0.4400 -0.1208
   19SAPC  H14X 2534   3.745   4.467   8.786  0.4613 -1.1922  0.0742
   19SAPC  H14Y 2535   3.908   4.558   8.799 -0.7848  0.7798 -0.5463
   19SAPC  C315 2536   3.761   4.648   8.666  0.5767  0.1745 -0.3381
   19SAPC  H15X 2537   3.810   4.747   8.675 -3.0019  1.9219  0.8242
   19SAPC  H15Y 2538   3.651   4.660   8.667  0.4489 -0.9592 -0.0416
   19SAPC  C316 2539   3.790   4.582   8.536 -0.0103  0.3505 -0.2268
   19SAPC  H16X 2540   3.749   4.641   8.451  1.8829 -0.0978 -1.4859
   19SAPC  H16Y 2541   3.745   4.481   8.526  2.7433 -0.8490 -1.0654
   19SAPC  C317 2542   3.947   4.563   8.509 -0.3607  0.2040  0.1598
   19SAPC  H17X 2543   3.994   4.488   8.576  1.0148  1.1579  0.2869
   19SAPC  H17Y 2544   3.978   4.663   8.547  0.4779  0.3283 -0.8022
   19SAPC  C318 2545   3.981   4.534   8.364  0.9287  0.4477  0.3475
   19SAPC  H18X 2546   3.961   4.429   8.337 -0.9147  0.9407 -0.2599
   19SAPC  H18Y 2547   4.088   4.555   8.342  0.4678  0.7787 -1.6403
   19SAPC  H18Z 2548   3.932   4.604   8.293 -1.1163  0.2453  1.5478
   20SAPC     N 2549   2.964   0.393  11.161  0.5809 -0.1714 -0.4014
   20SAPC   C12 2550   2.925   0.319  11.031 -0.1143 -0.0056  0.2691
   20SAPC  H12A 2551   2.830   0.272  11.055  0.3749 -1.8660 -1.3810
   20SAPC  H12B 2552   2.995   0.239  11.016 -1.4809 -1.4189  1.3175
   20SAPC   C13 2553   3.079   0.484  11.136 -0.4774  0.3779 -0.3963
   20SAPC  H13A 2554   3.046   0.557  11.063  1.3092  0.2829 -1.3126
   20SAPC  H13B 2555   3.106   0.538  11.225 -0.2232 -1.3390  0.5974
   20SAPC  H13C 2556   3.163   0.432  11.092 -0.0362  0.4186  0.4071
   20SAPC   C14 2557   2.852   0.481  11.212 -0.1919 -0.2362 -0.0752
   20SAPC  H14A 2558   2.771   0.419  11.248  0.2593 -0.7572  0.0621
   20SAPC  H14B 2559   2.879   0.539  11.299 -1.9119  0.0735  0.2687
   20SAPC  H14C 2560   2.818   0.548  11.135  1.6690  1.9008  0.9193
   20SAPC   C15 2561   3.000   0.296  11.263  0.0611  0.3151 -0.1364
   20SAPC  H15A 2562   3.088   0.235  11.246 -1.0130 -2.0753  2.5424
   20SAPC  H15B 2563   3.020   0.348  11.356  1.6432 -1.0315  0.3066
   20SAPC  H15C 2564   2.926   0.223  11.292  1.1388 -1.5727 -2.0182
   20SAPC   C11 2565   2.898   0.402  10.903 -0.1145  0.2939 -0.7899
   20SAPC  H11A 2566   2.876   0.338  10.815 -0.8499 -1.1714  0.4364
   20SAPC  H11B 2567   2.992   0.458  10.887 -0.5347  1.5262  0.9315
   20SAPC     P 2568   2.642   0.436  10.925 -0.0172  0.1101  0.0926
   20SAPC   O13 2569   2.638   0.297  10.975  0.1728 -0.1281  0.6205
   20SAPC   O14 2570   2.552   0.532  10.989 -0.2421 -0.5403 -0.2769
   20SAPC   O12 2571   2.789   0.493  10.919  0.2862 -0.7003 -0.1343
   20SAPC   O11 2572   2.604   0.424  10.764 -0.8507  0.4271  0.0451
   20SAPC    C1 2573   2.633   0.530  10.676  0.3913 -0.0429 -0.1597
   20SAPC    HA 2574   2.554   0.541  10.599 -1.5988 -1.1748  1.6867
   20SAPC    HB 2575   2.636   0.629  10.727  1.4128  0.5931 -1.4124
   20SAPC    C2 2576   2.747   0.496  10.580  0.1297  0.3088 -0.5252
   20SAPC    HS 2577   2.845   0.488  10.631 -1.3310  0.7987  2.5092
   20SAPC   O21 2578   2.744   0.577  10.458 -0.0455  0.1005  0.1152
   20SAPC   C21 2579   2.771   0.705  10.479 -0.1943 -0.0724  0.2770
   20SAPC   O22 2580   2.812   0.751  10.585  0.5042  0.2191  0.3988
   20SAPC   C22 2581   2.755   0.788  10.358  0.2706  0.0015  0.2186
   20SAPC   H2R 2582   2.853   0.814  10.311  0.2278 -2.0401 -1.0597
   20SAPC   H2S 2583   2.699   0.726  10.285 -0.4190 -0.2094  0.9290
   20SAPC    C3 2584   2.745   0.346  10.537 -0.4082  0.4494 -0.0217
   20SAPC    HX 2585   2.643   0.329  10.497 -1.2892  0.7385  2.0209
   20SAPC    HY 2586   2.755   0.294  10.635  0.4815 -0.7061 -0.7042
   20SAPC   O31 2587   2.859   0.311  10.451 -0.3749 -0.7395 -0.0692
   20SAPC   C31 2588   2.827   0.263  10.334  0.9243  0.2696 -0.2056
   20SAPC   O32 2589   2.722   0.205  10.310  0.2310  0.5752 -0.0555
   20SAPC   C32 2590   2.940   0.274  10.234  0.2310 -0.4651  0.0917
   20SAPC   H2X 2591   3.022   0.209  10.272  2.3648  1.4552 -1.1202
   20SAPC   H2Y 2592   2.977   0.378  10.228 -1.4295  0.2396  1.5584
   20SAPC   C23 2593   2.665   0.912  10.391 -0.3635 -0.2598 -0.8935
   20SAPC   H3R 2594   2.711   0.981  10.465 -1.3587  0.2111 -0.7019
   20SAPC   H3S 2595   2.576   0.884  10.451  0.0560 -0.3296 -0.2994
   20SAPC   C24 2596   2.634   0.992  10.258 -0.0373  0.9259  0.0770
   20SAPC   H4R 2597   2.736   1.024  10.226  0.2473  0.7410  0.7953
   20SAPC   H4S 2598   2.580   1.083  10.291 -0.3628  0.8630 -0.2873
   20SAPC   C25 2599   2.550   0.928  10.156 -1.1729 -0.4565 -0.3934
   20SAPC   H5R 2600   2.457   0.890  10.202 -0.2895 -4.4437 -1.7063
   20SAPC   C26 2601   2.564   0.921  10.025 -0.1434 -0.1576 -0.5430
   20SAPC   H6R 2602   2.489   0.877   9.958  2.1096  1.1589 -4.0779
   20SAPC   C27 2603   2.694   0.964   9.963  0.0848 -0.0865 -0.1959
   20SAPC   H7R 2604   2.750   1.041  10.019 -1.0327  0.6691 -0.1134
   20SAPC   H7S 2605   2.678   1.000   9.859 -0.6876  1.8232  0.5715
   20SAPC   C28 2606   2.806   0.856   9.958 -0.0403  0.0314  0.0686
   20SAPC   H8R 2607   2.820   0.812  10.058 -1.4965 -0.9503 -0.1441
   20SAPC   C29 2608   2.892   0.808   9.860  0.8495 -0.2966  0.0465
   20SAPC   H9R 2609   2.973   0.740   9.891 -0.1378 -0.9313  1.2819
   20SAPC  C210 2610   2.886   0.846   9.710  0.2551  0.5552  0.2032
   20SAPC  H10R 2611   2.980   0.896   9.678  0.6214  0.1981  0.7084
   20SAPC  H10S 2612   2.799   0.911   9.689 -0.6801 -0.8551 -0.3945
   20SAPC  C211 2613   2.878   0.721   9.624 -0.0660 -0.3337  0.5978
   20SAPC  H11R 2614   2.872   0.627   9.680  1.5493 -0.2976  0.8391
   20SAPC  C212 2615   2.876   0.708   9.490 -0.4660  0.0446  0.2242
   20SAPC  H12R 2616   2.884   0.607   9.448  0.4637  0.6128 -0.9971
   20SAPC  C213 2617   2.883   0.828   9.396 -0.4609  0.3159  0.3511
   20SAPC  H13R 2618   2.957   0.900   9.437 -0.8998  0.1630  1.4230
   20SAPC  H13S 2619   2.781   0.871   9.395  0.2832  2.1348 -0.8256
   20SAPC  C214 2620   2.911   0.790   9.248 -0.7792  0.8246  0.1105
   20SAPC  H14R 2621   2.824   0.781   9.181  1.0248  0.5014 -2.2440
   20SAPC  C215 2622   3.027   0.762   9.199 -0.7091 -0.6217 -1.0806
   20SAPC  H15R 2623   3.034   0.737   9.092 -0.3479  1.7247 -1.6344
   20SAPC  C216 2624   3.161   0.780   9.271 -0.2566  0.1893 -0.6563
   20SAPC  H16R 2625   3.220   0.689   9.247 -1.5628 -0.7303 -0.4362
   20SAPC  H16S 2626   3.147   0.777   9.382 -0.4172 -1.6068 -0.7089
   20SAPC  C217 2627   3.236   0.909   9.226  0.2052 -0.3685 -0.4858
   20SAPC  H17R 2628   3.340   0.915   9.264  0.8008 -0.4492 -2.0551
   20SAPC  H17S 2629   3.181   0.990   9.278  2.2026  0.6490  0.0809
   20SAPC  C218 2630   3.239   0.940   9.075  0.9875  0.5733 -0.4692
   20SAPC  H18R 2631   3.132   0.952   9.047 -0.1061 -0.2638  3.0744
   20SAPC  H18S 2632   3.274   0.851   9.018  0.1778  0.1592 -0.3329
   20SAPC  C219 2633   3.315   1.064   9.058  0.1999  0.2486 -0.4044
   20SAPC  H19R 2634   3.286   1.134   9.140 -1.4167 -1.0754  0.1754
   20SAPC  H19S 2635   3.273   1.103   8.963  0.9939 -0.1723 -0.9315
   20SAPC  C220 2636   3.465   1.065   9.041 -1.5339 -0.3828 -0.3548
   20SAPC  H20R 2637   3.515   1.030   9.134 -0.5548 -0.0967 -0.7689
   20SAPC  H20S 2638   3.502   1.169   9.027  0.2485 -1.3132 -2.9730
   20SAPC  H20T 2639   3.503   1.017   8.948 -0.4770 -2.3955  1.0732
   20SAPC   C33 2640   2.906   0.245  10.082  0.3696  0.3520  0.1408
   20SAPC   H3X 2641   2.813   0.298  10.050  1.2632  2.9861  1.8024
   20SAPC   H3Y 2642   2.891   0.136  10.073  1.5970  0.1282  0.7284
   20SAPC   C34 2643   3.023   0.288   9.992 -0.1860 -0.8753  0.9173
   20SAPC   H4X 2644   3.121   0.254  10.032  0.5630 -1.3019 -1.2137
   20SAPC   H4Y 2645   3.032   0.398  10.004 -0.3679 -0.8973  1.2579
   20SAPC   C35 2646   3.014   0.240   9.844 -0.1545 -0.2797 -0.1210
   20SAPC   H5X 2647   2.907   0.230   9.816 -1.0019 -2.1747  3.5496
   20SAPC   H5Y 2648   3.045   0.134   9.854  2.6293  0.6465  1.8101
   20SAPC   C36 2649   3.103   0.312   9.744 -0.0089 -0.3007 -0.2499
   20SAPC   H6X 2650   3.212   0.299   9.760  0.1567 -0.0209 -1.1522
   20SAPC   H6Y 2651   3.084   0.419   9.766  4.1003  1.1182 -3.0199
   20SAPC   C37 2652   3.068   0.282   9.599 -0.5855 -0.1651  0.0479
   20SAPC   H7X 2653   2.957   0.280   9.594 -0.6400 -1.1411  1.3733
   20SAPC   H7Y 2654   3.102   0.178   9.576  2.0506  0.3551  1.4450
   20SAPC   C38 2655   3.119   0.388   9.496  0.6638 -0.0513  0.0367
   20SAPC   H8X 2656   3.229   0.375   9.487  0.4676 -2.3370  0.8535
   20SAPC   H8Y 2657   3.093   0.492   9.524  0.4943  0.4562 -1.9403
   20SAPC   C39 2658   3.055   0.383   9.357  0.5076 -0.0703  0.8354
   20SAPC   H9X 2659   3.053   0.483   9.307  1.3505 -0.6484 -0.3804
   20SAPC   H9Y 2660   2.955   0.337   9.370  0.0808  0.4146 -0.5781
   20SAPC  C310 2661   3.128   0.289   9.256  0.0912  0.1149 -0.5013
   20SAPC  H10X 2662   3.125   0.192   9.310  2.3680  0.7937  0.9313
   20SAPC  H10Y 2663   3.235   0.305   9.231  0.7724 -2.1627  0.7943
   20SAPC  C311 2664   3.061   0.266   9.119  0.4338  0.8363 -0.0282
   20SAPC  H11X 2665   2.962   0.220   9.135  1.4127 -1.4447 -0.2491
   20SAPC  H11Y 2666   3.116   0.201   9.047  2.0374  2.2305 -0.1124
   20SAPC  C312 2667   3.029   0.399   9.062  0.6053 -0.9467 -0.2299
   20SAPC  H12X 2668   3.111   0.472   9.080  1.0610 -2.5365  4.9517
   20SAPC  H12Y 2669   2.939   0.436   9.117  0.3566 -0.6785 -0.8086
   20SAPC  C313 2670   2.986   0.394   8.916  0.1719  0.2030  0.0882
   20SAPC  H13X 2671   2.887   0.344   8.913 -0.0558  0.6073  0.6456
   20SAPC  H13Y 2672   3.058   0.335   8.856  1.5018  0.5935  1.2803
   20SAPC  C314 2673   2.958   0.540   8.865  0.3482 -0.4346  0.3431
   20SAPC  H14X 2674   3.043   0.611   8.874  0.4382 -0.3151 -1.2429
   20SAPC  H14Y 2675   2.877   0.592   8.920  0.7476  0.9399 -0.3437
   20SAPC  C315 2676   2.908   0.547   8.722  0.1940  0.7060  0.2197
   20SAPC  H15X 2677   2.832   0.468   8.704  2.1223 -1.5475  1.6933
   20SAPC  H15Y 2678   2.995   0.521   8.658  0.5383  0.2148  0.8729
   20SAPC  C316 2679   2.867   0.686   8.682  0.4196  0.4244  0.0167
   20SAPC  H16X 2680   2.883   0.713   8.575 -1.6039  2.0263  0.0856
   20SAPC  H16Y 2681   2.925   0.755   8.747  0.7372  0.3410 -0.1764
   20SAPC  C317 2682   2.718   0.723   8.714 -0.0785  0.3155 -0.9971
   20SAPC  H17X 2683   2.684   0.668   8.804 -2.6965  1.4386 -1.2245
   20SAPC  H17Y 2684   2.656   0.683   8.630 -0.1149 -1.7088 -0.0473
   20SAPC  C318 2685   2.700   0.872   8.721 -0.7625 -0.2543 -0.2414
   20SAPC  H18X 2686   2.726   0.914   8.821 -3.5448  2.5753 -0.6389
   20SAPC  H18Y 2687   2.590   0.888   8.712 -0.2263  2.2656 -3.3890
   20SAPC  H18Z 2688   2.756   0.927   8.643  1.0684 -0.3365  0.9838
   21SAPC     N 2689   2.271   0.184  10.812 -0.2305 -0.4336  0.5721
   21SAPC   C12 2690   2.165   0.108  10.744 -0.4714  0.1178  0.7684
   21SAPC  H12A 2691   2.119   0.176  10.674  1.4720  2.0290  1.2998
   21SAPC  H12B 2692   2.094   0.065  10.813 -1.7626  2.1058  0.7355
   21SAPC   C13 2693   2.323   0.100  10.925  0.5825 -0.3242 -0.7644
   21SAPC  H13A 2694   2.416   0.138  10.964  1.4151  0.4879 -3.4555
   21SAPC  H13B 2695   2.250   0.089  11.004  1.2749 -0.6638 -0.1736
   21SAPC  H13C 2696   2.349   0.004  10.883  3.1977  0.1809 -0.3740
   21SAPC   C14 2697   2.385   0.215  10.725  0.6226 -0.2453  0.6931
   21SAPC  H14A 2698   2.349   0.274  10.642 -0.6742  1.5187  2.4589
   21SAPC  H14B 2699   2.451   0.288  10.768 -0.6179  2.5560 -1.9539
   21SAPC  H14C 2700   2.437   0.128  10.688  0.8906 -0.3053  1.2179
   21SAPC   C15 2701   2.208   0.313  10.873 -0.0278 -0.2087 -0.1216
   21SAPC  H15A 2702   2.280   0.369  10.931 -1.0591  0.5291  0.4661
   21SAPC  H15B 2703   2.177   0.378  10.791 -0.2769 -0.6057 -0.3444
   21SAPC  H15C 2704   2.123   0.293  10.936  1.1722 -0.3753  1.4558
   21SAPC   C11 2705   2.213  -0.014  10.662 -0.5423  0.3340  0.6130
   21SAPC  H11A 2706   2.279   0.016  10.577 -1.3336 -2.4131 -1.0274
   21SAPC  H11B 2707   2.122  -0.057  10.616  0.6673 -1.1389 -0.4909
   21SAPC     P 2708   2.207  -0.247  10.790 -0.0043 -0.1146  0.0358
   21SAPC   O13 2709   2.314  -0.335  10.839  0.5146  1.0869  0.5164
   21SAPC   O14 2710   2.096  -0.206  10.882  0.2117  0.1282  0.1135
   21SAPC   O12 2711   2.279  -0.109  10.741  0.0194  0.1292 -0.1339
   21SAPC   O11 2712   2.142  -0.308  10.652  0.4361 -0.1061 -0.9210
   21SAPC    C1 2713   2.212  -0.413  10.586 -0.7770  0.1200 -0.1508
   21SAPC    HA 2714   2.253  -0.489  10.655 -0.7287  0.1694 -0.1251
   21SAPC    HB 2715   2.139  -0.467  10.521 -0.8538  0.3676 -0.2724
   21SAPC    C2 2716   2.319  -0.357  10.485  0.3018 -0.9539 -0.5692
   21SAPC    HS 2717   2.384  -0.289  10.544  1.1722 -2.4038  0.1765
   21SAPC   O21 2718   2.249  -0.295  10.373 -0.2073 -0.0998 -0.2309
   21SAPC   C21 2719   2.313  -0.184  10.323  0.8725 -0.4783  0.5304
   21SAPC   O22 2720   2.418  -0.133  10.362  0.2568  0.2612 -0.1382
   21SAPC   C22 2721   2.240  -0.137  10.200  0.5717  0.9313  0.2538
   21SAPC   H2R 2722   2.298  -0.180  10.116 -1.6277 -0.9797 -0.3443
   21SAPC   H2S 2723   2.138  -0.178  10.181  0.5145  1.1410  0.1034
   21SAPC    C3 2724   2.409  -0.475  10.421  0.1060  0.9955  0.1291
   21SAPC    HX 2725   2.346  -0.523  10.343  1.2554  0.1671 -0.3175
   21SAPC    HY 2726   2.423  -0.541  10.510 -0.1594 -1.7542 -1.7952
   21SAPC   O31 2727   2.540  -0.432  10.376 -0.3690 -0.2150  0.3697
   21SAPC   C31 2728   2.570  -0.446  10.254  0.4500 -0.0008  0.2859
   21SAPC   O32 2729   2.513  -0.507  10.162  0.1666  0.7617 -0.2090
   21SAPC   C32 2730   2.707  -0.380  10.225 -0.5124 -0.3662 -0.2294
   21SAPC   H2X 2731   2.752  -0.422  10.132 -0.5825 -0.2759 -0.3020
   21SAPC   H2Y 2732   2.771  -0.394  10.315 -3.2869  0.7087  1.9924
   21SAPC   C23 2733   2.227   0.011  10.209 -0.1719  0.6075  0.8938
   21SAPC   H3R 2734   2.330   0.049  10.191  0.2313 -0.0036  1.8357
   21SAPC   H3S 2735   2.191   0.034  10.311 -0.0473 -0.4013  1.1761
   21SAPC   C24 2736   2.129   0.067  10.100  0.2901  0.6633 -0.4098
   21SAPC   H4R 2737   2.029   0.033  10.134  1.3372 -0.4141  1.7087
   21SAPC   H4S 2738   2.152   0.007  10.010  2.8794 -0.5291  0.9931
   21SAPC   C25 2739   2.127   0.223  10.096  0.5763 -0.3307  0.0522
   21SAPC   H5R 2740   2.146   0.274  10.192 -0.0730 -1.0060  0.5459
   21SAPC   C26 2741   2.129   0.297   9.982 -0.0828 -0.3502  0.5264
   21SAPC   H6R 2742   2.123   0.407   9.977 -0.6653 -0.4612 -1.3308
   21SAPC   C27 2743   2.117   0.231   9.851 -0.4644 -0.5784  0.5403
   21SAPC   H7R 2744   2.034   0.158   9.844 -0.6715 -0.3834  0.9458
   21SAPC   H7S 2745   2.218   0.187   9.833  0.7746  2.9249 -1.5610
   21SAPC   C28 2746   2.089   0.331   9.748  0.4095  0.3949  0.4467
   21SAPC   H8R 2747   2.049   0.427   9.782  1.0108  0.9137 -0.2867
   21SAPC   C29 2748   2.098   0.309   9.612 -0.5096  0.1617  0.3453
   21SAPC   H9R 2749   2.070   0.393   9.547 -1.9210  0.8376  1.7854
   21SAPC  C210 2750   2.130   0.179   9.538 -0.3778  0.0076  0.4026
   21SAPC  H10R 2751   2.032   0.166   9.489  0.1032  3.0006 -1.4624
   21SAPC  H10S 2752   2.150   0.088   9.599 -1.1191  0.1898  0.9146
   21SAPC  C211 2753   2.229   0.204   9.431 -0.5788  0.4140 -0.3735
   21SAPC  H11R 2754   2.332   0.203   9.471 -0.5586 -0.9753 -0.4141
   21SAPC  C212 2755   2.208   0.216   9.301 -0.1053 -0.4579 -0.1608
   21SAPC  H12R 2756   2.294   0.212   9.232 -0.1834  0.5868 -0.3294
   21SAPC  C213 2757   2.078   0.220   9.229 -0.3322 -0.3521  0.1337
   21SAPC  H13R 2758   1.998   0.265   9.292 -1.5594 -0.6510 -1.1972
   21SAPC  H13S 2759   2.027   0.124   9.207  0.7410 -0.5496 -1.5618
   21SAPC  C214 2760   2.076   0.310   9.107  0.4157  0.5451 -0.0926
   21SAPC  H14R 2761   2.103   0.414   9.129 -1.6186  1.1529 -0.3588
   21SAPC  C215 2762   2.033   0.277   8.980  0.2801 -0.6007  0.3408
   21SAPC  H15R 2763   2.023   0.357   8.904  2.2270 -0.3896  0.2555
   21SAPC  C216 2764   1.986   0.144   8.932  0.3640  0.2291  0.0072
   21SAPC  H16R 2765   2.065   0.066   8.930  1.0904  0.9969 -0.8800
   21SAPC  H16S 2766   1.971   0.157   8.823  1.4571  1.1267 -0.0430
   21SAPC  C217 2767   1.847   0.094   8.984 -0.5021 -0.6399  0.1147
   21SAPC  H17R 2768   1.768   0.162   8.945  2.6599  1.3607 -3.0244
   21SAPC  H17S 2769   1.842   0.100   9.095 -0.7290 -3.2473  0.2969
   21SAPC  C218 2770   1.809  -0.045   8.920  0.0423 -0.3128  0.0445
   21SAPC  H18R 2771   1.717  -0.067   8.979  0.2103  1.2509  0.9290
   21SAPC  H18S 2772   1.882  -0.122   8.951 -1.2284 -1.2505  0.7715
   21SAPC  C219 2773   1.773  -0.058   8.772 -0.6453  0.0113 -0.0813
   21SAPC  H19R 2774   1.860  -0.019   8.715  0.3394 -0.4278  1.0903
   21SAPC  H19S 2775   1.684   0.006   8.751 -0.6629 -0.2573 -0.8272
   21SAPC  C220 2776   1.735  -0.204   8.725  0.0484  0.0479  0.6593
   21SAPC  H20R 2777   1.828  -0.261   8.745  0.5714  1.0710  1.2128
   21SAPC  H20S 2778   1.714  -0.200   8.616 -0.3563 -2.6316  0.6074
   21SAPC  H20T 2779   1.645  -0.244   8.777  0.3115 -2.3058 -0.6453
   21SAPC   C33 2780   2.692  -0.227  10.220 -0.8776  0.2679 -1.0138
   21SAPC   H3X 2781   2.792  -0.179  10.210  0.0755 -0.3522  4.3714
   21SAPC   H3Y 2782   2.646  -0.192  10.315  0.2468  0.2502 -0.4616
   21SAPC   C34 2783   2.599  -0.184  10.102  0.1446  0.1318  0.0547
   21SAPC   H4X 2784   2.492  -0.215  10.102  0.6977 -1.9114  0.4422
   21SAPC   H4Y 2785   2.643  -0.236  10.014 -1.0191  1.1153 -1.1132
   21SAPC   C35 2786   2.604  -0.034  10.093 -0.7103  0.5071  0.5656
   21SAPC   H5X 2787   2.710  -0.007  10.075 -1.3346  2.8306  0.3087
   21SAPC   H5Y 2788   2.568   0.019  10.184 -3.0880 -0.5245  0.2558
   21SAPC   C36 2789   2.511   0.019   9.982 -0.0712  0.1849 -0.4622
   21SAPC   H6X 2790   2.484   0.126   9.997  0.9336  0.0339  2.9096
   21SAPC   H6Y 2791   2.421  -0.046   9.993  1.0950 -1.4620 -0.5084
   21SAPC   C37 2792   2.585   0.012   9.847  0.3934 -0.2102  0.5628
   21SAPC   H7X 2793   2.618  -0.091   9.819 -1.4779 -0.6333 -0.1900
   21SAPC   H7Y 2794   2.673   0.079   9.842  0.3382 -0.0903  1.2964
   21SAPC   C38 2795   2.487   0.050   9.734  0.0838 -0.0292  0.1158
   21SAPC   H8X 2796   2.453   0.154   9.750  1.6786  0.4626  0.2912
   21SAPC   H8Y 2797   2.396  -0.015   9.741  0.4523 -0.3383  2.2178
   21SAPC   C39 2798   2.555   0.041   9.593  0.2565 -0.1832  0.1411
   21SAPC   H9X 2799   2.474   0.046   9.517 -1.6501 -4.0267  1.7570
   21SAPC   H9Y 2800   2.598  -0.061   9.586  2.5095  0.6676  1.2817
   21SAPC  C310 2801   2.666   0.132   9.561 -0.4421 -0.3145  0.4704
   21SAPC  H10X 2802   2.763   0.099   9.604  0.6671 -0.7230 -2.2584
   21SAPC  H10Y 2803   2.643   0.233   9.602 -1.5078 -0.3541 -0.0030
   21SAPC  C311 2804   2.692   0.149   9.406  0.1650  0.2419 -0.0163
   21SAPC  H11X 2805   2.664   0.065   9.339 -0.5356  1.2791 -1.0422
   21SAPC  H11Y 2806   2.801   0.156   9.383 -0.1758  1.9923 -1.2519
   21SAPC  C312 2807   2.622   0.275   9.346  0.7153  0.8975  0.0257
   21SAPC  H12X 2808   2.665   0.365   9.394 -0.4157  0.2103  2.3922
   21SAPC  H12Y 2809   2.511   0.275   9.356  0.7226 -3.5689  0.9488
   21SAPC  C313 2810   2.659   0.294   9.197 -0.2973 -0.2572 -0.0836
   21SAPC  H13X 2811   2.635   0.201   9.141 -3.1840 -0.1419  0.8595
   21SAPC  H13Y 2812   2.758   0.331   9.163 -2.3953  4.1510 -1.8215
   21SAPC  C314 2813   2.565   0.388   9.121  0.1339 -0.6679  0.1892
   21SAPC  H14X 2814   2.597   0.493   9.136 -2.1364  0.0726  0.0896
   21SAPC  H14Y 2815   2.465   0.386   9.169  1.7980 -2.2467  3.7650
   21SAPC  C315 2816   2.560   0.344   8.979  0.4113  0.5471 -0.0573
   21SAPC  H15X 2817   2.512   0.245   8.969  2.0225 -0.2755  0.1242
   21SAPC  H15Y 2818   2.663   0.345   8.937  0.2647  1.5703 -0.4146
   21SAPC  C316 2819   2.475   0.446   8.896 -0.3348 -0.0636  0.0652
   21SAPC  H16X 2820   2.538   0.537   8.886  1.0629 -0.9279  0.8597
   21SAPC  H16Y 2821   2.382   0.484   8.944 -1.0074  1.7670 -2.5579
   21SAPC  C317 2822   2.449   0.385   8.754 -0.2259 -0.2184  0.3804
   21SAPC  H17X 2823   2.411   0.281   8.757 -2.7340  0.7124  1.9545
   21SAPC  H17Y 2824   2.550   0.376   8.707 -0.5019  1.5444 -0.6049
   21SAPC  C318 2825   2.352   0.473   8.671  0.0729  0.3776 -0.0151
   21SAPC  H18X 2826   2.333   0.415   8.578 -0.5350  0.5063  0.0222
   21SAPC  H18Y 2827   2.395   0.574   8.658  1.2141  0.1234  1.5885
   21SAPC  H18Z 2828   2.257   0.471   8.730  0.0350  0.2596 -0.0804
   22SAPC     N 2829   1.887   4.852  11.078  0.6253 -0.4298  0.3209
   22SAPC   C12 2830   1.959   4.979  11.049  0.0889 -0.4348 -0.3601
   22SAPC  H12A 2831   1.945   5.051  11.128 -0.6447 -0.6992 -0.2395
   22SAPC  H12B 2832   1.921   5.040  10.968  0.5207  0.3111 -0.0067
   22SAPC   C13 2833   1.946   4.804  11.203  0.8927  0.5742 -0.3543
   22SAPC  H13A 2834   1.939   4.871  11.288 -0.0804 -2.1796  1.8171
   22SAPC  H13B 2835   1.901   4.713  11.237  0.5141  1.4225  1.5007
   22SAPC  H13C 2836   2.053   4.790  11.196  0.5863 -1.4874 -1.1478
   22SAPC   C14 2837   1.744   4.885  11.098  0.0938  0.5677 -0.0764
   22SAPC  H14A 2838   1.697   4.928  11.010  0.5443 -0.7276 -0.9699
   22SAPC  H14B 2839   1.687   4.802  11.137 -0.2999 -0.4389 -2.6815
   22SAPC  H14C 2840   1.745   4.963  11.172 -2.7949 -0.0822  0.7072
   22SAPC   C15 2841   1.889   4.750  10.974 -0.6771 -0.7111 -0.1954
   22SAPC  H15A 2842   1.854   4.798  10.884  0.5168 -1.7193 -1.2079
   22SAPC  H15B 2843   1.989   4.713  10.961  0.1819  1.8030 -0.9611
   22SAPC  H15C 2844   1.824   4.665  10.992 -0.3253 -0.8753  0.3054
   22SAPC   C11 2845   2.111   4.964  11.024 -0.0288  0.1797 -0.3088
   22SAPC  H11A 2846   2.178   4.922  11.103 -1.3498  1.1526  1.3654
   22SAPC  H11B 2847   2.144   5.068  11.004  0.9897  0.3362  1.9827
   22SAPC     P 2848   2.133   4.926  10.760 -0.2184 -0.4752 -0.3486
   22SAPC   O13 2849   2.127   4.805  10.674 -0.4676  0.4285  0.2545
   22SAPC   O14 2850   2.030   5.032  10.752  0.5413  0.6772 -0.7511
   22SAPC   O12 2851   2.136   4.879  10.911 -0.0260 -0.7299  0.4318
   22SAPC   O11 2852   2.270   5.001  10.756 -0.1501  0.3981 -0.2861
   22SAPC    C1 2853   2.306   5.104  10.673 -0.5572  0.2401  0.2409
   22SAPC    HA 2854   2.222   5.171  10.648 -1.6078 -0.5651  1.5855
   22SAPC    HB 2855   2.381   5.166  10.726 -0.6123  0.1591  0.4135
   22SAPC    C2 2856   2.382   5.049  10.547 -0.0329 -0.0798 -0.0178
   22SAPC    HS 2857   2.412   5.135  10.483  1.3461 -0.5635 -0.0457
   22SAPC   O21 2858   2.301   4.954  10.469 -0.5696 -1.0932  0.2671
   22SAPC   C21 2859   2.194   5.000  10.414 -0.5510 -0.2286 -0.6826
   22SAPC   O22 2860   2.161   5.119  10.412 -0.3969 -0.3230  0.0760
   22SAPC   C22 2861   2.102   4.882  10.377 -0.3584 -0.3020  0.2291
   22SAPC   H2R 2862   2.127   4.796  10.443  0.1817  0.4644  1.0372
   22SAPC   H2S 2863   1.999   4.918  10.395  0.5141  2.3143  0.1978
   22SAPC    C3 2864   2.526   4.996  10.569 -0.0121  0.8455 -0.3859
   22SAPC    HX 2865   2.518   4.904  10.630  2.2337  0.0851 -1.2008
   22SAPC    HY 2866   2.579   5.074  10.627 -1.1394 -0.0328  1.9159
   22SAPC   O31 2867   2.601   4.975  10.447  0.6847  0.4195 -0.2575
   22SAPC   C31 2868   2.574   4.858  10.387  0.3185  0.3069  0.7691
   22SAPC   O32 2869   2.515   4.765  10.435  0.6611 -0.2175  0.3728
   22SAPC   C32 2870   2.627   4.864  10.249  0.8592  0.1629 -0.0526
   22SAPC   H2X 2871   2.715   4.797  10.242 -0.3177 -1.1809 -2.7864
   22SAPC   H2Y 2872   2.632   4.965  10.203 -0.8370  0.8383  1.2333
   22SAPC   C23 2873   2.125   4.842  10.228  0.0296 -0.3286 -0.0266
   22SAPC   H3R 2874   2.235   4.829  10.220  0.1921  0.7268  0.3764
   22SAPC   H3S 2875   2.091   4.925  10.163  1.1528  1.2812  1.4281
   22SAPC   C24 2876   2.069   4.702  10.194  0.7055 -0.3172 -0.1636
   22SAPC   H4R 2877   1.958   4.700  10.188  0.8152 -0.3631 -2.9126
   22SAPC   H4S 2878   2.080   4.640  10.286  2.2047 -0.1797 -0.2416
   22SAPC   C25 2879   2.132   4.634  10.072 -0.0406  0.6625  0.3850
   22SAPC   H5R 2880   2.223   4.574  10.087 -1.3434 -0.9767  1.9057
   22SAPC   C26 2881   2.102   4.653   9.940  0.2512 -0.5942 -0.2373
   22SAPC   H6R 2882   2.157   4.587   9.873 -1.6213 -1.0574 -1.3542
   22SAPC   C27 2883   1.992   4.728   9.874  0.4016 -0.1652  0.0737
   22SAPC   H7R 2884   1.949   4.810   9.934 -1.8764 -1.9248  0.9576
   22SAPC   H7S 2885   1.914   4.652   9.849  1.3625 -0.9273 -0.6401
   22SAPC   C28 2886   2.047   4.777   9.742 -0.3414  0.0056  0.4304
   22SAPC   H8R 2887   2.124   4.855   9.755  2.1364 -2.4122  0.5506
   22SAPC   C29 2888   2.010   4.743   9.623  0.1306  0.2221  0.3513
   22SAPC   H9R 2889   2.064   4.793   9.542 -0.6377  0.5364  0.0262
   22SAPC  C210 2890   1.904   4.645   9.577  0.1490  0.0018 -0.0746
   22SAPC  H10R 2891   1.813   4.659   9.639 -1.4651  0.4607 -2.4382
   22SAPC  H10S 2892   1.937   4.539   9.581 -0.7142 -0.1821  3.4612
   22SAPC  C211 2893   1.859   4.687   9.433 -0.1754 -0.6440 -1.1196
   22SAPC  H11R 2894   1.844   4.793   9.409  2.9450  0.1172  0.1809
   22SAPC  C212 2895   1.843   4.602   9.326 -0.1548 -0.5480  0.8043
   22SAPC  H12R 2896   1.807   4.653   9.236  1.0578  0.9116  1.1373
   22SAPC  C213 2897   1.863   4.450   9.322  0.2888  0.5687 -0.0373
   22SAPC  H13R 2898   1.762   4.406   9.309  0.1153 -0.4155  4.0698
   22SAPC  H13S 2899   1.896   4.416   9.422  0.1268  3.8337  1.1685
   22SAPC  C214 2900   1.962   4.427   9.206  0.0097  0.2343 -0.4003
   22SAPC  H14R 2901   2.065   4.462   9.224  1.2594 -2.5059 -1.8228
   22SAPC  C215 2902   1.943   4.344   9.097  0.0134 -1.0551  0.1836
   22SAPC  H15R 2903   2.028   4.326   9.029 -0.3090 -0.6877 -0.3222
   22SAPC  C216 2904   1.820   4.267   9.064 -0.0987  1.1244  0.0594
   22SAPC  H16R 2905   1.776   4.207   9.147  0.1365  0.6778 -0.1339
   22SAPC  H16S 2906   1.862   4.191   8.995 -2.2469  1.2242 -1.3982
   22SAPC  C217 2907   1.704   4.344   8.986 -0.5147 -0.5903 -0.2263
   22SAPC  H17R 2908   1.701   4.453   9.008 -2.3759 -0.0267 -3.1113
   22SAPC  H17S 2909   1.602   4.315   9.018 -0.7038  0.6059  0.2617
   22SAPC  C218 2910   1.726   4.330   8.840  0.3401 -0.1528 -0.2531
   22SAPC  H18R 2911   1.751   4.225   8.811  1.3224 -0.0884  0.3332
   22SAPC  H18S 2912   1.817   4.386   8.811  0.4292 -0.0137  0.2804
   22SAPC  C219 2913   1.602   4.373   8.757 -0.4957  0.3945  0.3455
   22SAPC  H19R 2914   1.542   4.450   8.810 -1.6384 -0.7180  0.6977
   22SAPC  H19S 2915   1.524   4.293   8.761 -1.0635  1.0292  5.7463
   22SAPC  C220 2916   1.629   4.422   8.611 -0.2783 -0.3034 -0.5979
   22SAPC  H20R 2917   1.542   4.479   8.573 -0.7709 -0.4801  0.2581
   22SAPC  H20S 2918   1.646   4.330   8.552 -0.2665  1.6169 -3.7024
   22SAPC  H20T 2919   1.726   4.477   8.606 -1.2109  1.7126  2.0988
   22SAPC   C33 2920   2.523   4.791  10.160  0.3571  0.5695  0.7820
   22SAPC   H3X 2921   2.447   4.863  10.122  0.6472  0.5416  0.1359
   22SAPC   H3Y 2922   2.481   4.702  10.210 -0.4324 -0.3057 -1.3555
   22SAPC   C34 2923   2.580   4.749  10.024 -0.0419  0.2241 -0.3408
   22SAPC   H4X 2924   2.640   4.659  10.047 -1.7882 -1.1677 -1.1791
   22SAPC   H4Y 2925   2.655   4.818   9.978 -0.2214  1.9320  1.8325
   22SAPC   C35 2926   2.476   4.712   9.919  0.2766  0.3294 -0.3223
   22SAPC   H5X 2927   2.392   4.786   9.927 -1.9835 -2.2103  0.1501
   22SAPC   H5Y 2928   2.440   4.609   9.939 -0.0538  1.0680  3.3707
   22SAPC   C36 2929   2.522   4.726   9.773  0.7804 -0.0364 -0.3223
   22SAPC   H6X 2930   2.603   4.655   9.748  1.2994  0.3474  0.2734
   22SAPC   H6Y 2931   2.565   4.825   9.744 -0.9613  1.2436  1.3463
   22SAPC   C37 2932   2.400   4.699   9.678  0.0144 -0.6565 -0.5345
   22SAPC   H7X 2933   2.323   4.773   9.710 -0.8342 -0.9545 -1.8672
   22SAPC   H7Y 2934   2.364   4.597   9.706  0.5985 -1.1801 -1.6650
   22SAPC   C38 2935   2.409   4.704   9.524  0.2260 -0.1008  0.6416
   22SAPC   H8X 2936   2.427   4.809   9.493 -1.9293 -0.1021 -0.7462
   22SAPC   H8Y 2937   2.305   4.678   9.493  1.2559 -2.1846 -1.2584
   22SAPC   C39 2938   2.519   4.623   9.462 -0.1065  0.2041  0.4947
   22SAPC   H9X 2939   2.490   4.516   9.454 -2.3684  0.6948  1.5450
   22SAPC   H9Y 2940   2.613   4.628   9.521  0.2247 -0.2307 -0.0008
   22SAPC  C310 2941   2.559   4.675   9.321  0.5536 -0.1838  0.0300
   22SAPC  H10X 2942   2.647   4.616   9.290  0.7281  1.4898 -2.8429
   22SAPC  H10Y 2943   2.583   4.783   9.336 -1.6341  0.4002 -0.4575
   22SAPC  C311 2944   2.450   4.621   9.232  0.4409 -0.1759 -0.2346
   22SAPC  H11X 2945   2.350   4.656   9.266  0.5366 -0.3178  0.1906
   22SAPC  H11Y 2946   2.447   4.510   9.241  0.0106 -0.0843  0.8594
   22SAPC  C312 2947   2.462   4.684   9.089 -0.2061 -0.2038 -0.1977
   22SAPC  H12X 2948   2.559   4.652   9.046  0.1063  0.4260  0.0320
   22SAPC  H12Y 2949   2.466   4.795   9.094 -1.7761 -0.1906  1.1211
   22SAPC  C313 2950   2.344   4.630   9.001  0.6857 -0.3083  0.2124
   22SAPC  H13X 2951   2.364   4.677   8.903  2.5924 -0.9917  0.2489
   22SAPC  H13Y 2952   2.242   4.659   9.035  0.3997 -1.6821  0.5708
   22SAPC  C314 2953   2.355   4.479   8.971 -0.1754 -0.0667  0.1660
   22SAPC  H14X 2954   2.261   4.450   8.921 -0.1805 -1.1789  0.7998
   22SAPC  H14Y 2955   2.353   4.418   9.064  1.7715  2.6808  2.0953
   22SAPC  C315 2956   2.476   4.448   8.876 -0.2799 -0.3716  0.0553
   22SAPC  H15X 2957   2.569   4.452   8.938  0.3897 -0.9647 -0.8904
   22SAPC  H15Y 2958   2.490   4.516   8.789  1.3913  0.2909  0.8095
   22SAPC  C316 2959   2.470   4.307   8.821 -0.4950 -0.0910  0.0137
   22SAPC  H16X 2960   2.381   4.288   8.757 -1.5753  0.9420  1.1893
   22SAPC  H16Y 2961   2.451   4.231   8.900 -1.1324 -0.1462 -0.1943
   22SAPC  C317 2962   2.582   4.266   8.732 -1.0733  0.1789  0.0132
   22SAPC  H17X 2963   2.673   4.276   8.795 -0.8190 -0.8502 -0.1700
   22SAPC  H17Y 2964   2.609   4.332   8.646 -0.8808 -0.1270 -0.1616
   22SAPC  C318 2965   2.573   4.124   8.679  0.2558 -0.2213 -0.2126
   22SAPC  H18X 2966   2.513   4.128   8.586  1.3295  1.2079 -0.8755
   22SAPC  H18Y 2967   2.526   4.058   8.755 -1.5576  0.3224 -0.8371
   22SAPC  H18Z 2968   2.672   4.078   8.655 -0.2388 -1.8412  0.7473
   23SAPC     N 2969   3.062   5.415  10.644 -0.2880 -0.0319  0.5959
   23SAPC   C12 2970   3.213   5.417  10.624 -1.0508 -0.2206  0.5984
   23SAPC  H12A 2971   3.248   5.316  10.608 -0.0956  0.1463  0.3299
   23SAPC  H12B 2972   3.256   5.447  10.719  2.0419 -0.9864 -0.4812
   23SAPC   C13 2973   3.028   5.317  10.758  0.6221 -0.9133  0.5807
   23SAPC  H13A 2974   3.064   5.220  10.724  3.2959 -0.1653  1.1354
   23SAPC  H13B 2975   3.078   5.337  10.852 -0.3626  0.8550  0.7413
   23SAPC  H13C 2976   2.921   5.324  10.771  0.5383  4.9304 -1.6992
   23SAPC   C14 2977   2.999   5.546  10.679 -0.0754  0.1912 -0.4979
   23SAPC  H14A 2978   3.035   5.627  10.617  0.1394 -1.9499 -3.3084
   23SAPC  H14B 2979   2.891   5.541  10.681 -0.2002  2.5102  0.3500
   23SAPC  H14C 2980   3.027   5.579  10.778  0.5404 -0.8149 -0.3296
   23SAPC   C15 2981   3.001   5.373  10.513 -0.4407  0.2461 -0.5673
   23SAPC  H15A 2982   2.894   5.384  10.504 -1.0592 -4.9328 -1.3044
   23SAPC  H15B 2983   3.042   5.425  10.428  1.5845  0.5398  0.5736
   23SAPC  H15C 2984   3.014   5.268  10.492  2.6816  0.3434  0.6499
   23SAPC   C11 2985   3.268   5.516  10.523  0.2584  0.4532 -0.1086
   23SAPC  H11A 2986   3.223   5.479  10.428 -2.4360  0.5670  1.0618
   23SAPC  H11B 2987   3.375   5.496  10.505 -0.0177  0.4042 -1.7968
   23SAPC     P 2988   3.288   5.733  10.675 -0.2164  0.0095 -0.0279
   23SAPC   O13 2989   3.181   5.767  10.769  0.2011 -0.2302  0.4095
   23SAPC   O14 2990   3.402   5.657  10.734  0.6568  0.2432  0.0762
   23SAPC   O12 2991   3.233   5.655  10.548 -0.8519 -1.1159 -0.3874
   23SAPC   O11 2992   3.346   5.875  10.620  0.0862  0.4176  0.1568
   23SAPC    C1 2993   3.276   5.951  10.526  0.6507 -0.0193 -0.3633
   23SAPC    HA 2994   3.181   5.904  10.493  1.9234 -3.1712  0.2517
   23SAPC    HB 2995   3.245   6.046  10.575 -3.9595 -1.7548  0.3522
   23SAPC    C2 2996   3.345   5.973  10.394  0.2415  0.3594 -0.3808
   23SAPC    HS 2997   3.301   6.048  10.324  1.9361 -0.7227 -2.6786
   23SAPC   O21 2998   3.385   5.849  10.331  0.2583 -0.0302 -0.2484
   23SAPC   C21 2999   3.292   5.805  10.245  0.1311  0.0802 -0.2619
   23SAPC   O22 3000   3.189   5.864  10.215 -0.5270 -0.0556  0.2563
   23SAPC   C22 3001   3.328   5.669  10.190  0.1864 -0.0382  0.2392
   23SAPC   H2R 3002   3.336   5.603  10.280  0.0505  1.0580  1.0658
   23SAPC   H2S 3003   3.237   5.628  10.141 -0.9732  1.7343  0.8843
   23SAPC    C3 3004   3.472   6.052  10.437  0.7214  0.0042  0.0832
   23SAPC    HX 3005   3.542   5.991  10.498  0.7810  2.1258  2.1969
   23SAPC    HY 3006   3.433   6.138  10.496  0.1075  0.0777 -0.4219
   23SAPC   O31 3007   3.534   6.110  10.318  0.3887 -0.3130 -0.1584
   23SAPC   C31 3008   3.660   6.071  10.298  0.1383 -0.4906 -0.0940
   23SAPC   O32 3009   3.712   5.974  10.356  0.2173  0.9132  0.2514
   23SAPC   C32 3010   3.721   6.158  10.194  1.0849 -0.1457  0.4882
   23SAPC   H2X 3011   3.730   6.262  10.231  1.6895  0.3580 -1.0432
   23SAPC   H2Y 3012   3.660   6.157  10.101  0.6327 -1.3054  0.7861
   23SAPC   C23 3013   3.454   5.664  10.090 -0.0093 -0.6954 -0.3004
   23SAPC   H3R 3014   3.488   5.558  10.081  0.9524 -0.3772 -0.4297
   23SAPC   H3S 3015   3.547   5.711  10.128  0.8146 -2.7597  0.3510
   23SAPC   C24 3016   3.420   5.733   9.956  0.0238 -0.1669  0.6547
   23SAPC   H4R 3017   3.379   5.834   9.976  1.0643  0.0473  1.8345
   23SAPC   H4S 3018   3.340   5.671   9.910  1.5716 -1.9274  0.2640
   23SAPC   C25 3019   3.542   5.744   9.868 -0.0269  0.5920  0.2504
   23SAPC   H5R 3020   3.640   5.751   9.917 -0.8714 -0.4605  2.1422
   23SAPC   C26 3021   3.534   5.737   9.727 -0.2091 -0.5845 -0.0182
   23SAPC   H6R 3022   3.624   5.743   9.664 -0.4649  0.5068 -0.2879
   23SAPC   C27 3023   3.401   5.725   9.656 -0.0091  0.0538  0.0080
   23SAPC   H7R 3024   3.324   5.770   9.722  1.4725  1.8456  0.5562
   23SAPC   H7S 3025   3.379   5.618   9.634 -1.3085  0.5537 -1.2376
   23SAPC   C28 3026   3.404   5.806   9.531 -0.0857  0.0922  0.5266
   23SAPC   H8R 3027   3.467   5.894   9.544  0.0920 -0.0189  0.4142
   23SAPC   C29 3028   3.352   5.787   9.410 -0.2651 -0.1139  0.5057
   23SAPC   H9R 3029   3.362   5.871   9.340 -4.2182  0.0105 -0.0318
   23SAPC  C210 3030   3.291   5.657   9.366  0.4962  0.1411  0.0636
   23SAPC  H10R 3031   3.253   5.592   9.448 -0.9928  1.7544  0.6724
   23SAPC  H10S 3032   3.371   5.599   9.315 -0.0786 -0.4514 -0.1623
   23SAPC  C211 3033   3.172   5.669   9.282  0.5334  0.4345  0.1174
   23SAPC  H11R 3034   3.076   5.677   9.334  0.4542 -1.9864  0.3969
   23SAPC  C212 3035   3.166   5.674   9.148  0.4007 -0.2851  0.0028
   23SAPC  H12R 3036   3.071   5.697   9.098 -0.8503 -0.6856  2.1403
   23SAPC  C213 3037   3.295   5.665   9.071  0.1142  0.2921 -0.5854
   23SAPC  H13R 3038   3.284   5.572   9.010 -0.0866 -1.2295  1.6829
   23SAPC  H13S 3039   3.389   5.671   9.129 -0.4399  1.2025  0.2215
   23SAPC  C214 3040   3.310   5.776   8.975 -0.0974 -0.3564  0.2853
   23SAPC  H14R 3041   3.368   5.865   9.003 -1.0033  1.0448 -2.1365
   23SAPC  C215 3042   3.284   5.760   8.842 -0.3685  0.2602  0.6677
   23SAPC  H15R 3043   3.306   5.843   8.773  0.2948 -0.0168  0.5369
   23SAPC  C216 3044   3.224   5.638   8.776 -0.7910  0.3679  1.1899
   23SAPC  H16R 3045   3.147   5.584   8.836 -2.2490  0.1992 -0.7741
   23SAPC  H16S 3046   3.305   5.566   8.752  0.5862  1.4887  2.3642
   23SAPC  C217 3047   3.157   5.680   8.645  0.2057  0.6192  0.5950
   23SAPC  H17R 3048   3.134   5.593   8.580  1.0401  2.6387 -2.5302
   23SAPC  H17S 3049   3.227   5.742   8.584  0.3822 -1.1771 -1.0946
   23SAPC  C218 3050   3.021   5.748   8.663  0.4303 -0.0172 -0.3858
   23SAPC  H18R 3051   2.987   5.793   8.567 -0.0337  1.0688  0.2793
   23SAPC  H18S 3052   3.024   5.830   8.738  1.9523  0.2825 -0.7627
   23SAPC  C219 3053   2.917   5.653   8.705 -0.5344  0.3062 -0.2687
   23SAPC  H19R 3054   2.943   5.602   8.801  0.4696  0.5600 -0.3974
   23SAPC  H19S 3055   2.909   5.566   8.637  1.2096  0.0529 -0.1786
   23SAPC  C220 3056   2.778   5.697   8.711  0.3154  0.0920  0.7719
   23SAPC  H20R 3057   2.753   5.726   8.607  0.1706 -2.3293  0.0958
   23SAPC  H20S 3058   2.758   5.792   8.766  2.3398  0.1901  1.3664
   23SAPC  H20T 3059   2.704   5.615   8.724  0.5109 -0.6754 -2.5876
   23SAPC   C33 3060   3.863   6.129  10.141  0.4489 -0.0241 -0.2628
   23SAPC   H3X 3061   3.927   6.076  10.214  2.2109  0.3295 -1.5256
   23SAPC   H3Y 3062   3.916   6.224  10.120  1.7625 -0.7641 -0.3646
   23SAPC   C34 3063   3.883   6.047  10.006 -0.6780  0.3278 -0.4317
   23SAPC   H4X 3064   3.799   6.077   9.940 -0.1956  0.9603 -0.7632
   23SAPC   H4Y 3065   3.885   5.939  10.031  0.2093  0.2385 -0.8901
   23SAPC   C35 3066   4.011   6.083   9.933  0.3480  0.1000 -0.5154
   23SAPC   H5X 3067   4.103   6.076   9.994 -1.5111 -1.5464  2.2119
   23SAPC   H5Y 3068   3.998   6.190   9.907 -1.1644 -0.2346 -1.2133
   23SAPC   C36 3069   4.034   5.998   9.808 -0.2737 -0.2111 -0.0034
   23SAPC   H6X 3070   4.068   5.897   9.839 -0.1659  0.2907  1.5583
   23SAPC   H6Y 3071   4.122   6.047   9.762 -0.0924 -0.0010  0.5551
   23SAPC   C37 3072   3.917   5.962   9.713  0.3901  0.1793  0.1664
   23SAPC   H7X 3073   3.862   6.057   9.694 -0.2042 -0.2134 -0.0909
   23SAPC   H7Y 3074   3.854   5.891   9.771  1.3585 -1.0399 -0.2615
   23SAPC   C38 3075   3.955   5.898   9.588 -0.2554  0.7791 -0.6532
   23SAPC   H8X 3076   4.026   5.815   9.604 -0.4405  1.0217  1.6554
   23SAPC   H8Y 3077   4.009   5.969   9.522 -0.7205  0.6012 -1.2288
   23SAPC   C39 3078   3.840   5.831   9.514  0.3491  0.7070 -0.6422
   23SAPC   H9X 3079   3.772   5.919   9.502  0.4929  0.6782 -1.7411
   23SAPC   H9Y 3080   3.783   5.750   9.564  2.0653  0.5334  1.0814
   23SAPC  C310 3081   3.876   5.800   9.368  0.7229  0.2693  0.1111
   23SAPC  H10X 3082   3.937   5.707   9.369  0.7093  0.2612  0.1661
   23SAPC  H10Y 3083   3.944   5.879   9.331 -0.6263  1.3588 -0.0909
   23SAPC  C311 3084   3.758   5.775   9.280  0.1587 -0.3964  0.1363
   23SAPC  H11X 3085   3.686   5.860   9.282 -0.6571 -1.0506 -0.8561
   23SAPC  H11Y 3086   3.709   5.681   9.313  1.9424 -1.0696  0.9438
   23SAPC  C312 3087   3.793   5.754   9.129 -0.4703 -0.0050  0.2013
   23SAPC  H12X 3088   3.880   5.685   9.122  1.2836  2.2199 -0.2954
   23SAPC  H12Y 3089   3.819   5.855   9.090  1.2364 -0.7356 -0.5927
   23SAPC  C313 3090   3.669   5.702   9.048 -0.0692  0.0334  0.8246
   23SAPC  H13X 3091   3.582   5.772   9.052  0.3817  0.6309  0.1574
   23SAPC  H13Y 3092   3.635   5.610   9.100  0.5592 -0.5569  0.1938
   23SAPC  C314 3093   3.702   5.678   8.901 -0.9978 -0.2740  0.4232
   23SAPC  H14X 3094   3.624   5.608   8.864 -2.0024  1.2996 -0.5008
   23SAPC  H14Y 3095   3.795   5.618   8.902  0.9337  2.5577 -1.7508
   23SAPC  C315 3096   3.724   5.802   8.817 -0.2761 -0.3243 -0.4036
   23SAPC  H15X 3097   3.819   5.843   8.858 -0.5372 -0.5849  0.4685
   23SAPC  H15Y 3098   3.646   5.877   8.842 -0.9887 -1.5181  1.0072
   23SAPC  C316 3099   3.729   5.788   8.669  0.5063 -0.6356  0.9067
   23SAPC  H16X 3100   3.819   5.730   8.641 -1.8108 -2.5878 -2.8695
   23SAPC  H16Y 3101   3.733   5.893   8.633  0.5979 -0.4605  1.4246
   23SAPC  C317 3102   3.606   5.718   8.613  0.2923  0.0365  0.1748
   23SAPC  H17X 3103   3.525   5.758   8.677  1.3375  2.1079  0.2475
   23SAPC  H17Y 3104   3.617   5.609   8.632  1.7547 -0.0007 -0.7753
   23SAPC  C318 3105   3.566   5.741   8.462  0.6545 -0.3292  0.0142
   23SAPC  H18X 3106   3.551   5.849   8.444  0.0118 -0.7184 -1.8854
   23SAPC  H18Y 3107   3.478   5.678   8.437 -0.1440 -0.2003  2.4355
   23SAPC  H18Z 3108   3.648   5.702   8.397 -0.0289  2.1666 -2.4333
   24SAPC     N 3109   6.071   6.713  11.105 -0.1721 -0.8427 -0.5775
   24SAPC   C12 3110   6.102   6.865  11.108 -0.3710 -0.0151  0.0146
   24SAPC  H12A 3111   6.207   6.857  11.087  0.0640  1.4782  1.5310
   24SAPC  H12B 3112   6.082   6.896  11.210  2.0163 -2.7349  1.3941
   24SAPC   C13 3113   5.928   6.691  11.139 -0.3548  0.6785 -0.2489
   24SAPC  H13A 3114   5.873   6.727  11.052  3.0402 -2.1970 -3.7361
   24SAPC  H13B 3115   5.916   6.585  11.157  0.5476  0.2784 -1.9105
   24SAPC  H13C 3116   5.892   6.732  11.232  0.6413 -3.0944  1.8874
   24SAPC   C14 3117   6.101   6.663  10.969  0.1385  0.4366  0.1999
   24SAPC  H14A 3118   6.022   6.692  10.901  1.2892  0.4348 -1.1405
   24SAPC  H14B 3119   6.200   6.691  10.936  0.7222  0.3009  1.7697
   24SAPC  H14C 3120   6.117   6.557  10.970 -0.4153  0.3490 -0.0702
   24SAPC   C15 3121   6.150   6.628  11.208  0.6301  0.0187  0.4625
   24SAPC  H15A 3122   6.121   6.524  11.210 -0.6011  0.3406 -0.4027
   24SAPC  H15B 3123   6.254   6.614  11.182  0.6278 -0.4619  0.6935
   24SAPC  H15C 3124   6.140   6.657  11.311  3.5905 -1.3380  1.1891
   24SAPC   C11 3125   6.038   6.957  11.002  0.0472 -0.3492 -0.1172
   24SAPC  H11A 3126   6.074   6.926  10.901 -1.1597 -0.9995 -0.3490
   24SAPC  H11B 3127   6.083   7.059  11.006 -0.0331 -0.2752 -0.9236
   24SAPC     P 3128   5.832   7.048  11.125 -0.6181  0.1004  0.0957
   24SAPC   O13 3129   5.690   7.008  11.141  0.0258  0.3061  0.5452
   24SAPC   O14 3130   5.905   7.031  11.250  0.0719  0.7838  0.2043
   24SAPC   O12 3131   5.891   6.961  11.007  1.1177 -0.1608  0.2033
   24SAPC   O11 3132   5.842   7.193  11.073 -0.0439  0.3981  0.3364
   24SAPC    C1 3133   5.766   7.238  10.958  0.2018 -0.5400  0.5937
   24SAPC    HA 3134   5.663   7.200  10.975 -0.0569 -0.3852 -0.5711
   24SAPC    HB 3135   5.749   7.348  10.954  0.2019 -0.3869  3.7421
   24SAPC    C2 3136   5.823   7.195  10.822 -0.0949  0.5737  0.4964
   24SAPC    HS 3137   5.831   7.084  10.825  1.1116  0.5826 -1.6462
   24SAPC   O21 3138   5.953   7.258  10.795 -0.8815  0.5052 -0.3356
   24SAPC   C21 3139   6.040   7.187  10.729  0.0556 -0.1806  0.4331
   24SAPC   O22 3140   6.034   7.068  10.710  0.1161  0.8090  0.0037
   24SAPC   C22 3141   6.151   7.281  10.688  0.0980  0.1604 -0.2128
   24SAPC   H2R 3142   6.177   7.336  10.781 -0.0819  2.7562 -1.6465
   24SAPC   H2S 3143   6.237   7.216  10.661 -0.2884 -1.1461  1.5826
   24SAPC    C3 3144   5.727   7.244  10.711  0.8649 -0.4558  0.3686
   24SAPC    HX 3145   5.698   7.350  10.726  0.7009 -0.5456  0.6902
   24SAPC    HY 3146   5.629   7.196  10.730 -0.8917  3.1933  0.7560
   24SAPC   O31 3147   5.770   7.210  10.571 -0.9268  0.2528 -0.2320
   24SAPC   C31 3148   5.744   7.081  10.535 -0.3437  0.8293  0.4891
   24SAPC   O32 3149   5.690   6.995  10.598 -0.0190  0.6983 -0.5593
   24SAPC   C32 3150   5.808   7.056  10.393 -0.4979 -0.7570  0.0192
   24SAPC   H2X 3151   5.917   7.037  10.403 -0.4250 -1.6868 -2.3021
   24SAPC   H2Y 3152   5.794   7.150  10.335  3.1555 -0.4501 -0.5230
   24SAPC   C23 3153   6.109   7.380  10.584  0.1683 -0.2925 -0.2944
   24SAPC   H3R 3154   6.189   7.456  10.573  0.4855 -0.0880  2.9687
   24SAPC   H3S 3155   6.020   7.428  10.628 -0.4872  0.2486 -2.1898
   24SAPC   C24 3156   6.094   7.309  10.444 -0.2028 -0.3691  1.2869
   24SAPC   H4R 3157   6.032   7.218  10.459 -0.3148 -0.4143  0.5593
   24SAPC   H4S 3158   6.193   7.266  10.420 -0.5087 -0.2672 -0.2064
   24SAPC   C25 3159   6.045   7.408  10.340  0.5141 -0.4709  0.4528
   24SAPC   H5R 3160   5.998   7.500  10.378 -0.9480 -0.5988 -1.0159
   24SAPC   C26 3161   6.057   7.394  10.209 -0.1937  0.7522 -0.2613
   24SAPC   H6R 3162   6.015   7.480  10.155 -2.2697 -1.2004 -1.9009
   24SAPC   C27 3163   6.118   7.273  10.138  0.4429 -1.0939 -0.9559
   24SAPC   H7R 3164   6.147   7.190  10.205  0.3522  0.9088  1.6438
   24SAPC   H7S 3165   6.212   7.306  10.088  1.1085  1.0463  1.5965
   24SAPC   C28 3166   6.026   7.222  10.030 -0.4870  0.3941  0.2231
   24SAPC   H8R 3167   5.947   7.154  10.063  0.3650 -0.1263  1.2215
   24SAPC   C29 3168   6.035   7.259   9.897 -0.3966  0.0360 -0.3306
   24SAPC   H9R 3169   5.959   7.213   9.833 -2.6638  0.7097  1.7802
   24SAPC  C210 3170   6.133   7.349   9.829 -0.8695 -0.2796  0.2129
   24SAPC  H10R 3171   6.187   7.277   9.764 -0.9640  0.4740 -0.7170
   24SAPC  H10S 3172   6.212   7.384   9.899  0.4456 -0.7636 -0.9952
   24SAPC  C211 3173   6.070   7.465   9.753  0.2109  0.8481  0.3205
   24SAPC  H11R 3174   6.073   7.566   9.797 -2.4827  2.0533 -2.0972
   24SAPC  C212 3175   6.011   7.447   9.634  0.1918 -0.2419  0.3368
   24SAPC  H12R 3176   5.951   7.532   9.598  0.0242  0.1402  1.4950
   24SAPC  C213 3177   5.999   7.322   9.546 -0.4962  0.4267  0.0021
   24SAPC  H13R 3178   6.080   7.248   9.564 -1.0493 -0.1848 -0.0231
   24SAPC  H13S 3179   6.032   7.351   9.443  2.6312  2.1101  1.3919
   24SAPC  C214 3180   5.859   7.266   9.540  0.5982 -0.0399  0.5923
   24SAPC  H14R 3181   5.814   7.237   9.636 -0.4809 -0.1947  0.0407
   24SAPC  C215 3182   5.772   7.288   9.444  0.4722 -0.8380  0.5247
   24SAPC  H15R 3183   5.673   7.240   9.449  1.1056 -2.0205  1.9409
   24SAPC  C216 3184   5.798   7.361   9.314  0.4788 -0.3117  0.8517
   24SAPC  H16R 3185   5.902   7.393   9.293  0.3511 -0.5401 -0.1770
   24SAPC  H16S 3186   5.727   7.446   9.320 -0.4059 -0.9321 -0.3858
   24SAPC  C217 3187   5.756   7.290   9.177 -0.2410  0.0896 -0.6954
   24SAPC  H17R 3188   5.717   7.370   9.111 -0.9761  0.0260 -0.3473
   24SAPC  H17S 3189   5.665   7.229   9.197 -0.3049  0.8494  1.4912
   24SAPC  C218 3190   5.879   7.213   9.122  0.2577 -0.5677  0.3788
   24SAPC  H18R 3191   5.938   7.158   9.198  0.2159  0.1649  0.9472
   24SAPC  H18S 3192   5.949   7.297   9.099 -2.3862  2.3440  2.4343
   24SAPC  C219 3193   5.837   7.142   8.994  0.0842  0.2234 -0.1731
   24SAPC  H19R 3194   5.802   7.217   8.920 -0.0117  0.0433 -0.3117
   24SAPC  H19S 3195   5.750   7.075   9.010  0.7473 -0.1314  2.0952
   24SAPC  C220 3196   5.947   7.063   8.929 -0.7675  0.3838  0.3578
   24SAPC  H20R 3197   5.896   7.001   8.853  1.3276 -2.3584  1.0996
   24SAPC  H20S 3198   5.996   7.004   9.010 -0.6370  1.3562  0.9961
   24SAPC  H20T 3199   6.023   7.126   8.877  0.5709 -1.3615  0.1699
   24SAPC   C33 3200   5.733   6.931  10.321  0.5564  0.6013  0.4369
   24SAPC   H3X 3201   5.743   6.843  10.389  0.7645  0.8613  0.7406
   24SAPC   H3Y 3202   5.787   6.904  10.227  1.6175  1.6059  0.7547
   24SAPC   C34 3203   5.585   6.975  10.286 -0.1608  0.5076 -0.1683
   24SAPC   H4X 3204   5.586   7.086  10.278 -1.5101  0.6134  1.0514
   24SAPC   H4Y 3205   5.521   6.942  10.370  1.6731  0.2986  1.1843
   24SAPC   C35 3206   5.531   6.920  10.148  0.5408 -0.0634 -0.6426
   24SAPC   H5X 3207   5.423   6.893  10.147  0.5693 -0.1776 -0.6246
   24SAPC   H5Y 3208   5.589   6.826  10.137  0.4258 -0.1783 -0.2520
   24SAPC   C36 3209   5.562   7.017  10.029 -0.3453 -0.6758  0.7024
   24SAPC   H6X 3210   5.670   7.042  10.031 -0.8145  1.5306  0.1519
   24SAPC   H6Y 3211   5.502   7.111  10.034  1.4390  0.4488  1.8533
   24SAPC   C37 3212   5.532   6.945   9.893 -0.8000 -0.1879 -0.1752
   24SAPC   H7X 3213   5.532   7.023   9.814 -0.3256 -0.4750 -0.4583
   24SAPC   H7Y 3214   5.441   6.881   9.901 -0.3701 -1.3558 -3.8248
   24SAPC   C38 3215   5.654   6.860   9.849 -0.2534  0.3551 -0.4089
   24SAPC   H8X 3216   5.619   6.810   9.756 -0.3354 -3.9478  1.7949
   24SAPC   H8Y 3217   5.682   6.774   9.915  1.7746  1.4624  0.2119
   24SAPC   C39 3218   5.782   6.932   9.820 -0.6399 -0.7172  0.9731
   24SAPC   H9X 3219   5.828   6.971   9.914 -0.7566  1.2450  0.2323
   24SAPC   H9Y 3220   5.770   7.011   9.743  1.4783 -1.9103 -0.6299
   24SAPC  C310 3221   5.883   6.838   9.743  0.7860 -0.3043  0.0999
   24SAPC  H10X 3222   5.835   6.798   9.652  1.7331  0.7601 -0.8770
   24SAPC  H10Y 3223   5.891   6.749   9.808  0.0360 -0.7202 -0.3685
   24SAPC  C311 3224   6.013   6.909   9.716 -0.9043 -0.0854 -0.3780
   24SAPC  H11X 3225   6.055   6.950   9.810 -0.4322  0.9809 -1.0388
   24SAPC  H11Y 3226   5.994   7.002   9.657  1.2648 -0.6345 -2.0478
   24SAPC  C312 3227   6.113   6.827   9.630 -0.1713 -0.0763  0.2271
   24SAPC  H12X 3228   6.147   6.741   9.692  0.1226 -0.2412 -0.1560
   24SAPC  H12Y 3229   6.197   6.895   9.604 -0.4270 -1.2548 -4.0778
   24SAPC  C313 3230   6.066   6.767   9.493 -0.1049  0.2166 -0.5845
   24SAPC  H13X 3231   5.976   6.704   9.510  0.7064 -0.3410  1.8970
   24SAPC  H13Y 3232   6.147   6.704   9.450 -2.5101 -2.0241 -2.0025
   24SAPC  C314 3233   6.028   6.878   9.397  0.0885 -0.6831  0.4553
   24SAPC  H14X 3234   6.119   6.937   9.371  0.8138 -1.7663  0.5326
   24SAPC  H14Y 3235   5.963   6.955   9.445 -0.5278 -0.4859 -0.6624
   24SAPC  C315 3236   5.968   6.846   9.262 -0.4528 -0.6056 -0.3640
   24SAPC  H15X 3237   5.920   6.932   9.209 -2.5620 -0.0335  2.3754
   24SAPC  H15Y 3238   5.891   6.771   9.290  0.5766 -0.3282  3.3970
   24SAPC  C316 3239   6.075   6.778   9.169  0.2357 -0.2628 -0.0377
   24SAPC  H16X 3240   6.126   6.713   9.244 -0.8750  0.6129  1.5133
   24SAPC  H16Y 3241   6.160   6.836   9.126  1.4704 -2.3348 -0.4797
   24SAPC  C317 3242   6.009   6.702   9.051 -0.4531  0.1111 -0.2514
   24SAPC  H17X 3243   6.018   6.758   8.956  0.5213 -2.0345 -1.4695
   24SAPC  H17Y 3244   5.901   6.687   9.074 -0.5496  0.3022 -0.5880
   24SAPC  C318 3245   6.070   6.566   9.035 -0.2056 -0.5266  0.2572
   24SAPC  H18X 3246   5.992   6.490   9.010 -1.9964  1.4526 -0.2800
   24SAPC  H18Y 3247   6.130   6.511   9.111  2.2053 -0.6413 -1.6388
   24SAPC  H18Z 3248   6.142   6.563   8.950 -0.2556 -1.2804  0.2339
   25SAPC     N 3249   2.326   4.730   5.739 -0.4914 -0.3321 -0.2785
   25SAPC   C12 3250   2.248   4.756   5.873 -0.3416  0.6673  1.0520
   25SAPC  H12A 3251   2.167   4.685   5.866  0.5437 -0.2267 -0.5194
   25SAPC  H12B 3252   2.211   4.857   5.866 -0.1748  1.0124  4.2883
   25SAPC   C13 3253   2.372   4.592   5.730 -0.1103  0.1574 -0.4496
   25SAPC  H13A 3254   2.426   4.567   5.820 -2.4585  0.7879  1.1609
   25SAPC  H13B 3255   2.288   4.525   5.722  0.2127 -0.3056  0.0084
   25SAPC  H13C 3256   2.434   4.585   5.641  0.4676  0.9171 -0.1221
   25SAPC   C14 3257   2.226   4.744   5.626 -0.1645 -0.4979 -0.2791
   25SAPC  H14A 3258   2.182   4.842   5.627 -0.5840 -0.6824 -0.5317
   25SAPC  H14B 3259   2.278   4.717   5.534  1.1197 -0.7156  0.4971
   25SAPC  H14C 3260   2.142   4.677   5.634 -0.0067 -0.7218 -0.4608
   25SAPC   C15 3261   2.441   4.828   5.724  0.6084  0.3332 -0.5355
   25SAPC  H15A 3262   2.406   4.926   5.752 -1.5010 -0.5084 -0.0833
   25SAPC  H15B 3263   2.525   4.798   5.785  1.7915  0.3581 -2.1458
   25SAPC  H15C 3264   2.468   4.827   5.620  2.4823 -0.1669 -0.0691
   25SAPC   C11 3265   2.326   4.747   6.006  0.7856  0.3084  0.0461
   25SAPC  H11A 3266   2.262   4.776   6.092 -0.4949 -0.6647 -0.5700
   25SAPC  H11B 3267   2.409   4.820   6.000  1.4625 -0.4875 -0.3252
   25SAPC     P 3268   2.306   4.507   6.109 -0.3007 -0.1058  0.3387
   25SAPC   O13 3269   2.167   4.476   6.071  0.3433 -0.2823 -0.1651
   25SAPC   O14 3270   2.395   4.390   6.116  0.2181  0.1662 -0.2045
   25SAPC   O12 3271   2.380   4.624   6.021 -0.1470  0.2658  0.0889
   25SAPC   O11 3272   2.314   4.560   6.251 -0.2300 -0.2823 -0.0087
   25SAPC    C1 3273   2.422   4.628   6.304 -0.2160  0.6126 -0.4088
   25SAPC    HA 3274   2.490   4.552   6.348 -0.5596  1.0032  0.8281
   25SAPC    HB 3275   2.485   4.683   6.230  0.8097  0.5176  0.3718
   25SAPC    C2 3276   2.380   4.718   6.423  0.4886  0.5374  0.1322
   25SAPC    HS 3277   2.472   4.772   6.454  1.5058 -0.4452 -1.1297
   25SAPC   O21 3278   2.329   4.648   6.535  0.2901 -0.1889 -0.4821
   25SAPC   C21 3279   2.413   4.584   6.606 -1.2577  0.4393 -0.0087
   25SAPC   O22 3280   2.533   4.578   6.588  0.2172  0.4495 -0.0561
   25SAPC   C22 3281   2.341   4.518   6.720  0.5671 -0.0929  0.6124
   25SAPC   H2R 3282   2.242   4.563   6.742  0.8161 -0.8309  3.5175
   25SAPC   H2S 3283   2.327   4.410   6.699 -0.6064  0.3762 -1.1300
   25SAPC    C3 3284   2.275   4.821   6.373  0.3296  0.4358 -0.4709
   25SAPC    HX 3285   2.197   4.769   6.314  1.3496 -2.6200  0.7867
   25SAPC    HY 3286   2.325   4.875   6.290 -1.5428  0.5310 -1.5665
   25SAPC   O31 3287   2.223   4.917   6.472 -0.4456 -0.3995  0.1287
   25SAPC   C31 3288   2.116   4.877   6.543 -0.2461  0.2695 -0.1060
   25SAPC   O32 3289   2.053   4.779   6.519 -0.3952  0.1499  0.1039
   25SAPC   C32 3290   2.094   4.978   6.653  0.0932 -0.2669  0.1883
   25SAPC   H2X 3291   2.004   4.954   6.714 -1.6864  0.4962 -2.0922
   25SAPC   H2Y 3292   2.072   5.081   6.618 -2.1018 -0.6562  0.3102
   25SAPC   C23 3293   2.427   4.534   6.848 -0.5058 -0.7506  0.6069
   25SAPC   H3R 3294   2.525   4.484   6.839 -0.3122 -0.4187  0.8711
   25SAPC   H3S 3295   2.384   4.476   6.932 -0.5657 -0.1288  1.0124
   25SAPC   C24 3296   2.431   4.676   6.904  0.4950 -0.8308  0.0045
   25SAPC   H4R 3297   2.324   4.703   6.916  0.7572 -0.2538  1.0719
   25SAPC   H4S 3298   2.473   4.744   6.827  0.3813  1.4401  1.9021
   25SAPC   C25 3299   2.507   4.692   7.028  0.1208  0.4869 -0.3845
   25SAPC   H5R 3300   2.617   4.685   7.022  0.1388  0.5828 -0.1725
   25SAPC   C26 3301   2.445   4.705   7.149 -0.1098 -0.0337 -0.5773
   25SAPC   H6R 3302   2.518   4.722   7.229 -0.6931 -1.2310  0.2249
   25SAPC   C27 3303   2.300   4.707   7.186 -0.7590 -0.0576  0.2781
   25SAPC   H7R 3304   2.241   4.781   7.127  1.5947  0.0866 -1.9663
   25SAPC   H7S 3305   2.288   4.744   7.290 -3.8766 -1.3898  0.4793
   25SAPC   C28 3306   2.235   4.563   7.186  0.0282  0.8371  0.8348
   25SAPC   H8R 3307   2.299   4.478   7.212 -0.1962  0.7367  1.0576
   25SAPC   C29 3308   2.112   4.527   7.149 -0.1535 -0.0957 -0.6228
   25SAPC   H9R 3309   2.080   4.423   7.164 -0.8624  0.0996 -0.7224
   25SAPC  C210 3310   2.002   4.617   7.088  0.4603 -0.7763 -0.5807
   25SAPC  H10R 3311   2.035   4.722   7.072  1.0314 -1.0505 -1.2403
   25SAPC  H10S 3312   1.919   4.632   7.159  0.6288 -3.1674  0.1802
   25SAPC  C211 3313   1.966   4.561   6.949  0.0504  0.4907  0.5207
   25SAPC  H11R 3314   2.044   4.578   6.874  1.5536  0.4563  2.0506
   25SAPC  C212 3315   1.858   4.491   6.909 -0.3693  0.7969 -0.2559
   25SAPC  H12R 3316   1.861   4.452   6.807 -0.8029  0.8234 -0.2784
   25SAPC  C213 3317   1.734   4.465   6.994  0.1831  0.2621  0.0962
   25SAPC  H13R 3318   1.753   4.485   7.102  0.3469 -0.1928  0.1480
   25SAPC  H13S 3319   1.735   4.354   6.997 -1.0646  0.1367 -2.5649
   25SAPC  C214 3320   1.596   4.518   6.962 -0.0376  0.1289  0.3502
   25SAPC  H14R 3321   1.594   4.624   6.933  1.3630 -0.1402 -0.8289
   25SAPC  C215 3322   1.486   4.450   6.964  0.7103  0.5609 -0.0202
   25SAPC  H15R 3323   1.390   4.502   6.948  0.0811 -0.2682  1.0049
   25SAPC  C216 3324   1.467   4.311   7.022  0.1923  0.3038 -0.8179
   25SAPC  H16R 3325   1.564   4.272   7.060 -0.4037 -0.0598  0.3350
   25SAPC  H16S 3326   1.435   4.250   6.935  1.5173 -0.3840 -0.8285
   25SAPC  C217 3327   1.370   4.288   7.138 -0.0853  0.3807 -0.1898
   25SAPC  H17R 3328   1.369   4.177   7.152  4.1996  0.1265 -1.3565
   25SAPC  H17S 3329   1.269   4.332   7.120  0.6516  1.2715 -2.1809
   25SAPC  C218 3330   1.426   4.342   7.269 -0.8666  0.2446  0.2258
   25SAPC  H18R 3331   1.474   4.441   7.256  1.2669 -0.5883  1.3710
   25SAPC  H18S 3332   1.502   4.267   7.299  1.4349  2.1547 -0.7231
   25SAPC  C219 3333   1.313   4.368   7.377 -0.3715 -0.0913  0.1299
   25SAPC  H19R 3334   1.235   4.435   7.334  0.7263  2.0250  1.3883
   25SAPC  H19S 3335   1.355   4.424   7.463  1.6777 -0.9547 -0.2901
   25SAPC  C220 3336   1.249   4.244   7.428 -0.4087  0.2507 -0.5809
   25SAPC  H20R 3337   1.316   4.175   7.483 -0.3590  1.6950  1.2031
   25SAPC  H20S 3338   1.201   4.194   7.341  0.3715 -1.8364  0.1702
   25SAPC  H20T 3339   1.166   4.273   7.495  0.8686  1.5258  0.4721
   25SAPC   C33 3340   2.218   4.977   6.750  0.4658 -0.1303 -0.1254
   25SAPC   H3X 3341   2.319   4.982   6.704  1.3473  1.1795  1.8757
   25SAPC   H3Y 3342   2.215   4.879   6.801  2.2972  0.2171  0.6862
   25SAPC   C34 3343   2.212   5.096   6.842 -0.0611  0.7623  0.2639
   25SAPC   H4X 3344   2.122   5.073   6.903 -0.4102 -0.4955 -0.7134
   25SAPC   H4Y 3345   2.210   5.194   6.791  1.5325  0.0454 -1.2216
   25SAPC   C35 3346   2.342   5.096   6.930 -1.1152 -0.1217 -0.0346
   25SAPC   H5X 3347   2.426   5.126   6.865 -0.4376 -1.0431  0.4094
   25SAPC   H5Y 3348   2.353   4.995   6.977  1.8447  0.1656 -0.0518
   25SAPC   C36 3349   2.338   5.193   7.048 -0.2964 -0.1860  0.3831
   25SAPC   H6X 3350   2.264   5.179   7.129  0.8895  0.1589  1.5368
   25SAPC   H6Y 3351   2.329   5.299   7.015 -0.4568  1.3526  5.0700
   25SAPC   C37 3352   2.469   5.190   7.123  0.4591  0.2790  0.2273
   25SAPC   H7X 3353   2.488   5.294   7.159  0.5812  0.5470 -0.6071
   25SAPC   H7Y 3354   2.554   5.180   7.052 -0.7902 -3.5484 -0.8683
   25SAPC   C38 3355   2.466   5.091   7.236 -0.3411  0.3342  0.3177
   25SAPC   H8X 3356   2.556   5.028   7.252 -1.0015 -0.2698  1.8199
   25SAPC   H8Y 3357   2.379   5.026   7.214 -0.0800  0.3059 -0.6121
   25SAPC   C39 3358   2.451   5.154   7.378  0.2571  0.1468 -0.5938
   25SAPC   H9X 3359   2.356   5.210   7.373  0.7309  0.9975 -0.3035
   25SAPC   H9Y 3360   2.532   5.226   7.403 -0.0791 -0.6363  3.0615
   25SAPC  C310 3361   2.434   5.057   7.491  0.5155  0.2836  0.0624
   25SAPC  H10X 3362   2.528   4.998   7.497  1.0867  1.2126  0.2523
   25SAPC  H10Y 3363   2.350   4.990   7.463  0.4108  0.1800  0.6293
   25SAPC  C311 3364   2.393   5.100   7.629 -0.2005  0.0938 -0.9500
   25SAPC  H11X 3365   2.397   5.009   7.693 -1.5908  1.1861  0.7109
   25SAPC  H11Y 3366   2.289   5.136   7.639 -0.1359  0.0830 -0.2483
   25SAPC  C312 3367   2.479   5.211   7.686  0.1874  0.2618  0.3346
   25SAPC  H12X 3368   2.458   5.310   7.642  0.4464  0.9686  1.7825
   25SAPC  H12Y 3369   2.586   5.179   7.679  0.3912  0.7294  1.2115
   25SAPC  C313 3370   2.461   5.234   7.838 -0.1727 -0.1261  0.2216
   25SAPC  H13X 3371   2.463   5.139   7.897  0.3906  1.1041  2.2304
   25SAPC  H13Y 3372   2.359   5.270   7.861 -1.6948 -2.0185 -3.2333
   25SAPC  C314 3373   2.565   5.338   7.885  0.2770 -0.2171  0.3013
   25SAPC  H14X 3374   2.544   5.434   7.833 -1.4589 -1.2641 -1.0173
   25SAPC  H14Y 3375   2.661   5.294   7.851  0.6785 -0.8990  2.2243
   25SAPC  C315 3376   2.558   5.352   8.037 -0.5815 -0.5663  0.7738
   25SAPC  H15X 3377   2.449   5.357   8.057 -0.5970 -1.0638  0.8204
   25SAPC  H15Y 3378   2.603   5.448   8.070 -1.4369 -0.1259  0.6536
   25SAPC  C316 3379   2.606   5.237   8.122 -0.6162 -0.6543  0.3080
   25SAPC  H16X 3380   2.715   5.221   8.108 -0.5937 -0.5533  0.3672
   25SAPC  H16Y 3381   2.559   5.142   8.089 -1.5851 -0.2247  0.4564
   25SAPC  C317 3382   2.590   5.271   8.275 -0.4608 -0.1794 -0.3255
   25SAPC  H17X 3383   2.488   5.312   8.287  0.5044  1.6707  1.7757
   25SAPC  H17Y 3384   2.672   5.341   8.302 -1.2409  0.6921 -0.1984
   25SAPC  C318 3385   2.595   5.152   8.368  0.1954 -0.1478 -0.2857
   25SAPC  H18X 3386   2.582   5.196   8.470  0.6579  2.0403 -1.1392
   25SAPC  H18Y 3387   2.683   5.085   8.361 -0.3003 -1.1635  2.5928
   25SAPC  H18Z 3388   2.502   5.096   8.342 -0.6997  1.7365 -1.2770
   26SAPC     N 3389   1.626   0.133   5.938 -1.0885 -0.0340 -0.7041
   26SAPC   C12 3390   1.621   0.176   6.087  0.3837  0.6280  0.7662
   26SAPC  H12A 3391   1.536   0.240   6.104 -0.7956  0.0990 -2.9051
   26SAPC  H12B 3392   1.711   0.235   6.098  2.5944 -2.0682 -2.0366
   26SAPC   C13 3393   1.497   0.077   5.897  0.6201  0.0665  0.5379
   26SAPC  H13A 3394   1.490   0.066   5.790  3.0865 -3.8365  0.6868
   26SAPC  H13B 3395   1.492  -0.024   5.935 -0.3864  0.2436  0.8867
   26SAPC  H13C 3396   1.412   0.131   5.936 -0.7668 -0.8343 -1.2047
   26SAPC   C14 3397   1.643   0.249   5.844  0.0286  0.1821 -0.0354
   26SAPC  H14A 3398   1.747   0.278   5.849 -0.6331  2.4474  0.8532
   26SAPC  H14B 3399   1.625   0.214   5.744 -0.1208 -1.3614  0.5141
   26SAPC  H14C 3400   1.583   0.334   5.869 -0.7894 -0.5473  0.5118
   26SAPC   C15 3401   1.731   0.031   5.913 -0.4421 -0.7658 -0.4302
   26SAPC  H15A 3402   1.710  -0.009   5.815  3.3445  2.2324 -2.6020
   26SAPC  H15B 3403   1.830   0.075   5.909 -0.0964 -1.3418  1.4073
   26SAPC  H15C 3404   1.725  -0.050   5.985  0.2949  0.3433  0.8903
   26SAPC   C11 3405   1.620   0.071   6.197 -0.2936 -0.6655 -0.4849
   26SAPC  H11A 3406   1.653   0.120   6.291 -1.7688 -1.2825  0.3787
   26SAPC  H11B 3407   1.700  -0.005   6.182 -1.4068 -1.5136 -2.3089
   26SAPC     P 3408   1.368   0.079   6.275  0.2724  0.1549  0.4462
   26SAPC   O13 3409   1.387   0.222   6.271 -0.7654 -0.8946  0.4021
   26SAPC   O14 3410   1.247   0.019   6.218 -0.2178 -0.5514 -0.2140
   26SAPC   O12 3411   1.498   0.006   6.225  0.0090 -0.3346 -0.0397
   26SAPC   O11 3412   1.362   0.041   6.422 -0.3744  0.0985 -0.5277
   26SAPC    C1 3413   1.476   0.067   6.506 -1.0788 -0.3941 -0.0942
   26SAPC    HA 3414   1.557  -0.005   6.483 -1.1398 -1.2616  2.2493
   26SAPC    HB 3415   1.515   0.170   6.490  1.6967 -1.9398 -4.1124
   26SAPC    C2 3416   1.454   0.050   6.657 -0.3018 -0.4559  0.2335
   26SAPC    HS 3417   1.550   0.013   6.699  0.1625  0.0715 -0.3443
   26SAPC   O21 3418   1.343  -0.041   6.684 -0.2390  0.0078  0.2026
   26SAPC   C21 3419   1.379  -0.167   6.667  0.0232  0.3825 -0.5074
   26SAPC   O22 3420   1.490  -0.204   6.630 -0.3840  0.1678 -0.4363
   26SAPC   C22 3421   1.260  -0.266   6.700 -0.0668 -0.2117  0.2686
   26SAPC   H2R 3422   1.196  -0.265   6.610 -1.8684  0.9912  1.5357
   26SAPC   H2S 3423   1.315  -0.363   6.697  2.0635  0.9822 -0.6802
   26SAPC    C3 3424   1.412   0.189   6.712  0.0480 -0.5088 -1.1130
   26SAPC    HX 3425   1.308   0.210   6.678 -0.8237  0.8929  2.2106
   26SAPC    HY 3426   1.469   0.274   6.668 -1.5874  1.5433  0.6336
   26SAPC   O31 3427   1.433   0.201   6.855 -0.1277 -0.0651  0.3720
   26SAPC   C31 3428   1.329   0.185   6.937  0.0437  0.4123  0.0982
   26SAPC   O32 3429   1.219   0.143   6.907  0.1578 -0.2263  0.4374
   26SAPC   C32 3430   1.368   0.203   7.085 -0.0547  0.4967 -0.5660
   26SAPC   H2X 3431   1.403   0.304   7.114 -1.4134  0.3603  1.6205
   26SAPC   H2Y 3432   1.452   0.131   7.098  0.5865  1.3166 -0.1207
   26SAPC   C23 3433   1.199  -0.238   6.838  0.0324  0.1584  0.2194
   26SAPC   H3R 3434   1.104  -0.292   6.822 -0.2324  0.3880  0.9575
   26SAPC   H3S 3435   1.168  -0.131   6.836  1.0940  0.4595 -0.3506
   26SAPC   C24 3436   1.288  -0.273   6.959 -0.2050 -0.1167  0.4495
   26SAPC   H4R 3437   1.233  -0.218   7.038  0.0661 -0.5289  0.9237
   26SAPC   H4S 3438   1.381  -0.213   6.960 -0.9585  1.0814 -0.0054
   26SAPC   C25 3439   1.310  -0.418   6.997 -0.2782  0.5503 -0.0323
   26SAPC   H5R 3440   1.375  -0.474   6.927  0.0896  0.1840  0.5997
   26SAPC   C26 3441   1.267  -0.478   7.102 -0.1873  0.1196 -0.1650
   26SAPC   H6R 3442   1.285  -0.587   7.108 -1.6525 -0.0637  1.7839
   26SAPC   C27 3443   1.173  -0.417   7.209  0.3213 -0.1553 -0.5858
   26SAPC   H7R 3444   1.140  -0.505   7.268  1.8703 -1.5914 -1.8071
   26SAPC   H7S 3445   1.085  -0.400   7.144 -1.0522  2.1081  1.8043
   26SAPC   C28 3446   1.211  -0.296   7.296 -0.5023  0.2441  0.0083
   26SAPC   H8R 3447   1.221  -0.195   7.253  1.4393  0.4259  0.8090
   26SAPC   C29 3448   1.206  -0.297   7.434  0.2929 -0.2795  0.2746
   26SAPC   H9R 3449   1.245  -0.211   7.490 -0.4826 -0.2016  0.6940
   26SAPC  C210 3450   1.186  -0.414   7.518 -0.2873  0.3773 -0.2397
   26SAPC  H10R 3451   1.149  -0.500   7.458 -0.3676  1.3711 -1.6569
   26SAPC  H10S 3452   1.101  -0.389   7.585 -0.6916  1.5885 -1.1842
   26SAPC  C211 3453   1.318  -0.477   7.578  0.7342 -0.2479 -0.9631
   26SAPC  H11R 3454   1.376  -0.529   7.501  2.4645  0.0052  0.1399
   26SAPC  C212 3455   1.355  -0.478   7.707 -0.6089  0.2760 -0.1293
   26SAPC  H12R 3456   1.454  -0.517   7.735 -0.9077 -0.9338 -0.7337
   26SAPC  C213 3457   1.297  -0.410   7.826  0.2341 -0.4506 -0.6506
   26SAPC  H13R 3458   1.218  -0.336   7.804  0.6975  0.3842  0.4058
   26SAPC  H13S 3459   1.369  -0.335   7.865  1.0655 -1.8391  0.5834
   26SAPC  C214 3460   1.250  -0.507   7.933 -0.1587 -0.4187  0.4922
   26SAPC  H14R 3461   1.327  -0.566   7.984  1.2062  0.4786 -0.4950
   26SAPC  C215 3462   1.126  -0.534   7.964  0.7976  0.2110  0.6446
   26SAPC  H15R 3463   1.103  -0.617   8.032  0.2188 -0.5525 -0.4686
   26SAPC  C216 3464   0.991  -0.480   7.902  0.4354 -0.6541  0.8926
   26SAPC  H16R 3465   0.999  -0.377   7.860  2.5779 -0.6958  1.1691
   26SAPC  H16S 3466   0.914  -0.485   7.982  0.1787  2.3462  0.8856
   26SAPC  C217 3467   0.935  -0.563   7.789 -0.2765  0.6204 -0.5756
   26SAPC  H17R 3468   0.939  -0.670   7.818  0.5379  0.2577 -1.9379
   26SAPC  H17S 3469   1.003  -0.555   7.702  0.4893 -0.0207 -0.0449
   26SAPC  C218 3470   0.799  -0.527   7.737  0.1609  0.3177 -0.1374
   26SAPC  H18R 3471   0.788  -0.418   7.720 -0.3856  0.4951  1.2889
   26SAPC  H18S 3472   0.730  -0.562   7.817  0.6608 -0.5743 -0.0868
   26SAPC  C219 3473   0.755  -0.599   7.613 -0.0107  0.0034  0.1282
   26SAPC  H19R 3474   0.646  -0.585   7.600 -0.4549 -1.9247  1.6011
   26SAPC  H19S 3475   0.771  -0.709   7.610 -2.4712 -0.4624  2.1058
   26SAPC  C220 3476   0.824  -0.540   7.492 -0.3001  0.0364 -0.2089
   26SAPC  H20R 3477   0.765  -0.553   7.398  0.2152 -0.3046 -0.4888
   26SAPC  H20S 3478   0.922  -0.591   7.480 -0.8304 -0.9273 -0.5344
   26SAPC  H20T 3479   0.849  -0.433   7.508 -1.1125  0.2311 -0.2404
   26SAPC   C33 3480   1.260   0.162   7.189 -0.2678 -0.3000  0.4075
   26SAPC   H3X 3481   1.236   0.054   7.185  0.6789 -0.5556  1.6730
   26SAPC   H3Y 3482   1.167   0.222   7.175  2.2000  3.5366 -0.1778
   26SAPC   C34 3483   1.323   0.172   7.329 -0.0872  0.1301 -0.1710
   26SAPC   H4X 3484   1.362   0.276   7.341 -1.9742  0.8330 -0.0112
   26SAPC   H4Y 3485   1.396   0.089   7.334 -0.4563 -0.2737 -1.2788
   26SAPC   C35 3486   1.214   0.162   7.435  0.2866  0.7943  0.1495
   26SAPC   H5X 3487   1.155   0.071   7.412 -0.2899  1.6727 -2.0069
   26SAPC   H5Y 3488   1.147   0.249   7.418 -0.9318  0.0167  0.9211
   26SAPC   C36 3489   1.274   0.158   7.579  0.0770 -0.4268 -0.6652
   26SAPC   H6X 3490   1.325   0.255   7.600 -0.1026 -0.4532 -0.0843
   26SAPC   H6Y 3491   1.356   0.083   7.568  0.7490 -0.1957  2.2705
   26SAPC   C37 3492   1.174   0.129   7.681  0.7201  0.6832 -0.4207
   26SAPC   H7X 3493   1.151   0.021   7.671 -0.2664  0.8946 -0.4825
   26SAPC   H7Y 3494   1.086   0.196   7.680 -0.4981 -0.6569  4.8905
   26SAPC   C38 3495   1.239   0.142   7.818 -0.1249  0.2303 -0.0069
   26SAPC   H8X 3496   1.240   0.247   7.856  1.4084  0.2275  0.0075
   26SAPC   H8Y 3497   1.349   0.126   7.808  0.0344  0.7258  0.8534
   26SAPC   C39 3498   1.185   0.048   7.918  0.8863  0.4109  0.1668
   26SAPC   H9X 3499   1.231  -0.051   7.900  1.1044  0.3087  1.2295
   26SAPC   H9Y 3500   1.075   0.039   7.910  1.1269 -0.4947 -2.5124
   26SAPC  C310 3501   1.220   0.095   8.063 -0.6234  0.1998  0.2839
   26SAPC  H10X 3502   1.145   0.172   8.089  1.0715  1.8314  0.3774
   26SAPC  H10Y 3503   1.328   0.122   8.064 -0.4721 -0.3670 -0.2148
   26SAPC  C311 3504   1.210  -0.018   8.164 -0.1538 -0.4813  0.2511
   26SAPC  H11X 3505   1.297  -0.088   8.156  1.1404  1.1279  0.0546
   26SAPC  H11Y 3506   1.124  -0.085   8.140  0.5105 -1.6744  1.1334
   26SAPC  C312 3507   1.182   0.032   8.307 -0.0414 -0.0770 -0.4762
   26SAPC  H12X 3508   1.117   0.122   8.305  0.0041 -0.0583 -1.1634
   26SAPC  H12Y 3509   1.282   0.050   8.351 -0.3090 -3.2989  1.6810
   26SAPC  C313 3510   1.104  -0.059   8.387 -0.1232  0.1507 -0.2075
   26SAPC  H13X 3511   1.004  -0.079   8.342  0.2343 -2.6048  0.1451
   26SAPC  H13Y 3512   1.076   0.000   8.476  1.0352  0.3725  0.0079
   26SAPC  C314 3513   1.178  -0.191   8.408 -0.4775 -0.3272  0.2068
   26SAPC  H14X 3514   1.280  -0.167   8.445 -1.6621  0.1759  3.2938
   26SAPC  H14Y 3515   1.200  -0.248   8.315 -0.5535  0.4355 -0.2754
   26SAPC  C315 3516   1.092  -0.271   8.505  0.0511  0.6425 -0.0740
   26SAPC  H15X 3517   0.994  -0.277   8.453 -0.7548 -0.5154  1.5312
   26SAPC  H15Y 3518   1.077  -0.212   8.598 -2.0557  1.8863 -1.1606
   26SAPC  C316 3519   1.148  -0.412   8.547  0.1433  0.0776  0.2498
   26SAPC  H16X 3520   1.143  -0.481   8.460  0.0314  1.5183 -0.9131
   26SAPC  H16Y 3521   1.083  -0.452   8.628 -1.3127  1.2406 -0.3123
   26SAPC  C317 3522   1.301  -0.407   8.578  0.4618 -0.0659 -0.1291
   26SAPC  H17X 3523   1.322  -0.352   8.672  2.1866 -0.1488 -0.4535
   26SAPC  H17Y 3524   1.343  -0.354   8.489 -0.9142  0.6825 -0.3393
   26SAPC  C318 3525   1.369  -0.544   8.580 -0.0555 -0.1914 -0.8648
   26SAPC  H18X 3526   1.334  -0.616   8.503 -2.7472 -1.6548  1.6319
   26SAPC  H18Y 3527   1.341  -0.587   8.678  1.4295  0.2567 -0.2302
   26SAPC  H18Z 3528   1.480  -0.546   8.572 -0.0127 -1.4977 -0.0972
   27SAPC     N 3529   5.897   0.567   6.548 -0.4723  0.0743 -0.5084
   27SAPC   C12 3530   5.873   0.535   6.702  0.2175 -0.5066 -0.7532
   27SAPC  H12A 3531   5.832   0.435   6.704 -0.3871 -0.2629 -1.0059
   27SAPC  H12B 3532   5.787   0.592   6.731 -0.1145 -1.4831  0.1937
   27SAPC   C13 3533   5.927   0.711   6.542  0.1193  0.0377  0.1074
   27SAPC  H13A 3534   5.954   0.741   6.441  1.8873 -0.8405  0.2984
   27SAPC  H13B 3535   5.834   0.761   6.563 -0.3831 -0.2299 -1.4043
   27SAPC  H13C 3536   6.005   0.731   6.614 -1.1006  2.0689  0.9164
   27SAPC   C14 3537   6.015   0.498   6.486  0.1873 -0.2283 -0.0984
   27SAPC  H14A 3538   6.108   0.508   6.540  0.4695  0.1152 -0.6510
   27SAPC  H14B 3539   6.006   0.392   6.466  1.4888 -1.0820  3.3917
   27SAPC  H14C 3540   6.029   0.562   6.400 -0.2830  4.0365  2.8584
   27SAPC   C15 3541   5.774   0.528   6.476  0.0379 -0.3623  0.2843
   27SAPC  H15A 3542   5.747   0.425   6.491 -0.1432 -0.1371  1.5314
   27SAPC  H15B 3543   5.685   0.573   6.518 -0.5558 -0.9108 -0.3737
   27SAPC  H15C 3544   5.783   0.555   6.372 -0.7710 -1.5904 -0.1073
   27SAPC   C11 3545   5.982   0.546   6.805  0.3475  0.2511  0.0223
   27SAPC  H11A 3546   5.942   0.517   6.905  0.6059  1.2935  0.4404
   27SAPC  H11B 3547   6.015   0.652   6.808  0.2991  0.2801 -0.5310
   27SAPC     P 3548   6.235   0.503   6.783 -0.1649  0.0423  0.1924
   27SAPC   O13 3549   6.250   0.622   6.699 -0.7682  0.0007 -0.0461
   27SAPC   O14 3550   6.260   0.509   6.926  0.3012 -0.1713  0.5619
   27SAPC   O12 3551   6.088   0.458   6.772 -0.3936 -0.0857 -0.0357
   27SAPC   O11 3552   6.315   0.384   6.730  0.5923  0.0139 -0.3104
   27SAPC    C1 3553   6.254   0.261   6.688  0.1611 -0.7142 -0.7225
   27SAPC    HA 3554   6.157   0.281   6.637 -1.2602 -1.0513  1.7348
   27SAPC    HB 3555   6.326   0.214   6.618  2.3387  0.8127  0.4664
   27SAPC    C2 3556   6.237   0.144   6.785  0.4776 -0.7664  0.4491
   27SAPC    HS 3557   6.210   0.049   6.734 -0.9098  0.2227 -0.6906
   27SAPC   O21 3558   6.132   0.177   6.880  0.1226 -0.3447 -0.1415
   27SAPC   C21 3559   6.007   0.164   6.847 -0.7478 -0.6870 -0.1208
   27SAPC   O22 3560   5.966   0.112   6.746  0.0173 -0.5004  0.3782
   27SAPC   C22 3561   5.908   0.202   6.963 -0.9425 -1.0499  0.2629
   27SAPC   H2R 3562   5.973   0.251   7.039 -1.8645  0.2139  0.2399
   27SAPC   H2S 3563   5.844   0.280   6.918  1.2691 -1.0769 -3.0950
   27SAPC    C3 3564   6.372   0.119   6.865 -0.1330 -0.6677  0.2748
   27SAPC    HX 3565   6.398   0.201   6.935  2.3511 -0.7588 -0.4934
   27SAPC    HY 3566   6.453   0.132   6.790 -1.1724  1.2458 -0.5451
   27SAPC   O31 3567   6.369  -0.007   6.935  0.2062 -0.4928 -0.1965
   27SAPC   C31 3568   6.330  -0.007   7.060 -0.0728 -0.6724  0.4675
   27SAPC   O32 3569   6.307   0.098   7.127 -0.1030 -0.2450  0.7444
   27SAPC   C32 3570   6.321  -0.155   7.107  0.1236 -0.7003 -0.5338
   27SAPC   H2X 3571   6.412  -0.204   7.066  1.4253  1.9955 -1.0061
   27SAPC   H2Y 3572   6.239  -0.203   7.050  1.6053 -2.3543 -1.3359
   27SAPC   C23 3573   5.814   0.089   7.016 -0.3899 -0.1446  0.3336
   27SAPC   H3R 3574   5.781   0.038   6.924  0.0748 -1.2180  0.7498
   27SAPC   H3S 3575   5.714   0.118   7.055 -1.3871 -2.4930 -0.4127
   27SAPC   C24 3576   5.877  -0.007   7.122 -0.5746  0.8103 -0.6814
   27SAPC   H4R 3577   5.962  -0.056   7.070 -1.0640 -1.6506  0.7584
   27SAPC   H4S 3578   5.790  -0.072   7.145  0.8699 -0.7410  0.5965
   27SAPC   C25 3579   5.936   0.066   7.242 -0.6869 -0.4987 -0.6787
   27SAPC   H5R 3580   6.009   0.143   7.214 -1.5621 -0.0301 -1.7306
   27SAPC   C26 3581   5.926   0.028   7.375 -0.2224  0.2933  0.2077
   27SAPC   H6R 3582   5.971   0.096   7.449 -1.3461 -0.3825  1.5351
   27SAPC   C27 3583   5.842  -0.087   7.416 -0.4509 -0.0108  0.6190
   27SAPC   H7R 3584   5.825  -0.157   7.331  1.3952 -0.9294  0.9757
   27SAPC   H7S 3585   5.747  -0.045   7.454  0.4193 -0.8738  3.9158
   27SAPC   C28 3586   5.912  -0.165   7.522 -0.1574 -0.3845 -0.5114
   27SAPC   H8R 3587   5.984  -0.239   7.484  1.6144 -0.0206  2.0279
   27SAPC   C29 3588   5.906  -0.162   7.659 -0.4452 -0.0430 -0.3041
   27SAPC   H9R 3589   5.950  -0.242   7.721 -0.8080 -0.2994 -0.3742
   27SAPC  C210 3590   5.827  -0.064   7.738 -0.3842  0.3728  0.0076
   27SAPC  H10R 3591   5.753  -0.118   7.801  1.1248 -0.2362  1.2632
   27SAPC  H10S 3592   5.772   0.007   7.672 -0.9386  0.3224  0.4060
   27SAPC  C211 3593   5.928  -0.000   7.834  0.1758 -0.8673 -0.1576
   27SAPC  H11R 3594   6.009   0.057   7.786 -0.3782 -0.3065 -0.4286
   27SAPC  C212 3595   5.923  -0.007   7.960 -0.1729 -0.4294 -0.6060
   27SAPC  H12R 3596   6.000   0.047   8.016  0.7425 -0.3644 -1.8918
   27SAPC  C213 3597   5.822  -0.071   8.052 -0.6215 -0.1144  0.2254
   27SAPC  H13R 3598   5.762  -0.152   8.004 -0.2941 -0.2213 -0.0033
   27SAPC  H13S 3599   5.753   0.009   8.086 -1.1993  0.2558 -1.7581
   27SAPC  C214 3600   5.883  -0.141   8.170 -0.1205  0.2009  0.0204
   27SAPC  H14R 3601   5.972  -0.196   8.138 -0.6526  0.6567 -2.3335
   27SAPC  C215 3602   5.854  -0.127   8.303  0.5628 -0.6227 -0.4669
   27SAPC  H15R 3603   5.907  -0.190   8.375  0.7906  0.6234  0.4567
   27SAPC  C216 3604   5.744  -0.049   8.365 -0.2706  0.1561  0.5394
   27SAPC  H16R 3605   5.668  -0.019   8.289  0.9957  3.2733  0.4706
   27SAPC  H16S 3606   5.790   0.045   8.401 -1.2937  1.5254 -1.5875
   27SAPC  C217 3607   5.659  -0.116   8.476 -1.3421 -0.6808  0.5361
   27SAPC  H17R 3608   5.643  -0.222   8.447 -1.4229 -1.0114  1.7609
   27SAPC  H17S 3609   5.564  -0.059   8.480  0.8677  3.2252 -0.0578
   27SAPC  C218 3610   5.718  -0.095   8.619  0.0416 -0.0937  0.0337
   27SAPC  H18R 3611   5.723   0.014   8.638 -1.1632 -0.0165 -0.0976
   27SAPC  H18S 3612   5.824  -0.128   8.612  0.4088  1.5356 -2.9397
   27SAPC  C219 3613   5.638  -0.150   8.736  0.0412  0.3487  0.0738
   27SAPC  H19R 3614   5.631  -0.261   8.728 -0.3402  0.3389  0.5188
   27SAPC  H19S 3615   5.539  -0.100   8.738  0.3441  0.9348  0.7872
   27SAPC  C220 3616   5.701  -0.126   8.875  0.5425  0.3537  0.3435
   27SAPC  H20R 3617   5.801  -0.174   8.886 -0.0254 -0.5452  1.7317
   27SAPC  H20S 3618   5.642  -0.171   8.957  0.6658  0.9896  0.7852
   27SAPC  H20T 3619   5.709  -0.016   8.885 -3.3242  0.8031 -0.8612
   27SAPC   C33 3620   6.298  -0.170   7.257 -0.0454  0.5694 -0.0314
   27SAPC   H3X 3621   6.297  -0.281   7.266 -1.3461  0.7043  1.7281
   27SAPC   H3Y 3622   6.204  -0.122   7.293  0.1654  0.9945 -0.0428
   27SAPC   C34 3623   6.427  -0.126   7.329 -0.1735  0.4348  0.1194
   27SAPC   H4X 3624   6.428  -0.015   7.330  2.5021  0.4858 -2.5579
   27SAPC   H4Y 3625   6.510  -0.174   7.273 -0.7724 -2.5549  1.6690
   27SAPC   C35 3626   6.433  -0.165   7.484 -0.4505  0.0414 -0.3110
   27SAPC   H5X 3627   6.536  -0.152   7.522  0.4943 -2.1491 -2.0246
   27SAPC   H5Y 3628   6.407  -0.272   7.492  0.1035 -0.3579 -3.1473
   27SAPC   C36 3629   6.331  -0.108   7.589 -0.7192  0.6414 -0.7505
   27SAPC   H6X 3630   6.233  -0.154   7.562 -0.9478  0.6599  0.0429
   27SAPC   H6Y 3631   6.330   0.003   7.584 -0.3627  0.6823  0.0199
   27SAPC   C37 3632   6.380  -0.162   7.723  0.2467  0.2242  0.3428
   27SAPC   H7X 3633   6.482  -0.123   7.743  0.8421 -1.2956  0.2728
   27SAPC   H7Y 3634   6.399  -0.271   7.725  0.4724  0.2710  0.8439
   27SAPC   C38 3635   6.297  -0.120   7.852  0.1232  0.2163 -0.6774
   27SAPC   H8X 3636   6.203  -0.175   7.831  0.5003  0.2032 -2.4251
   27SAPC   H8Y 3637   6.269  -0.013   7.848  0.9681  0.4900  0.4248
   27SAPC   C39 3638   6.377  -0.167   7.977  0.2945  0.4654 -0.0626
   27SAPC   H9X 3639   6.469  -0.106   7.972  0.5764 -0.0884 -2.0024
   27SAPC   H9Y 3640   6.398  -0.275   7.968  0.4950  0.4780  0.2487
   27SAPC  C310 3641   6.296  -0.154   8.115 -0.5085 -0.3497  0.1002
   27SAPC  H10X 3642   6.198  -0.207   8.106 -0.1819 -1.1662  1.2621
   27SAPC  H10Y 3643   6.275  -0.046   8.130 -3.0830 -1.0485  1.9974
   27SAPC  C311 3644   6.391  -0.196   8.228 -0.1414 -0.0081  0.0662
   27SAPC  H11X 3645   6.436  -0.298   8.222  0.1907  0.0040  2.0353
   27SAPC  H11Y 3646   6.327  -0.198   8.318 -1.0291  1.1411 -0.5225
   27SAPC  C312 3647   6.504  -0.098   8.254  0.2563  0.1459  0.5760
   27SAPC  H12X 3648   6.447  -0.003   8.268 -2.5346 -0.5271 -4.9998
   27SAPC  H12Y 3649   6.578  -0.075   8.175  1.1137  1.5408  1.7546
   27SAPC  C313 3650   6.583  -0.120   8.381 -0.0603 -1.0426  0.1731
   27SAPC  H13X 3651   6.651  -0.037   8.410 -1.6823 -0.3340  2.0565
   27SAPC  H13Y 3652   6.652  -0.205   8.360  0.3042 -1.1642  1.8032
   27SAPC  C314 3653   6.492  -0.140   8.505  0.1343 -0.2074  1.2286
   27SAPC  H14X 3654   6.416  -0.221   8.495 -0.1243  0.0469  1.1295
   27SAPC  H14Y 3655   6.448  -0.039   8.509  0.3885  0.1917 -3.2107
   27SAPC  C315 3656   6.581  -0.159   8.630  0.3356  0.4936 -0.0564
   27SAPC  H15X 3657   6.638  -0.063   8.630 -2.2817  2.0839 -1.8266
   27SAPC  H15Y 3658   6.658  -0.240   8.624  1.5405  1.6793 -0.8571
   27SAPC  C316 3659   6.494  -0.164   8.755 -0.3143  0.3906 -0.4777
   27SAPC  H16X 3660   6.399  -0.107   8.745  0.5776  2.2113  1.2304
   27SAPC  H16Y 3661   6.544  -0.117   8.842  0.4340 -0.9908 -0.1447
   27SAPC  C317 3662   6.461  -0.308   8.793 -0.5831  0.6794 -0.3245
   27SAPC  H17X 3663   6.415  -0.310   8.894  0.4564  0.4711  0.1510
   27SAPC  H17Y 3664   6.550  -0.374   8.796 -1.0427 -0.0028 -1.4336
   27SAPC  C318 3665   6.366  -0.376   8.699 -0.4170  0.1633  0.4365
   27SAPC  H18X 3666   6.298  -0.298   8.660  2.5279  2.6418  0.0565
   27SAPC  H18Y 3667   6.323  -0.469   8.741  0.1761 -0.6853 -0.8058
   27SAPC  H18Z 3668   6.422  -0.407   8.608 -1.5147  2.7628 -1.1631
   28SAPC     N 3669   5.119   4.355   6.290  0.1546  0.0853  0.3784
   28SAPC   C12 3670   5.049   4.282   6.404  0.2454 -0.5552 -0.3868
   28SAPC  H12A 3671   4.943   4.303   6.399  0.5358  1.0721  0.1870
   28SAPC  H12B 3672   5.080   4.333   6.494 -2.2079 -0.7401  0.6083
   28SAPC   C13 3673   5.073   4.291   6.167  0.6485 -0.1919  0.7611
   28SAPC  H13A 3674   5.088   4.184   6.168  0.3687 -0.3883 -3.5039
   28SAPC  H13B 3675   4.965   4.299   6.162  0.7437  1.8756  1.5830
   28SAPC  H13C 3676   5.108   4.343   6.079 -0.9855 -0.8642 -0.3086
   28SAPC   C14 3677   5.071   4.500   6.285  0.2213  0.3399 -0.1930
   28SAPC  H14A 3678   5.094   4.554   6.375 -1.3425 -1.8368  1.5795
   28SAPC  H14B 3679   5.106   4.553   6.198  0.1099 -0.9739 -1.0597
   28SAPC  H14C 3680   4.964   4.494   6.272 -0.0652 -0.4532  2.2870
   28SAPC   C15 3681   5.262   4.355   6.300  0.1283  0.1638  0.0073
   28SAPC  H15A 3682   5.309   4.258   6.288 -0.4135 -0.5652  3.1846
   28SAPC  H15B 3683   5.314   4.413   6.225 -0.9431  1.5483  0.3250
   28SAPC  H15C 3684   5.284   4.401   6.395 -2.0805  0.5415  0.3469
   28SAPC   C11 3685   5.057   4.135   6.425  0.6126 -0.6726 -0.1934
   28SAPC  H11A 3686   5.005   4.071   6.351  0.1846  0.1217 -0.5717
   28SAPC  H11B 3687   5.024   4.111   6.529  1.7948  1.7627  0.7839
   28SAPC     P 3688   5.258   3.958   6.433  0.0516  0.4432 -0.0108
   28SAPC   O13 3689   5.222   3.896   6.304  0.1626  0.0574 -0.3919
   28SAPC   O14 3690   5.402   3.957   6.463  0.2400 -0.5324 -0.2618
   28SAPC   O12 3691   5.197   4.108   6.435  0.0826  0.1280 -0.4277
   28SAPC   O11 3692   5.183   3.880   6.552 -0.4425  0.2631 -0.2088
   28SAPC    C1 3693   5.231   3.766   6.621  0.8026 -0.6603 -0.1927
   28SAPC    HA 3694   5.171   3.674   6.604 -0.7740 -0.2611  2.7808
   28SAPC    HB 3695   5.329   3.735   6.580  1.4499  0.6758  0.2978
   28SAPC    C2 3696   5.259   3.801   6.773  0.1741  0.3635  0.6972
   28SAPC    HS 3697   5.313   3.714   6.816  1.1605  1.3223  1.4215
   28SAPC   O21 3698   5.135   3.820   6.844 -0.3331  0.1721 -0.1633
   28SAPC   C21 3699   5.062   3.716   6.874  0.3533 -0.6866  0.0532
   28SAPC   O22 3700   5.087   3.595   6.861 -0.1671 -0.6233  0.6292
   28SAPC   C22 3701   4.945   3.778   6.950  0.4882  0.2038  0.3475
   28SAPC   H2R 3702   4.992   3.840   7.030 -0.4168  1.3219  0.0176
   28SAPC   H2S 3703   4.887   3.843   6.881 -2.4726 -0.6535  1.9135
   28SAPC    C3 3704   5.351   3.922   6.796 -0.7230 -0.1522 -0.4669
   28SAPC    HX 3705   5.306   4.019   6.766 -0.3076 -0.3015 -1.5663
   28SAPC    HY 3706   5.441   3.911   6.732 -0.6210  1.2218 -0.5739
   28SAPC   O31 3707   5.388   3.932   6.933 -0.4809  0.0456  0.5529
   28SAPC   C31 3708   5.499   3.869   6.972  0.2593  0.3632  1.0182
   28SAPC   O32 3709   5.571   3.799   6.905  0.0973 -0.1676  0.1807
   28SAPC   C32 3710   5.511   3.870   7.127  0.1235  0.3983  0.1770
   28SAPC   H2X 3711   5.506   3.975   7.164  1.5674  0.2084  1.0022
   28SAPC   H2Y 3712   5.611   3.830   7.156  0.5924 -0.6521 -2.7846
   28SAPC   C23 3713   4.855   3.672   7.014 -0.4551  0.0198 -0.2566
   28SAPC   H3R 3714   4.918   3.617   7.087 -0.6554  0.0702 -0.0463
   28SAPC   H3S 3715   4.815   3.609   6.932 -0.5069 -0.9382  0.5041
   28SAPC   C24 3716   4.735   3.723   7.090 -0.1807  0.0068 -0.1467
   28SAPC   H4R 3717   4.684   3.641   7.145  0.0462 -0.3992 -0.5383
   28SAPC   H4S 3718   4.771   3.795   7.166  1.9717 -1.5996  0.4001
   28SAPC   C25 3719   4.636   3.797   7.005 -0.1408 -0.8220 -0.1096
   28SAPC   H5R 3720   4.655   3.798   6.897 -1.4533 -2.5134 -0.3667
   28SAPC   C26 3721   4.515   3.825   7.044 -0.0691  0.4904  0.3436
   28SAPC   H6R 3722   4.452   3.876   6.970 -0.4869  2.6661  2.1619
   28SAPC   C27 3723   4.463   3.780   7.178 -0.6301  0.1973  0.1365
   28SAPC   H7R 3724   4.503   3.852   7.252 -2.0751  0.6997  0.4478
   28SAPC   H7S 3725   4.500   3.678   7.203 -0.1924  0.3234  0.0022
   28SAPC   C28 3726   4.314   3.794   7.179  0.3636  0.0393 -0.1292
   28SAPC   H8R 3727   4.281   3.813   7.076  0.4801  2.6826  0.2897
   28SAPC   C29 3728   4.223   3.783   7.274 -0.1175  0.0141 -0.3240
   28SAPC   H9R 3729   4.117   3.781   7.245 -0.1059  0.8000 -0.4165
   28SAPC  C210 3730   4.246   3.743   7.419  0.0253  0.0725  0.4017
   28SAPC  H10R 3731   4.351   3.713   7.435  0.3015  1.9716  2.5187
   28SAPC  H10S 3732   4.172   3.661   7.431  0.8761 -1.3604 -3.5566
   28SAPC  C211 3733   4.206   3.859   7.509 -0.3049  0.9446 -0.2748
   28SAPC  H11R 3734   4.213   3.959   7.464  2.5646  0.2176 -1.5310
   28SAPC  C212 3735   4.173   3.843   7.633  0.0353 -0.3238  0.6058
   28SAPC  H12R 3736   4.152   3.935   7.690  0.6032  0.0030  0.3019
   28SAPC  C213 3737   4.168   3.715   7.710 -0.0797 -0.0435  0.5276
   28SAPC  H13R 3738   4.251   3.713   7.783  0.0742 -0.2635  0.3482
   28SAPC  H13S 3739   4.191   3.623   7.653  0.3334 -1.1086  2.3637
   28SAPC  C214 3740   4.036   3.712   7.773  0.0641 -0.3023 -0.6888
   28SAPC  H14R 3741   3.955   3.731   7.702 -0.5132 -0.3341 -0.0370
   28SAPC  C215 3742   4.005   3.660   7.896 -0.2641 -0.1553 -0.0492
   28SAPC  H15R 3743   3.899   3.658   7.924 -0.4274  0.6252 -0.6131
   28SAPC  C216 3744   4.104   3.605   7.992 -0.1849 -0.3092 -0.9881
   28SAPC  H16R 3745   4.063   3.625   8.093 -1.2980 -1.5989 -1.1706
   28SAPC  H16S 3746   4.209   3.640   7.980 -0.5262  1.1599  0.2462
   28SAPC  C217 3747   4.122   3.456   8.014  1.1242  0.0674  1.3400
   28SAPC  H17R 3748   4.174   3.406   7.929 -0.0768  0.3763  0.4103
   28SAPC  H17S 3749   4.023   3.407   8.012  1.0970  0.1321  0.9708
   28SAPC  C218 3750   4.191   3.422   8.149  0.3018 -0.1786  1.4022
   28SAPC  H18R 3751   4.127   3.468   8.227 -0.9177  0.2038  0.1969
   28SAPC  H18S 3752   4.292   3.467   8.151  0.1627  0.2999 -0.7609
   28SAPC  C219 3753   4.196   3.266   8.168  0.0114 -0.2946  0.0045
   28SAPC  H19R 3754   4.287   3.251   8.229 -0.0214 -0.1942  0.0768
   28SAPC  H19S 3755   4.224   3.224   8.069  0.5212 -0.0678  0.0525
   28SAPC  C220 3756   4.073   3.203   8.224 -0.0797 -0.6028  0.1199
   28SAPC  H20R 3757   4.057   3.254   8.322  2.3107 -1.0765  0.7933
   28SAPC  H20S 3758   4.083   3.092   8.221  1.4909 -0.4211 -2.7957
   28SAPC  H20T 3759   3.989   3.232   8.158  0.2307 -1.7657 -0.7906
   28SAPC   C33 3760   5.404   3.783   7.191 -0.7528 -0.3653  0.0526
   28SAPC   H3X 3761   5.387   3.685   7.140  1.3102 -1.4242  1.3306
   28SAPC   H3Y 3762   5.305   3.834   7.188 -0.0515  0.9990 -0.3345
   28SAPC   C34 3763   5.414   3.737   7.339  0.6570 -0.0012 -0.1219
   28SAPC   H4X 3764   5.507   3.677   7.340  1.8508  1.7431 -1.5212
   28SAPC   H4Y 3765   5.329   3.670   7.362 -0.3291  0.3135 -2.6679
   28SAPC   C35 3766   5.418   3.843   7.443 -0.0984  0.7378  0.7115
   28SAPC   H5X 3767   5.340   3.920   7.423 -0.1341  0.3017 -0.9147
   28SAPC   H5Y 3768   5.511   3.903   7.445 -0.4270  1.2924 -0.5204
   28SAPC   C36 3769   5.398   3.779   7.577 -0.3848  0.1117 -0.3235
   28SAPC   H6X 3770   5.458   3.686   7.588  1.1066  1.2075  0.9941
   28SAPC   H6Y 3771   5.296   3.734   7.575 -2.1106  3.8344  0.5928
   28SAPC   C37 3772   5.397   3.881   7.695 -0.4704  0.6372  0.0635
   28SAPC   H7X 3773   5.323   3.961   7.675  0.0310  1.1297  0.1815
   28SAPC   H7Y 3774   5.500   3.924   7.698 -0.6906  1.1444  0.3408
   28SAPC   C38 3775   5.368   3.822   7.829 -0.2257  0.5174  0.4129
   28SAPC   H8X 3776   5.455   3.765   7.869 -1.3947 -0.2850  1.8503
   28SAPC   H8Y 3777   5.285   3.754   7.802  0.3748  0.4284 -1.2465
   28SAPC   C39 3778   5.329   3.926   7.939  0.2280  0.3097  0.3910
   28SAPC   H9X 3779   5.233   3.973   7.908  1.3772  2.1935 -0.3904
   28SAPC   H9Y 3780   5.415   3.996   7.937  0.4482  0.0788  1.5863
   28SAPC  C310 3781   5.315   3.850   8.070  0.0799 -0.0863 -0.0528
   28SAPC  H10X 3782   5.396   3.777   8.091  0.6550  0.6486  0.2834
   28SAPC  H10Y 3783   5.226   3.787   8.049 -1.3731  1.9111  0.0131
   28SAPC  C311 3784   5.307   3.942   8.182 -0.0999  0.3136  0.3155
   28SAPC  H11X 3785   5.227   4.014   8.156 -0.3183 -0.6514 -1.7737
   28SAPC  H11Y 3786   5.402   3.999   8.193  0.7444 -1.4724  2.8139
   28SAPC  C312 3787   5.291   3.863   8.315  0.0851 -0.6803  0.6535
   28SAPC  H12X 3788   5.372   3.789   8.331  0.6257 -0.6671 -1.8478
   28SAPC  H12Y 3789   5.192   3.815   8.329 -0.5915  0.5066 -0.0188
   28SAPC  C313 3790   5.308   3.971   8.434 -0.5957 -0.7252  0.6882
   28SAPC  H13X 3791   5.253   3.942   8.526  0.8805 -2.5015  1.0410
   28SAPC  H13Y 3792   5.256   4.063   8.402  1.7689  0.0164 -1.1572
   28SAPC  C314 3793   5.453   3.994   8.477  0.5047  0.2277  0.1033
   28SAPC  H14X 3794   5.507   4.052   8.399  0.0345  1.1648  0.4584
   28SAPC  H14Y 3795   5.497   3.892   8.478 -1.3736 -0.5923  0.6886
   28SAPC  C315 3796   5.476   4.061   8.612 -0.1868 -0.4936  0.9109
   28SAPC  H15X 3797   5.411   4.000   8.678 -1.2755 -1.5035 -1.0170
   28SAPC  H15Y 3798   5.444   4.167   8.618  0.2172 -0.2560 -0.8474
   28SAPC  C316 3799   5.621   4.060   8.659 -0.1645 -0.4557 -0.1321
   28SAPC  H16X 3800   5.669   3.961   8.645 -0.2410 -0.4837 -0.2011
   28SAPC  H16Y 3801   5.630   4.090   8.766  0.4790  0.4760 -0.4429
   28SAPC  C317 3802   5.702   4.154   8.582  0.1630 -0.1069 -0.3510
   28SAPC  H17X 3803   5.677   4.259   8.609 -1.9252 -0.5698 -0.4642
   28SAPC  H17Y 3804   5.690   4.144   8.472  0.5365 -1.0808 -0.3083
   28SAPC  C318 3805   5.840   4.137   8.619  0.8612 -0.2581  0.8085
   28SAPC  H18X 3806   5.847   4.122   8.728  1.5577 -2.4972  0.4866
   28SAPC  H18Y 3807   5.902   4.227   8.598  0.8184  0.2101  2.6454
   28SAPC  H18Z 3808   5.886   4.044   8.580 -1.0708 -0.2237 -1.6759
   29SAPC     N 3809   0.755   0.432   6.004  0.1617  0.3365 -0.4678
   29SAPC   C12 3810   0.667   0.554   6.012 -0.1067  0.6042  0.2999
   29SAPC  H12A 3811   0.611   0.545   5.920  0.6479 -1.7110  0.0139
   29SAPC  H12B 3812   0.739   0.633   6.023  1.7111 -1.2343  1.9693
   29SAPC   C13 3813   0.675   0.317   5.976  0.1365 -0.4600  0.3013
   29SAPC  H13A 3814   0.602   0.298   6.053 -0.8049  1.6499 -0.0445
   29SAPC  H13B 3815   0.621   0.321   5.883 -0.0933  0.7618  0.4835
   29SAPC  H13C 3816   0.743   0.233   5.968 -0.0981 -0.5098 -1.3065
   29SAPC   C14 3817   0.849   0.447   5.887  0.0800  0.5391  0.4221
   29SAPC  H14A 3818   0.794   0.493   5.806 -2.0851  0.1367  1.6101
   29SAPC  H14B 3819   0.926   0.518   5.912 -0.1682  0.3343  1.7794
   29SAPC  H14C 3820   0.892   0.353   5.857  0.9729  0.9045  0.5571
   29SAPC   C15 3821   0.839   0.406   6.127  0.4230 -1.1081  0.6399
   29SAPC  H15A 3822   0.918   0.333   6.119 -1.1371 -2.6166 -1.6492
   29SAPC  H15B 3823   0.890   0.495   6.162 -0.8048 -0.6368  1.2892
   29SAPC  H15C 3824   0.773   0.362   6.201  0.9919 -1.4857  0.9288
   29SAPC   C11 3825   0.569   0.578   6.126 -0.5204  0.4594  0.2899
   29SAPC  H11A 3826   0.509   0.487   6.149 -0.6099  0.7214  1.1073
   29SAPC  H11B 3827   0.501   0.658   6.092 -0.5895 -1.0217 -3.2933
   29SAPC     P 3828   0.573   0.611   6.389 -0.3951 -0.1966 -0.0456
   29SAPC   O13 3829   0.466   0.711   6.399  0.1634  0.0767  0.2444
   29SAPC   O14 3830   0.535   0.469   6.413  0.6754 -0.2213  0.3165
   29SAPC   O12 3831   0.637   0.631   6.243 -0.4262  0.9617 -0.1921
   29SAPC   O11 3832   0.688   0.659   6.489  0.2672  0.5405 -0.3572
   29SAPC    C1 3833   0.728   0.798   6.501 -0.1480  0.6220  0.0352
   29SAPC    HA 3834   0.837   0.795   6.482 -0.2324  0.5599 -0.4578
   29SAPC    HB 3835   0.679   0.866   6.428  0.0801  0.4074 -0.3210
   29SAPC    C2 3836   0.693   0.855   6.647  0.8854  0.2187 -0.1656
   29SAPC    HS 3837   0.755   0.947   6.643  2.5945 -0.8506  0.9452
   29SAPC   O21 3838   0.740   0.765   6.752  0.0631  0.2118 -0.8004
   29SAPC   C21 3839   0.872   0.764   6.764 -1.4433 -0.3441 -0.4742
   29SAPC   O22 3840   0.954   0.833   6.702  0.6988 -0.2212  0.0922
   29SAPC   C22 3841   0.914   0.653   6.861 -0.1848  0.1067 -0.4304
   29SAPC   H2R 3842   0.974   0.703   6.941  1.7882 -0.1301 -1.7414
   29SAPC   H2S 3843   0.819   0.614   6.904  1.1642  1.7068  4.3896
   29SAPC    C3 3844   0.545   0.882   6.668  0.2043 -0.2663 -0.0464
   29SAPC    HX 3845   0.499   0.783   6.646 -0.3366  0.3901 -1.9976
   29SAPC    HY 3846   0.504   0.950   6.590  2.0154 -0.6284 -1.3809
   29SAPC   O31 3847   0.528   0.935   6.799  0.1144  0.2073 -0.3931
   29SAPC   C31 3848   0.472   0.854   6.891  0.1602 -0.1089 -0.8487
   29SAPC   O32 3849   0.434   0.741   6.866  0.9413 -0.1670 -0.1535
   29SAPC   C32 3850   0.463   0.916   7.032  0.2087  0.1608 -0.7494
   29SAPC   H2X 3851   0.403   0.840   7.087 -0.2099 -0.0114 -1.4418
   29SAPC   H2Y 3852   0.400   1.007   7.026 -2.4828 -1.4668  1.5968
   29SAPC   C23 3853   1.023   0.557   6.809  0.5706 -0.1295  0.1499
   29SAPC   H3R 3854   1.082   0.616   6.736 -0.7968  0.3595 -0.5588
   29SAPC   H3S 3855   0.983   0.465   6.762 -0.5477  1.0453 -1.2016
   29SAPC   C24 3856   1.123   0.520   6.918  0.5430 -0.3230 -0.4585
   29SAPC   H4R 3857   1.181   0.603   6.963  0.3068 -0.3929 -0.0157
   29SAPC   H4S 3858   1.201   0.464   6.862  0.1894  0.8519 -2.1360
   29SAPC   C25 3859   1.056   0.428   7.030 -0.4171 -0.2472 -0.8252
   29SAPC   H5R 3860   1.025   0.326   7.002  1.1622 -0.3531 -2.2972
   29SAPC   C26 3861   1.044   0.465   7.158  0.4570  0.0567 -0.3669
   29SAPC   H6R 3862   1.008   0.387   7.226 -0.6026  2.0734  1.4411
   29SAPC   C27 3863   1.079   0.596   7.227 -0.7060  0.2569  0.3890
   29SAPC   H7R 3864   0.994   0.667   7.240  1.0402  2.3672  0.6373
   29SAPC   H7S 3865   1.149   0.652   7.162  0.0713 -0.3684  0.6779
   29SAPC   C28 3866   1.158   0.580   7.362  0.3849  0.4938  0.3435
   29SAPC   H8R 3867   1.266   0.602   7.362  0.2817  1.2670  3.4260
   29SAPC   C29 3868   1.115   0.527   7.481 -0.0054  0.0347  0.4426
   29SAPC   H9R 3869   1.180   0.523   7.569  1.0863  0.1915 -0.3379
   29SAPC  C210 3870   0.969   0.488   7.506  0.1355 -0.7064  0.4466
   29SAPC  H10R 3871   0.966   0.388   7.555 -3.8485  0.1591  2.1150
   29SAPC  H10S 3872   0.918   0.479   7.408 -0.5601 -1.0604  0.8357
   29SAPC  C211 3873   0.900   0.576   7.608  0.4087  0.2897  0.6800
   29SAPC  H11R 3874   0.829   0.647   7.563 -1.8158 -3.6347 -2.3025
   29SAPC  C212 3875   0.910   0.565   7.738 -0.4417 -0.3384 -0.5030
   29SAPC  H12R 3876   0.857   0.635   7.805  2.0249  1.5613 -0.4672
   29SAPC  C213 3877   1.002   0.474   7.817  0.2050  0.0867  0.2905
   29SAPC  H13R 3878   1.077   0.549   7.851  0.8639  0.5295 -2.0509
   29SAPC  H13S 3879   1.056   0.405   7.749  0.2399 -0.0184  0.4230
   29SAPC  C214 3880   0.969   0.388   7.938 -0.1604 -0.1150  0.5386
   29SAPC  H14R 3881   0.973   0.281   7.910  1.6664  0.2437 -0.6552
   29SAPC  C215 3882   0.931   0.418   8.061 -0.2628  0.5118 -0.1376
   29SAPC  H15R 3883   0.898   0.329   8.117  1.6742 -0.2058 -0.1118
   29SAPC  C216 3884   0.911   0.553   8.120 -0.0315 -0.2510  0.8523
   29SAPC  H16R 3885   0.828   0.546   8.193 -0.6659  0.0361  0.1683
   29SAPC  H16S 3886   0.890   0.631   8.043  1.3107  0.1844  0.9247
   29SAPC  C217 3887   1.025   0.609   8.210  0.2256 -0.1582 -0.2957
   29SAPC  H17R 3888   0.997   0.704   8.261 -0.1353 -0.4467  0.0389
   29SAPC  H17S 3889   1.110   0.635   8.143 -0.5303 -0.1374 -1.2569
   29SAPC  C218 3890   1.093   0.518   8.308  0.3227  0.4183 -0.8615
   29SAPC  H18R 3891   1.200   0.542   8.324 -0.2857  0.6533  3.4796
   29SAPC  H18S 3892   1.087   0.416   8.266  2.9243 -0.3498  0.5159
   29SAPC  C219 3893   1.041   0.513   8.450  0.3457  0.6784  0.2880
   29SAPC  H19R 3894   0.931   0.497   8.457  0.9467 -3.5138  0.9185
   29SAPC  H19S 3895   1.058   0.615   8.491  2.5059  0.2742  0.4533
   29SAPC  C220 3896   1.110   0.408   8.542 -0.2783 -0.9023 -0.0951
   29SAPC  H20R 3897   1.084   0.428   8.648 -0.1679  1.7312 -0.5160
   29SAPC  H20S 3898   1.220   0.415   8.527 -0.6259  1.1828 -2.0908
   29SAPC  H20T 3899   1.065   0.312   8.511 -1.5480 -0.3795  0.0819
   29SAPC   C33 3900   0.606   0.933   7.096 -0.5775  0.6576 -0.1332
   29SAPC   H3X 3901   0.660   1.014   7.043 -0.1623  0.5240  0.0851
   29SAPC   H3Y 3902   0.657   0.835   7.082 -0.9812  0.3617  0.4570
   29SAPC   C34 3903   0.593   0.980   7.238 -0.1531 -0.6302  0.1706
   29SAPC   H4X 3904   0.529   0.903   7.287 -2.6729 -0.4568 -2.6170
   29SAPC   H4Y 3905   0.550   1.081   7.253  0.7801 -0.2906  0.5752
   29SAPC   C35 3906   0.729   0.973   7.310  0.1883 -0.4511 -0.2340
   29SAPC   H5X 3907   0.755   1.078   7.337  0.4815 -1.1373  2.2476
   29SAPC   H5Y 3908   0.806   0.923   7.247 -1.3639 -2.1448 -0.8288
   29SAPC   C36 3909   0.727   0.889   7.436  0.1029  0.0612  0.2867
   29SAPC   H6X 3910   0.834   0.879   7.465  0.3766  2.0191 -0.0235
   29SAPC   H6Y 3911   0.688   0.787   7.415  0.3535  0.4461 -2.1422
   29SAPC   C37 3912   0.640   0.950   7.550 -0.8372 -0.4093  0.5360
   29SAPC   H7X 3913   0.534   0.923   7.530 -0.7479 -0.0529 -0.4828
   29SAPC   H7Y 3914   0.652   1.060   7.561  0.5280 -0.2025 -2.4108
   29SAPC   C38 3915   0.681   0.886   7.687  0.3039 -0.6310  0.7986
   29SAPC   H8X 3916   0.788   0.904   7.711  0.5437 -2.7300  1.4393
   29SAPC   H8Y 3917   0.678   0.776   7.669 -1.2414 -0.5140  0.2477
   29SAPC   C39 3918   0.596   0.922   7.803 -0.2217 -0.1488 -0.5584
   29SAPC   H9X 3919   0.494   0.878   7.794 -0.4900  0.3349  0.0646
   29SAPC   H9Y 3920   0.589   1.033   7.815 -1.4082  0.0090 -2.4192
   29SAPC  C310 3921   0.658   0.853   7.925 -0.6221  0.4041  0.0421
   29SAPC  H10X 3922   0.761   0.893   7.937 -0.3639 -0.0342 -0.7102
   29SAPC  H10Y 3923   0.649   0.743   7.911 -3.4907  0.4558  1.0975
   29SAPC  C311 3924   0.574   0.880   8.046 -0.5011 -0.0062  1.2014
   29SAPC  H11X 3925   0.488   0.810   8.052 -0.8581  0.4212  1.1974
   29SAPC  H11Y 3926   0.537   0.984   8.030 -0.0441 -0.1615 -1.0606
   29SAPC  C312 3927   0.646   0.878   8.177 -0.0835 -0.1619  0.2469
   29SAPC  H12X 3928   0.714   0.965   8.180 -0.1110 -0.0535 -1.6340
   29SAPC  H12Y 3929   0.698   0.780   8.172 -0.1322 -0.2727  1.7012
   29SAPC  C313 3930   0.542   0.892   8.295  0.0453  0.5359 -0.8334
   29SAPC  H13X 3931   0.489   0.795   8.299  0.4199  0.3480 -0.4560
   29SAPC  H13Y 3932   0.469   0.975   8.281  1.3014  1.7111 -0.4682
   29SAPC  C314 3933   0.628   0.912   8.425 -0.5713 -0.2825  0.1617
   29SAPC  H14X 3934   0.570   0.945   8.514  0.9079  1.4770  0.4861
   29SAPC  H14Y 3935   0.701   0.993   8.405  1.1030 -1.6315  0.6862
   29SAPC  C315 3936   0.699   0.784   8.480  0.1716 -0.2929  0.9248
   29SAPC  H15X 3937   0.742   0.722   8.398  0.6335  0.3839  0.6471
   29SAPC  H15Y 3938   0.617   0.721   8.520  0.6051 -0.1365  2.0725
   29SAPC  C316 3939   0.805   0.801   8.584  0.1129  0.4236  0.1229
   29SAPC  H16X 3940   0.843   0.706   8.628 -2.3532  0.7153  3.1032
   29SAPC  H16Y 3941   0.750   0.853   8.666  1.0778 -0.4255  1.3286
   29SAPC  C317 3942   0.929   0.882   8.534 -0.3871 -0.1519 -0.3745
   29SAPC  H17X 3943   0.901   0.987   8.508  1.3430 -0.1970 -2.6083
   29SAPC  H17Y 3944   0.967   0.826   8.446  2.0989 -1.1351  1.2569
   29SAPC  C318 3945   1.024   0.882   8.652  0.2627  0.4935 -0.5795
   29SAPC  H18X 3946   1.053   0.780   8.684 -1.2911  0.0459 -0.5380
   29SAPC  H18Y 3947   0.974   0.939   8.734  0.7331  2.4314 -1.5968
   29SAPC  H18Z 3948   1.119   0.934   8.628 -0.1734  1.9100  0.6478
   30SAPC     N 3949   2.589   0.456   6.122 -0.1004  0.1821  0.2267
   30SAPC   C12 3950   2.453   0.497   6.071 -0.1872  0.5998  0.2513
   30SAPC  H12A 3951   2.439   0.456   5.972  1.9894  0.9335 -0.2196
   30SAPC  H12B 3952   2.450   0.602   6.045 -0.8641  0.7016  0.7276
   30SAPC   C13 3953   2.588   0.340   6.217  0.4609 -0.6088  0.9262
   30SAPC  H13A 3954   2.525   0.258   6.186  0.6399 -0.6769  0.7418
   30SAPC  H13B 3955   2.685   0.301   6.244  0.7557 -1.1837 -0.8824
   30SAPC  H13C 3956   2.547   0.381   6.309  1.5600  0.4788  0.9351
   30SAPC   C14 3957   2.690   0.422   6.006 -0.0955  0.0333 -0.2375
   30SAPC  H14A 3958   2.782   0.386   6.050 -1.4291 -1.4207  1.4367
   30SAPC  H14B 3959   2.657   0.341   5.943 -1.1316  0.2673  0.0013
   30SAPC  H14C 3960   2.716   0.516   5.959 -0.0557  0.0966 -0.0881
   30SAPC   C15 3961   2.650   0.575   6.191  0.4513  0.3050 -0.5695
   30SAPC  H15A 3962   2.678   0.651   6.121  0.3210 -0.2973 -1.2779
   30SAPC  H15B 3963   2.574   0.613   6.259  0.9303  0.3988 -0.0809
   30SAPC  H15C 3964   2.740   0.548   6.243 -0.3237  0.8465  1.0978
   30SAPC   C11 3965   2.335   0.467   6.167 -0.1279 -0.9519 -0.9154
   30SAPC  H11A 3966   2.309   0.361   6.189 -0.5430 -0.7954 -0.6289
   30SAPC  H11B 3967   2.251   0.513   6.111 -0.0124  1.1792  0.6014
   30SAPC     P 3968   2.326   0.706   6.296 -0.1227 -0.6442 -0.1864
   30SAPC   O13 3969   2.365   0.768   6.170 -0.3632 -0.1121  0.0638
   30SAPC   O14 3970   2.184   0.732   6.344 -0.6017  0.2219 -0.0043
   30SAPC   O12 3971   2.347   0.549   6.286 -0.1329  0.1798 -0.2920
   30SAPC   O11 3972   2.436   0.750   6.404 -0.1375 -0.1611 -0.1903
   30SAPC    C1 3973   2.420   0.871   6.480  0.2432  0.5843  0.0512
   30SAPC    HA 3974   2.473   0.958   6.436 -0.2133  1.3782  1.0683
   30SAPC    HB 3975   2.316   0.909   6.483 -1.2629 -3.2748 -0.2512
   30SAPC    C2 3976   2.471   0.852   6.630  0.0402  0.0682  0.9825
   30SAPC    HS 3977   2.581   0.840   6.631  0.1534  1.0525  0.2541
   30SAPC   O21 3978   2.409   0.738   6.680  0.1017 -0.5022 -0.2816
   30SAPC   C21 3979   2.478   0.649   6.760 -0.8173  0.3098  0.5125
   30SAPC   O22 3980   2.595   0.657   6.797 -0.1457 -0.1350  0.1056
   30SAPC   C22 3981   2.374   0.563   6.832  0.5099 -1.1496 -0.1757
   30SAPC   H2R 3982   2.287   0.614   6.878 -0.7628 -3.0623 -0.4049
   30SAPC   H2S 3983   2.342   0.495   6.751  0.3858 -0.6398 -0.5574
   30SAPC    C3 3984   2.431   0.973   6.723  0.1749 -1.1212  0.0517
   30SAPC    HX 3985   2.325   1.000   6.705 -0.0010 -1.0697  1.1123
   30SAPC    HY 3986   2.484   1.062   6.683 -0.3082 -0.5338  0.6941
   30SAPC   O31 3987   2.466   0.949   6.860  0.7806 -0.6202 -0.2055
   30SAPC   C31 3988   2.369   0.893   6.934 -0.2586 -0.3154  0.8376
   30SAPC   O32 3989   2.264   0.853   6.886  0.8724  0.0396  0.3701
   30SAPC   C32 3990   2.402   0.894   7.079  0.5211  0.7249  0.0636
   30SAPC   H2X 3991   2.447   0.993   7.096 -0.1014  0.9194  0.5783
   30SAPC   H2Y 3992   2.480   0.818   7.103  2.5810  2.0446 -2.2153
   30SAPC   C23 3993   2.435   0.486   6.953 -0.3665  0.8490  0.1717
   30SAPC   H3R 3994   2.463   0.563   7.027  2.1938  1.5636 -1.4863
   30SAPC   H3S 3995   2.533   0.438   6.931 -0.4754  0.0811  1.3246
   30SAPC   C24 3996   2.353   0.364   7.004 -0.4107  0.1060  0.1188
   30SAPC   H4R 3997   2.349   0.304   6.910  2.3879 -2.0778  1.3000
   30SAPC   H4S 3998   2.255   0.410   7.026 -1.0949 -1.3938  0.1860
   30SAPC   C25 3999   2.417   0.286   7.116  0.1908 -0.1177  0.2294
   30SAPC   H5R 4000   2.463   0.194   7.076  0.3369  0.0007  0.1210
   30SAPC   C26 4001   2.420   0.297   7.251  0.2292 -0.2320  0.1534
   30SAPC   H6R 4002   2.472   0.220   7.310  1.0169  0.3720  0.2522
   30SAPC   C27 4003   2.362   0.412   7.327  0.3088  0.6376  0.0977
   30SAPC   H7R 4004   2.266   0.384   7.377  1.9447 -0.1341  2.9418
   30SAPC   H7S 4005   2.328   0.492   7.258 -2.6502  0.1396  0.9009
   30SAPC   C28 4006   2.458   0.468   7.421  0.3097 -0.4049 -0.6882
   30SAPC   H8R 4007   2.527   0.527   7.358  0.4208  0.8346  0.5511
   30SAPC   C29 4008   2.455   0.484   7.556  0.3764  0.2281 -0.1336
   30SAPC   H9R 4009   2.529   0.552   7.599  0.7614 -0.1849 -0.1434
   30SAPC  C210 4010   2.356   0.423   7.649 -0.0072  0.5374  0.3330
   30SAPC  H10R 4011   2.371   0.313   7.642  2.0538  0.9142 -1.8692
   30SAPC  H10S 4012   2.251   0.450   7.625  0.4497  1.4795 -0.6397
   30SAPC  C211 4013   2.391   0.463   7.791  0.2706 -0.0087  0.3928
   30SAPC  H11R 4014   2.419   0.570   7.795  1.9320 -0.4894  1.7557
   30SAPC  C212 4015   2.385   0.389   7.900 -0.4140  0.7776 -0.0024
   30SAPC  H12R 4016   2.430   0.438   7.988 -2.5411  3.3506 -0.2635
   30SAPC  C213 4017   2.347   0.248   7.916  0.5448 -0.5019 -0.5158
   30SAPC  H13R 4018   2.437   0.187   7.895  1.0185 -0.4979  1.4840
   30SAPC  H13S 4019   2.273   0.205   7.844 -0.6891 -2.2934  1.7568
   30SAPC  C214 4020   2.305   0.212   8.051 -0.3286 -0.4241  0.3812
   30SAPC  H14R 4021   2.197   0.198   8.068 -0.5273  0.5015 -0.1218
   30SAPC  C215 4022   2.380   0.194   8.165 -0.3650  0.3264  0.1797
   30SAPC  H15R 4023   2.340   0.171   8.264 -0.3232  1.3642  0.4446
   30SAPC  C216 4024   2.533   0.194   8.164  0.5619  0.3811 -0.0944
   30SAPC  H16R 4025   2.559   0.238   8.066 -2.3851  0.0055 -1.0943
   30SAPC  H16S 4026   2.575   0.091   8.155  0.1492  0.1740  0.3325
   30SAPC  C217 4027   2.598   0.259   8.288 -0.8484  0.1128 -0.4068
   30SAPC  H17R 4028   2.704   0.231   8.269 -0.1725  1.8008  0.8575
   30SAPC  H17S 4029   2.555   0.224   8.384  0.6080  1.7768  0.8788
   30SAPC  C218 4030   2.583   0.414   8.299 -0.8459 -0.8367 -0.5069
   30SAPC  H18R 4031   2.483   0.426   8.345 -1.3676 -2.1361 -1.2975
   30SAPC  H18S 4032   2.588   0.463   8.200  0.6448  0.2435  0.0790
   30SAPC  C219 4033   2.682   0.482   8.393 -0.7194  0.3884 -0.3002
   30SAPC  H19R 4034   2.653   0.439   8.490  0.7644  1.8026  0.8043
   30SAPC  H19S 4035   2.670   0.593   8.396  0.7856  0.5470  0.8567
   30SAPC  C220 4036   2.828   0.456   8.366 -0.1489 -0.1306  0.0083
   30SAPC  H20R 4037   2.850   0.347   8.373 -0.2147 -0.1751 -0.5047
   30SAPC  H20S 4038   2.876   0.526   8.438 -0.1865  0.6411 -0.7139
   30SAPC  H20T 4039   2.845   0.485   8.260  0.0391 -0.5939 -0.0871
   30SAPC   C33 4040   2.277   0.864   7.166  0.2195 -0.2167 -0.2394
   30SAPC   H3X 4041   2.240   0.761   7.144 -0.0238  0.4692 -3.3650
   30SAPC   H3Y 4042   2.186   0.921   7.137  1.0237  0.9286 -0.5419
   30SAPC   C34 4043   2.308   0.904   7.316 -0.2559 -0.3095  0.2129
   30SAPC   H4X 4044   2.332   1.012   7.313 -0.4199 -0.1251  3.3473
   30SAPC   H4Y 4045   2.401   0.857   7.355  0.6308  0.2329 -1.1941
   30SAPC   C35 4046   2.197   0.867   7.406 -1.0750  0.1858  0.2185
   30SAPC   H5X 4047   2.192   0.756   7.400  0.0855  0.0623  1.3606
   30SAPC   H5Y 4048   2.100   0.918   7.387 -2.3331 -0.6632  3.9513
   30SAPC   C36 4049   2.239   0.900   7.553  0.7061 -0.0679  0.4153
   30SAPC   H6X 4050   2.228   1.009   7.573  1.4372  0.3303 -1.2762
   30SAPC   H6Y 4051   2.346   0.871   7.564  1.2257  1.4690 -0.4586
   30SAPC   C37 4052   2.149   0.828   7.658  0.2984 -0.7823 -0.2869
   30SAPC   H7X 4053   2.163   0.720   7.636  1.5552 -1.3284  3.0156
   30SAPC   H7Y 4054   2.045   0.865   7.646 -0.1595 -1.4917  1.3467
   30SAPC   C38 4055   2.196   0.862   7.802 -1.0076 -0.4477  0.4227
   30SAPC   H8X 4056   2.204   0.973   7.802 -0.3317 -0.4226 -3.3216
   30SAPC   H8Y 4057   2.298   0.821   7.819  0.3472  2.7948  0.4623
   30SAPC   C39 4058   2.112   0.813   7.921  0.0277 -0.0166 -0.5468
   30SAPC   H9X 4059   2.136   0.705   7.931 -1.2794 -0.3510 -0.8952
   30SAPC   H9Y 4060   2.006   0.833   7.894 -0.2975 -0.9836 -0.0129
   30SAPC  C310 4061   2.146   0.894   8.044 -0.5007  0.3131 -0.3368
   30SAPC  H10X 4062   2.148   1.002   8.019  1.7122  0.7060  1.4089
   30SAPC  H10Y 4063   2.249   0.865   8.073  0.0098  0.2498 -2.1616
   30SAPC  C311 4064   2.057   0.867   8.167  0.7115 -0.3590  0.4086
   30SAPC  H11X 4065   1.956   0.910   8.147  1.6782  0.7275 -2.3625
   30SAPC  H11Y 4066   2.099   0.925   8.252  0.1999  3.7380 -1.9447
   30SAPC  C312 4067   2.027   0.720   8.193  0.6739  0.0496  0.2411
   30SAPC  H12X 4068   1.980   0.681   8.101 -0.9887 -0.3487  1.2452
   30SAPC  H12Y 4069   1.956   0.711   8.278  0.8846 -0.1345  0.4000
   30SAPC  C313 4070   2.152   0.631   8.218 -0.5527 -0.5100 -0.0913
   30SAPC  H13X 4071   2.202   0.653   8.315 -1.2683  0.4036  0.0773
   30SAPC  H13Y 4072   2.221   0.643   8.132  0.6636 -2.3517  0.6011
   30SAPC  C314 4073   2.112   0.472   8.220 -0.0578  0.9186  0.5124
   30SAPC  H14X 4074   2.214   0.427   8.221  0.3003  1.7245  1.8164
   30SAPC  H14Y 4075   2.055   0.447   8.129 -0.3337  0.1506  0.8884
   30SAPC  C315 4076   2.041   0.436   8.349  0.5562 -0.3876  0.0867
   30SAPC  H15X 4077   1.933   0.458   8.336  0.4951 -0.5673  0.2751
   30SAPC  H15Y 4078   2.074   0.496   8.437  0.4054 -1.2269  0.7166
   30SAPC  C316 4079   2.046   0.291   8.388  0.3085 -0.5670  0.7671
   30SAPC  H16X 4080   2.151   0.257   8.379  0.4562  0.3924 -1.5254
   30SAPC  H16Y 4081   2.000   0.235   8.303 -1.1560  1.4973  0.1561
   30SAPC  C317 4082   1.987   0.269   8.529 -0.4793  0.2320 -0.0247
   30SAPC  H17X 4083   2.037   0.337   8.602  1.0143  0.1328 -0.9519
   30SAPC  H17Y 4084   2.006   0.163   8.558 -1.3413  0.1876  0.4010
   30SAPC  C318 4085   1.833   0.286   8.530 -0.4901  0.0559 -0.3002
   30SAPC  H18X 4086   1.795   0.283   8.634 -2.1217 -0.9913 -0.9049
   30SAPC  H18Y 4087   1.786   0.205   8.470 -0.5586  0.2776 -0.5452
   30SAPC  H18Z 4088   1.807   0.381   8.478  0.1002  0.0063 -0.6890
   31SAPC     N 4089   3.636   2.022   6.353 -0.2884 -0.1608  0.3126
   31SAPC   C12 4090   3.486   1.989   6.373  0.0121  0.3664 -0.9839
   31SAPC  H12A 4091   3.440   2.056   6.444 -0.7395 -2.3228  1.1695
   31SAPC  H12B 4092   3.482   1.890   6.416  1.8461  0.7094  0.0412
   31SAPC   C13 4093   3.709   1.916   6.288 -0.5128 -0.4305 -0.0458
   31SAPC  H13A 4094   3.660   1.872   6.203 -1.0149  0.4779 -0.2315
   31SAPC  H13B 4095   3.803   1.959   6.256 -0.2117 -1.7105 -0.8875
   31SAPC  H13C 4096   3.729   1.840   6.362 -0.6468  0.0707  0.5114
   31SAPC   C14 4097   3.657   2.154   6.282 -0.4947 -0.2996  0.2927
   31SAPC  H14A 4098   3.593   2.230   6.324  2.5502  2.0181  0.8527
   31SAPC  H14B 4099   3.759   2.181   6.306 -0.9203  1.7066 -0.0842
   31SAPC  H14C 4100   3.648   2.146   6.174  0.6636  1.4553  0.0538
   31SAPC   C15 4101   3.700   2.042   6.483 -0.2456 -0.2594  0.1378
   31SAPC  H15A 4102   3.708   1.957   6.549  1.6442 -0.0407  0.2194
   31SAPC  H15B 4103   3.804   2.065   6.465 -0.7609  0.3808 -2.2451
   31SAPC  H15C 4104   3.659   2.134   6.522 -2.2591 -1.2260  0.3569
   31SAPC   C11 4105   3.411   2.006   6.237  0.0373  0.1008  0.2590
   31SAPC  H11A 4106   3.476   1.984   6.150 -0.0002  0.7931  0.0552
   31SAPC  H11B 4107   3.394   2.115   6.226 -1.3807 -0.2193 -0.9024
   31SAPC     P 4108   3.286   1.768   6.251 -0.0124  0.5749 -0.5055
   31SAPC   O13 4109   3.151   1.720   6.221 -0.0420 -0.6002 -0.0060
   31SAPC   O14 4110   3.401   1.702   6.184 -0.3271 -0.8589 -0.5774
   31SAPC   O12 4111   3.290   1.921   6.225 -0.4086  0.3870  0.3824
   31SAPC   O11 4112   3.312   1.756   6.408 -0.0841 -0.1047  0.3270
   31SAPC    C1 4113   3.206   1.787   6.508 -0.4149 -1.0765  0.1727
   31SAPC    HA 4114   3.138   1.865   6.469  0.9848  0.0240 -0.0982
   31SAPC    HB 4115   3.157   1.690   6.532  0.3679 -1.7964 -1.0162
   31SAPC    C2 4116   3.273   1.850   6.632  1.3412 -0.0138  0.1403
   31SAPC    HS 4117   3.324   1.944   6.601 -0.7091  0.7481 -1.0821
   31SAPC   O21 4118   3.359   1.758   6.693  0.2205 -0.1882 -0.0625
   31SAPC   C21 4119   3.473   1.803   6.729  0.7138 -0.1942 -0.4207
   31SAPC   O22 4120   3.538   1.893   6.683  0.8566 -0.5649  0.0988
   31SAPC   C22 4121   3.525   1.704   6.837 -0.2418 -0.0164  0.2943
   31SAPC   H2R 4122   3.448   1.694   6.917  0.6908 -1.9740  0.9777
   31SAPC   H2S 4123   3.543   1.602   6.797 -0.9265 -0.4232  0.9873
   31SAPC    C3 4124   3.164   1.882   6.728 -0.1235  0.2842  1.0806
   31SAPC    HX 4125   3.110   1.785   6.736 -0.9094  0.5292 -0.9802
   31SAPC    HY 4126   3.092   1.955   6.686 -1.9312 -1.8480  0.3400
   31SAPC   O31 4127   3.213   1.923   6.861  0.3228  0.1141 -0.0212
   31SAPC   C31 4128   3.252   2.048   6.864  0.4519  0.5737 -0.1410
   31SAPC   O32 4129   3.229   2.127   6.778 -0.3848  0.5121 -0.0047
   31SAPC   C32 4130   3.328   2.073   6.991 -0.1962 -0.2263  0.5847
   31SAPC   H2X 4131   3.309   2.176   7.027  0.0056 -0.3492  1.0506
   31SAPC   H2Y 4132   3.436   2.058   6.968 -0.4854 -1.5582  0.0897
   31SAPC   C23 4133   3.653   1.758   6.906 -0.0581  0.1167  0.2810
   31SAPC   H3R 4134   3.635   1.849   6.967  2.6354  1.7455 -1.2294
   31SAPC   H3S 4135   3.728   1.782   6.827  0.0155  0.5364  0.4750
   31SAPC   C24 4136   3.725   1.654   7.000 -0.0490  0.2742 -0.0509
   31SAPC   H4R 4137   3.646   1.628   7.073 -0.6361  0.6092 -0.5605
   31SAPC   H4S 4138   3.808   1.701   7.057 -0.1438  0.7454 -0.2956
   31SAPC   C25 4139   3.773   1.534   6.924  0.3324 -0.1172  0.1631
   31SAPC   H5R 4140   3.803   1.553   6.820  0.7527 -0.8380  0.1491
   31SAPC   C26 4141   3.798   1.413   6.969 -0.7584  0.3135 -0.4838
   31SAPC   H6R 4142   3.829   1.331   6.902  1.0132 -0.2924  1.0330
   31SAPC   C27 4143   3.784   1.373   7.112  0.1204  0.4676  0.3253
   31SAPC   H7R 4144   3.686   1.391   7.159 -0.3644  1.2042 -0.9318
   31SAPC   H7S 4145   3.874   1.415   7.161  0.0321  2.9994 -1.5572
   31SAPC   C28 4146   3.804   1.224   7.125  0.2693  0.6724 -0.3890
   31SAPC   H8R 4147   3.775   1.166   7.036 -3.4542 -1.0162  1.8058
   31SAPC   C29 4148   3.821   1.148   7.235 -0.1395 -0.0669 -0.2371
   31SAPC   H9R 4149   3.819   1.039   7.222  3.2962 -0.1742 -0.1786
   31SAPC  C210 4150   3.840   1.193   7.382  0.3356  0.5832 -0.0567
   31SAPC  H10R 4151   3.886   1.293   7.397  0.7152  0.3160  0.6203
   31SAPC  H10S 4152   3.919   1.125   7.421 -0.2567 -0.4236 -0.6018
   31SAPC  C211 4153   3.720   1.166   7.463  0.0707  0.7472  0.0384
   31SAPC  H11R 4154   3.661   1.075   7.440  0.5301  0.6207 -0.6400
   31SAPC  C212 4155   3.665   1.246   7.554 -0.4270  0.2330 -0.7609
   31SAPC  H12R 4156   3.586   1.202   7.616 -1.1110  0.0149 -1.7835
   31SAPC  C213 4157   3.729   1.375   7.599  0.0722 -0.1274  0.9269
   31SAPC  H13R 4158   3.739   1.442   7.511 -0.9407  0.6274  1.3914
   31SAPC  H13S 4159   3.833   1.372   7.638  1.2162  2.1589 -1.7423
   31SAPC  C214 4160   3.649   1.449   7.700  0.4137  0.2172 -0.6095
   31SAPC  H14R 4161   3.580   1.532   7.676 -0.2060 -0.3864 -0.9281
   31SAPC  C215 4162   3.647   1.420   7.835 -0.2332 -0.3806 -0.7622
   31SAPC  H15R 4163   3.597   1.487   7.907  1.1225 -0.6745  0.4957
   31SAPC  C216 4164   3.732   1.307   7.901 -1.0911  0.2211  1.0875
   31SAPC  H16R 4165   3.816   1.352   7.958  1.1677 -0.7380 -1.3822
   31SAPC  H16S 4166   3.777   1.240   7.824 -0.9474  2.1152 -0.5209
   31SAPC  C217 4167   3.643   1.238   8.010  0.7999  0.1562 -0.5375
   31SAPC  H17R 4168   3.538   1.227   7.976  1.3430  0.3729 -2.3191
   31SAPC  H17S 4169   3.649   1.297   8.104 -0.0862 -1.2329  0.4216
   31SAPC  C218 4170   3.710   1.102   8.039 -0.0208 -0.3684  0.1103
   31SAPC  H18R 4171   3.819   1.124   8.037 -0.1234  0.5806  2.9000
   31SAPC  H18S 4172   3.686   1.023   7.964 -2.7396 -1.5865  2.1417
   31SAPC  C219 4173   3.696   1.053   8.185 -0.5425 -0.1146  0.3274
   31SAPC  H19R 4174   3.715   1.135   8.257 -0.3613 -1.4606  1.8321
   31SAPC  H19S 4175   3.765   0.968   8.204  0.5253  0.8901  1.0101
   31SAPC  C220 4176   3.559   0.984   8.218 -0.0350 -0.0117  1.3265
   31SAPC  H20R 4177   3.478   1.059   8.200  0.2847 -0.4988 -2.3812
   31SAPC  H20S 4178   3.562   0.946   8.323  0.0520 -1.5758  0.7684
   31SAPC  H20T 4179   3.536   0.899   8.151  0.9324  0.2197  0.6929
   31SAPC   C33 4180   3.288   1.995   7.123 -0.3096  0.4565 -1.0768
   31SAPC   H3X 4181   3.180   1.971   7.130  0.1193 -1.1101  0.5828
   31SAPC   H3Y 4182   3.316   2.056   7.212  2.0823  0.0848 -1.5382
   31SAPC   C34 4183   3.373   1.870   7.146 -0.1007 -0.2362 -0.1070
   31SAPC   H4X 4184   3.478   1.903   7.132 -0.0645  0.9252  2.5593
   31SAPC   H4Y 4185   3.357   1.801   7.061 -0.4026 -0.7394  0.3570
   31SAPC   C35 4186   3.344   1.798   7.282  0.3109  0.4880 -0.5875
   31SAPC   H5X 4187   3.238   1.765   7.287  1.1706 -2.4054 -0.5383
   31SAPC   H5Y 4188   3.359   1.877   7.359  1.3782  0.0411 -0.3361
   31SAPC   C36 4189   3.448   1.688   7.305 -0.1496 -0.5609  0.0416
   31SAPC   H6X 4190   3.545   1.721   7.262 -0.3589  0.3249  0.2293
   31SAPC   H6Y 4191   3.415   1.602   7.243  1.6674 -0.1865 -1.5061
   31SAPC   C37 4192   3.460   1.660   7.461 -0.0134 -0.2683 -0.3056
   31SAPC   H7X 4193   3.529   1.735   7.506 -0.0818  0.4559 -1.3748
   31SAPC   H7Y 4194   3.506   1.560   7.472 -0.0119 -0.0135  2.2343
   31SAPC   C38 4195   3.326   1.665   7.537 -0.8640  0.7608 -0.2795
   31SAPC   H8X 4196   3.238   1.628   7.481  0.0016 -0.4732 -0.8383
   31SAPC   H8Y 4197   3.310   1.774   7.550  0.1059  0.8336  0.3783
   31SAPC   C39 4198   3.329   1.608   7.678 -0.6600  0.7955  0.4995
   31SAPC   H9X 4199   3.413   1.653   7.735 -1.2701  0.6395  1.5431
   31SAPC   H9Y 4200   3.354   1.501   7.662  1.6439  1.6787 -2.4558
   31SAPC  C310 4201   3.201   1.627   7.756 -0.0582  0.3906 -0.2770
   31SAPC  H10X 4202   3.119   1.584   7.695  0.2646  0.5816 -0.8449
   31SAPC  H10Y 4203   3.167   1.733   7.761 -0.9227  0.2334 -2.3835
   31SAPC  C311 4204   3.195   1.559   7.890  0.2849 -0.7321  0.4283
   31SAPC  H11X 4205   3.264   1.472   7.886 -2.2013 -2.7025 -0.4726
   31SAPC  H11Y 4206   3.094   1.529   7.922  0.1967 -0.6762  0.2059
   31SAPC  C312 4207   3.264   1.655   7.993 -0.0118  0.0708  0.3245
   31SAPC  H12X 4208   3.193   1.740   7.987 -0.6853 -0.5880 -1.1834
   31SAPC  H12Y 4209   3.367   1.691   7.974 -0.0820  0.1646  0.1230
   31SAPC  C313 4210   3.259   1.589   8.127 -0.0144 -0.5872 -0.7247
   31SAPC  H13X 4211   3.172   1.520   8.125 -0.6879  0.2716 -1.5167
   31SAPC  H13Y 4212   3.246   1.668   8.204 -3.3569 -2.4711  0.7788
   31SAPC  C314 4213   3.381   1.504   8.162 -0.3687  0.5270  0.2946
   31SAPC  H14X 4214   3.476   1.536   8.114 -0.1175 -0.9588 -0.2255
   31SAPC  H14Y 4215   3.365   1.403   8.117 -2.0756  0.8130  0.2310
   31SAPC  C315 4216   3.417   1.495   8.316  1.1126  0.2689  0.0416
   31SAPC  H15X 4217   3.322   1.522   8.367  0.7889  0.6145 -0.7329
   31SAPC  H15Y 4218   3.494   1.566   8.351  0.7950  0.5278  0.2250
   31SAPC  C316 4219   3.473   1.355   8.359  0.0978  0.4091  0.8732
   31SAPC  H16X 4220   3.576   1.357   8.318 -0.4975  1.4191 -0.5999
   31SAPC  H16Y 4221   3.413   1.282   8.301  1.4732  0.8180 -1.1186
   31SAPC  C317 4222   3.448   1.330   8.508 -0.5691  0.1032 -0.9853
   31SAPC  H17X 4223   3.338   1.336   8.521 -0.4129  0.1410  0.4040
   31SAPC  H17Y 4224   3.509   1.401   8.567  1.5897 -1.4842 -1.2399
   31SAPC  C318 4225   3.483   1.183   8.554  0.3819 -0.6972 -0.1497
   31SAPC  H18X 4226   3.592   1.165   8.542  0.3000 -1.0227 -0.4115
   31SAPC  H18Y 4227   3.436   1.112   8.482  2.1066 -0.9750 -1.0342
   31SAPC  H18Z 4228   3.446   1.158   8.655 -0.3843 -0.7746 -0.4388
   32SAPC     N 4229   5.520   3.653   6.144 -0.2826  0.4120 -0.1995
   32SAPC   C12 4230   5.510   3.546   6.250 -0.9151  0.5881  0.3925
   32SAPC  H12A 4231   5.576   3.571   6.332 -1.8088 -0.0365  1.3173
   32SAPC  H12B 4232   5.547   3.454   6.209  1.3924  1.1438  1.1513
   32SAPC   C13 4233   5.658   3.650   6.088 -0.3404 -0.1688  1.1416
   32SAPC  H13A 4234   5.668   3.550   6.049  0.8561  0.1654  0.5513
   32SAPC  H13B 4235   5.654   3.710   5.998 -2.7379  0.0483  1.3715
   32SAPC  H13C 4236   5.746   3.666   6.149  0.3105 -0.4181  0.2861
   32SAPC   C14 4237   5.425   3.628   6.024 -0.3806  0.1498 -0.2447
   32SAPC  H14A 4238   5.427   3.704   5.948  1.3502 -0.8823 -1.2776
   32SAPC  H14B 4239   5.458   3.539   5.971  1.1535  0.6676 -0.1988
   32SAPC  H14C 4240   5.322   3.608   6.050 -0.3708  0.8503  0.3464
   32SAPC   C15 4241   5.485   3.785   6.210  0.1277  1.0171  0.6020
   32SAPC  H15A 4242   5.560   3.797   6.286  1.6341 -2.4132 -0.2580
   32SAPC  H15B 4243   5.485   3.868   6.140  1.7247  1.2936  0.9087
   32SAPC  H15C 4244   5.385   3.794   6.249 -1.1516 -0.8185 -2.1138
   32SAPC   C11 4245   5.370   3.502   6.298 -0.0759  1.0260  0.6223
   32SAPC  H11A 4246   5.316   3.584   6.351 -0.4630  2.2874 -1.6405
   32SAPC  H11B 4247   5.381   3.429   6.380 -1.1898 -1.3662 -1.2937
   32SAPC     P 4248   5.276   3.309   6.163 -0.0557 -0.0178 -0.0055
   32SAPC   O13 4249   5.184   3.296   6.049 -0.1462  0.1666 -0.2603
   32SAPC   O14 4250   5.416   3.262   6.154 -0.5725  0.6432  0.1974
   32SAPC   O12 4251   5.284   3.466   6.192  0.3719  0.3118  0.4229
   32SAPC   O11 4252   5.202   3.247   6.291 -0.4505  0.0627  0.1679
   32SAPC    C1 4253   5.261   3.134   6.364  0.0536 -0.6551  1.0647
   32SAPC    HA 4254   5.256   3.048   6.294 -2.2591  0.5533 -0.3358
   32SAPC    HB 4255   5.367   3.149   6.394  0.6320  1.2544 -1.7302
   32SAPC    C2 4256   5.176   3.099   6.488 -0.5135  0.5087  0.8276
   32SAPC    HS 4257   5.070   3.130   6.472 -0.0788  2.6671  1.8983
   32SAPC   O21 4258   5.238   3.170   6.597 -0.0235 -0.0368  0.7731
   32SAPC   C21 4259   5.160   3.216   6.680 -0.3025 -0.0914 -1.2778
   32SAPC   O22 4260   5.039   3.213   6.680  0.9115  0.2753 -0.2657
   32SAPC   C22 4261   5.261   3.275   6.785  0.1301 -0.2287 -0.0964
   32SAPC   H2R 4262   5.209   3.316   6.874  0.4927  2.6244 -1.1364
   32SAPC   H2S 4263   5.330   3.190   6.806  3.0728  2.4732  1.6651
   32SAPC    C3 4264   5.183   2.948   6.509  0.3886  0.0056  0.2535
   32SAPC    HX 4265   5.290   2.920   6.509  0.3292 -0.2373  0.7941
   32SAPC    HY 4266   5.142   2.891   6.423  1.9870  0.8916 -1.1344
   32SAPC   O31 4267   5.117   2.909   6.629  0.2192 -0.8031  0.3327
   32SAPC   C31 4268   4.990   2.868   6.621 -0.2071  0.3142 -0.1662
   32SAPC   O32 4269   4.915   2.883   6.525 -0.4384 -0.0973  0.0468
   32SAPC   C32 4270   4.943   2.825   6.757  0.7124  0.4992 -1.0005
   32SAPC   H2X 4271   4.909   2.915   6.813  1.6898  0.3025 -0.0650
   32SAPC   H2Y 4272   5.030   2.787   6.815  1.5326  1.4432 -1.5801
   32SAPC   C23 4273   5.360   3.378   6.734 -1.1055  0.0672  0.1031
   32SAPC   H3R 4274   5.307   3.463   6.688  1.6904  0.7124 -2.0206
   32SAPC   H3S 4275   5.421   3.330   6.654 -0.2777 -2.8324  2.3566
   32SAPC   C24 4276   5.461   3.430   6.845  0.0497 -0.4056 -0.4395
   32SAPC   H4R 4277   5.394   3.472   6.923 -1.5568 -2.1063 -0.8633
   32SAPC   H4S 4278   5.508   3.517   6.793  0.9780 -0.0134  1.0467
   32SAPC   C25 4279   5.553   3.329   6.900  0.4691 -0.1260 -0.0882
   32SAPC   H5R 4280   5.630   3.288   6.833 -1.0381 -2.8111 -0.2362
   32SAPC   C26 4281   5.561   3.281   7.026 -0.6367  0.6458 -0.1622
   32SAPC   H6R 4282   5.654   3.226   7.048  0.0828  1.6882 -0.5466
   32SAPC   C27 4283   5.475   3.332   7.142  0.2758 -0.7403 -0.0208
   32SAPC   H7R 4284   5.380   3.379   7.109  1.2011 -0.4566 -2.3663
   32SAPC   H7S 4285   5.532   3.412   7.195  0.2238 -0.6230 -0.1422
   32SAPC   C28 4286   5.468   3.226   7.252  0.6030 -0.4891  0.3810
   32SAPC   H8R 4287   5.565   3.194   7.292  3.1406  2.9593 -2.6563
   32SAPC   C29 4288   5.354   3.185   7.311 -0.1138 -0.5625 -0.6694
   32SAPC   H9R 4289   5.371   3.097   7.375  1.1058 -0.4448 -0.8202
   32SAPC  C210 4290   5.206   3.220   7.278  0.6107 -0.3548  0.1771
   32SAPC  H10R 4291   5.144   3.151   7.338  0.4359 -0.3970 -0.0496
   32SAPC  H10S 4292   5.189   3.209   7.169  0.4902 -0.1891  0.1778
   32SAPC  C211 4293   5.170   3.366   7.312  0.0169 -0.6066 -0.4760
   32SAPC  H11R 4294   5.245   3.445   7.293 -1.6076  1.4121  1.1866
   32SAPC  C212 4295   5.060   3.415   7.377  0.4492  0.5437 -0.1103
   32SAPC  H12R 4296   5.056   3.522   7.401 -0.4520  0.6075 -0.5160
   32SAPC  C213 4297   4.941   3.330   7.416  0.3042  0.8715 -0.2877
   32SAPC  H13R 4298   4.936   3.318   7.526 -1.0224  0.3879 -0.3924
   32SAPC  H13S 4299   4.933   3.230   7.369  0.0804  0.9731 -0.4675
   32SAPC  C214 4300   4.820   3.403   7.361  0.2993 -0.1550 -0.6455
   32SAPC  H14R 4301   4.798   3.380   7.256 -1.8303  1.3856 -0.5498
   32SAPC  C215 4302   4.750   3.505   7.411  0.0687  0.3683 -0.0582
   32SAPC  H15R 4303   4.663   3.553   7.362 -1.0155 -0.7471  0.7608
   32SAPC  C216 4304   4.787   3.568   7.549  1.1339  0.5242  1.1120
   32SAPC  H16R 4305   4.825   3.668   7.516  0.5703 -0.4418 -2.7423
   32SAPC  H16S 4306   4.867   3.508   7.597  0.5637 -0.3760  0.9261
   32SAPC  C217 4307   4.663   3.575   7.640 -0.0794 -0.1411 -0.7643
   32SAPC  H17R 4308   4.634   3.471   7.668  1.2437  0.2267  2.1236
   32SAPC  H17S 4309   4.578   3.613   7.579 -1.4029 -0.5676  0.7707
   32SAPC  C218 4310   4.699   3.674   7.750  0.4536 -0.0190 -0.3928
   32SAPC  H18R 4311   4.730   3.771   7.706 -0.0565  0.3197 -0.0140
   32SAPC  H18S 4312   4.781   3.632   7.812  0.5092  0.3836 -0.1901
   32SAPC  C219 4313   4.572   3.696   7.831  0.6214 -0.4256  0.0663
   32SAPC  H19R 4314   4.531   3.596   7.858 -0.9559 -0.5924 -2.7536
   32SAPC  H19S 4315   4.500   3.754   7.769  1.7534  1.1890  0.2384
   32SAPC  C220 4316   4.584   3.787   7.952 -0.0992 -0.3957  0.7399
   32SAPC  H20R 4317   4.481   3.819   7.981 -0.2683  2.9203 -3.0580
   32SAPC  H20S 4318   4.646   3.873   7.919 -0.4603 -0.7679 -0.9614
   32SAPC  H20T 4319   4.634   3.740   8.039 -0.3165 -2.3691 -0.1790
   32SAPC   C33 4320   4.837   2.717   6.752 -0.6854 -0.1724  0.4077
   32SAPC   H3X 4321   4.877   2.622   6.709 -2.0181  0.8185 -3.2473
   32SAPC   H3Y 4322   4.757   2.743   6.679  0.9850  0.8107 -1.1020
   32SAPC   C34 4323   4.775   2.698   6.890 -0.4859  0.9133  0.2231
   32SAPC   H4X 4324   4.745   2.799   6.926  0.7612  1.2874  0.2145
   32SAPC   H4Y 4325   4.846   2.651   6.961 -0.1524 -0.3474 -0.9268
   32SAPC   C35 4326   4.646   2.612   6.870  0.1717 -0.2744 -0.4930
   32SAPC   H5X 4327   4.672   2.514   6.826 -1.7741 -0.9616 -0.1503
   32SAPC   H5Y 4328   4.585   2.660   6.791  0.8143  2.0151  0.3674
   32SAPC   C36 4329   4.548   2.591   6.986 -0.0538 -1.0648 -0.6751
   32SAPC   H6X 4330   4.447   2.554   6.959  0.2130 -2.5284  0.2827
   32SAPC   H6Y 4331   4.521   2.694   7.018  1.0554 -0.4824 -1.6245
   32SAPC   C37 4332   4.609   2.531   7.117 -0.4672 -0.1091 -0.0812
   32SAPC   H7X 4333   4.695   2.587   7.161  0.0058  0.1924 -1.3740
   32SAPC   H7Y 4334   4.649   2.429   7.098  1.5826  0.6613 -0.1102
   32SAPC   C38 4335   4.509   2.530   7.231  0.1589 -0.0797 -0.1543
   32SAPC   H8X 4336   4.421   2.470   7.199 -0.3930  0.3173  0.6126
   32SAPC   H8Y 4337   4.474   2.633   7.251 -0.6305 -0.6824  1.6437
   32SAPC   C39 4338   4.570   2.474   7.362  0.7061  0.1651  0.0652
   32SAPC   H9X 4339   4.660   2.534   7.389  1.1882  0.0033 -1.1512
   32SAPC   H9Y 4340   4.618   2.375   7.351  0.2329  0.1274 -1.8492
   32SAPC  C310 4341   4.467   2.441   7.471 -0.5945  0.5246  0.0421
   32SAPC  H10X 4342   4.497   2.358   7.539  0.4951 -2.7356 -4.2094
   32SAPC  H10Y 4343   4.368   2.414   7.428 -0.3251  1.5470 -1.2486
   32SAPC  C311 4344   4.453   2.559   7.564  0.0570  0.5064  0.2322
   32SAPC  H11X 4345   4.444   2.650   7.501 -2.7278  0.1902  0.1340
   32SAPC  H11Y 4346   4.548   2.557   7.623 -1.1170 -0.1805  2.1478
   32SAPC  C312 4347   4.327   2.559   7.658  0.2421  0.2418  0.3527
   32SAPC  H12X 4348   4.335   2.453   7.691 -0.4998  0.1663  0.3020
   32SAPC  H12Y 4349   4.233   2.559   7.599 -0.5910 -0.2717  1.6666
   32SAPC  C313 4350   4.338   2.664   7.774 -0.1892 -0.0751 -0.6142
   32SAPC  H13X 4351   4.359   2.768   7.739  1.9817  0.8783  3.2249
   32SAPC  H13Y 4352   4.435   2.649   7.825  1.0933  2.0959 -2.3198
   32SAPC  C314 4353   4.222   2.671   7.869  0.1265 -0.3847  0.1712
   32SAPC  H14X 4354   4.210   2.572   7.917  0.1449 -0.2341  0.4900
   32SAPC  H14Y 4355   4.129   2.681   7.810 -1.0301 -0.0609  1.9994
   32SAPC  C315 4356   4.234   2.779   7.977  0.9326  0.4293 -0.0033
   32SAPC  H15X 4357   4.231   2.868   7.910  0.4614  0.9596  0.7269
   32SAPC  H15Y 4358   4.335   2.765   8.023  0.4639 -3.1363  0.1337
   32SAPC  C316 4359   4.109   2.776   8.078 -0.3691 -0.4189  0.0966
   32SAPC  H16X 4360   4.019   2.758   8.016 -2.5512  0.6426  2.8993
   32SAPC  H16Y 4361   4.104   2.866   8.142  1.2788 -0.1034 -0.1882
   32SAPC  C317 4362   4.115   2.647   8.172 -0.1538  0.2194  0.5530
   32SAPC  H17X 4363   4.114   2.558   8.106  1.9559 -0.3337  1.2288
   32SAPC  H17Y 4364   4.021   2.645   8.232  0.9292 -1.0319  2.2544
   32SAPC  C318 4365   4.226   2.634   8.275  0.4088  0.2301  0.2362
   32SAPC  H18X 4366   4.221   2.730   8.329 -1.1538 -0.6227  1.6303
   32SAPC  H18Y 4367   4.324   2.617   8.225 -0.5668 -0.3612 -1.5182
   32SAPC  H18Z 4368   4.213   2.548   8.343  0.1741 -0.2788 -0.4405
   33POPC     N 4369   3.206   2.519  10.960 -0.1660 -0.1737  0.3087
   33POPC   C12 4370   3.149   2.458  10.834  0.2261 -0.4825  0.4189
   33POPC  H12A 4371   3.106   2.362  10.858  0.0919 -0.0293  2.0807
   33POPC  H12B 4372   3.232   2.448  10.765 -0.9510  0.5600 -1.1964
   33POPC   C13 4373   3.297   2.424  11.025  0.6117  0.1761  0.3902
   33POPC  H13A 4374   3.383   2.397  10.967  0.0473 -1.9383  0.4636
   33POPC  H13B 4375   3.331   2.473  11.115  1.5914  0.6650 -0.2450
   33POPC  H13C 4376   3.241   2.335  11.051 -1.1578  0.4054 -2.3771
   33POPC   C14 4377   3.270   2.645  10.928  0.4873  0.2820 -0.2218
   33POPC  H14A 4378   3.356   2.636  10.863  1.3304 -2.2030  1.1282
   33POPC  H14B 4379   3.197   2.704  10.875  0.0958 -1.7539 -2.0271
   33POPC  H14C 4380   3.295   2.700  11.018 -0.0306  0.5314 -0.2305
   33POPC   C15 4381   3.080   2.539  11.049 -0.4434 -0.0676 -0.4674
   33POPC  H15A 4382   3.123   2.562  11.145 -0.5603 -1.3741 -0.0924
   33POPC  H15B 4383   3.022   2.449  11.055  0.7819 -0.8039  0.5513
   33POPC  H15C 4384   3.014   2.619  11.017 -1.4886 -0.3917  0.8452
   33POPC   C11 4385   3.043   2.548  10.769  0.1835 -0.3913  0.0074
   33POPC  H11A 4386   3.030   2.502  10.669 -2.8544 -1.3412  0.7781
   33POPC  H11B 4387   3.077   2.652  10.752  0.5806  0.0841  3.3503
   33POPC     P 4388   2.807   2.457  10.799 -0.2588 -0.3088 -0.0645
   33POPC   O13 4389   2.693   2.470  10.899  0.5660  0.0881  0.6616
   33POPC   O14 4390   2.877   2.324  10.777  0.0172  0.1114  0.1016
   33POPC   O12 4391   2.919   2.560  10.832 -0.1658 -0.1374 -0.4656
   33POPC   O11 4392   2.760   2.500  10.655  0.3354 -0.1247  0.3826
   33POPC    C1 4393   2.671   2.616  10.654  0.4584 -0.1427  0.3765
   33POPC    HA 4394   2.699   2.688  10.734  0.6388 -1.9155  1.9411
   33POPC    HB 4395   2.684   2.675  10.561 -0.0448  0.6830  0.8208
   33POPC    C2 4396   2.526   2.585  10.655  0.2496 -0.0553  0.3513
   33POPC    HS 4397   2.503   2.548  10.757  1.7273 -0.1531  0.6496
   33POPC   O21 4398   2.489   2.476  10.554 -0.6727 -0.0523  0.4214
   33POPC   C21 4399   2.369   2.434  10.573 -0.1568 -0.9589  0.4065
   33POPC   O22 4400   2.291   2.454  10.668  0.2509 -0.4287  0.4461
   33POPC   C22 4401   2.346   2.337  10.448 -0.4113 -0.0607 -0.5426
   33POPC   H2R 4402   2.421   2.256  10.457 -0.1457  0.0763 -1.5914
   33POPC   H2S 4403   2.370   2.398  10.359 -0.6143 -0.4208 -0.8474
   33POPC    C3 4404   2.448   2.722  10.646  0.2373  0.4804  0.4398
   33POPC    HX 4405   2.482   2.790  10.727  1.8970  1.0998 -0.7669
   33POPC    HY 4406   2.338   2.710  10.659 -0.2306  1.1518 -2.5242
   33POPC   O31 4407   2.474   2.790  10.517  0.4470 -0.0026 -0.1255
   33POPC   C31 4408   2.405   2.903  10.498  0.4469 -0.0360  1.0068
   33POPC   O32 4409   2.320   2.952  10.565  0.6207 -0.2251 -0.1897
   33POPC   C32 4410   2.450   2.968  10.361  0.0312 -0.2523  0.4788
   33POPC   H2X 4411   2.478   2.889  10.289  0.1265  0.3779 -0.1814
   33POPC   H2Y 4412   2.554   3.002  10.377 -0.5040  1.4669  0.4918
   33POPC   C23 4413   2.209   2.271  10.459 -0.3191 -0.4549  0.7352
   33POPC   H3R 4414   2.135   2.351  10.433 -0.1380 -0.5630 -0.1210
   33POPC   H3S 4415   2.200   2.234  10.563 -1.7131 -1.5899  0.2241
   33POPC   C24 4416   2.193   2.153  10.367  0.2932 -0.3409  0.3930
   33POPC   H4R 4417   2.115   2.083  10.406  0.3743 -0.6077  0.0832
   33POPC   H4S 4418   2.291   2.101  10.370 -0.4377 -1.7271  0.8874
   33POPC   C25 4419   2.164   2.192  10.220  0.7522 -0.1455 -0.5833
   33POPC   H5R 4420   2.176   2.103  10.156 -3.9225  0.3681 -2.4124
   33POPC   H5S 4421   2.230   2.279  10.198  2.5386 -1.0346  1.1799
   33POPC   C26 4422   2.016   2.243  10.200 -0.3282 -0.7819  0.2216
   33POPC   H6R 4423   1.993   2.266  10.094 -0.0148  1.5800  0.6391
   33POPC   H6S 4424   2.001   2.334  10.262  2.8393 -2.1112  3.0942
   33POPC   C27 4425   1.907   2.139  10.254 -0.0539 -0.5913  0.2795
   33POPC   H7R 4426   1.924   2.121  10.362 -1.2044  1.1313  0.7723
   33POPC   H7S 4427   1.934   2.053  10.190 -0.1888  0.5336 -1.3095
   33POPC   C28 4428   1.776   2.196  10.239  0.0910  1.0074  0.1886
   33POPC   H8R 4429   1.758   2.199  10.129  2.2623 -0.9319 -0.2435
   33POPC   H8S 4430   1.756   2.299  10.277  0.3862 -0.2390  3.8895
   33POPC   C29 4431   1.684   2.107  10.310 -0.0683 -0.1058 -0.1518
   33POPC   H91 4432   1.710   2.090  10.416  1.7731 -1.5587 -0.8114
   33POPC  C210 4433   1.574   2.045  10.266  0.2438  0.7130 -0.2489
   33POPC  H101 4434   1.514   1.985  10.336  1.2113 -1.7324 -1.4811
   33POPC  C211 4435   1.513   2.035  10.128  0.4041  0.3405  0.0112
   33POPC  H11R 4436   1.477   2.135  10.098  0.0006  0.8152  2.0199
   33POPC  H11S 4437   1.424   1.968  10.130  1.0306 -0.5634 -1.3134
   33POPC  C212 4438   1.620   1.973  10.031  0.2837  0.7766 -0.2152
   33POPC  H12R 4439   1.681   1.902  10.091  1.9862  3.6428  1.5713
   33POPC  H12S 4440   1.682   2.056   9.993 -2.0478  2.9540  0.6003
   33POPC  C213 4441   1.558   1.895   9.914  0.0750  0.4245 -0.4415
   33POPC  H13R 4442   1.502   1.954   9.839 -0.7971 -1.0001 -0.9377
   33POPC  H13S 4443   1.482   1.828   9.961 -0.0411 -2.2922 -4.2821
   33POPC  C214 4444   1.647   1.795   9.847  0.0345 -0.4886 -0.3306
   33POPC  H14R 4445   1.666   1.709   9.914 -0.9822  0.8644  1.7586
   33POPC  H14S 4446   1.746   1.836   9.818 -0.0422  3.1801  3.9459
   33POPC  C215 4447   1.574   1.763   9.718 -0.0244  0.6270  0.7932
   33POPC  H15R 4448   1.555   1.849   9.651  0.6447 -0.9209 -1.4235
   33POPC  H15S 4449   1.480   1.724   9.764 -1.2871  2.7057  0.0201
   33POPC  C216 4450   1.638   1.652   9.635  0.3711 -0.9129  0.3266
   33POPC  H16R 4451   1.568   1.605   9.564  1.1457 -0.1261 -0.9739
   33POPC  H16S 4452   1.680   1.565   9.692 -0.8367 -0.7144  1.5446
   33POPC  C217 4453   1.766   1.704   9.553  1.0050  0.3462 -0.2492
   33POPC  H17R 4454   1.811   1.622   9.493  1.7704  1.6480 -1.4748
   33POPC  H17S 4455   1.832   1.742   9.633  1.1802 -1.6302  0.5867
   33POPC  C218 4456   1.722   1.808   9.455 -0.5423 -0.9255  0.5985
   33POPC  H18R 4457   1.801   1.878   9.421 -1.1024 -1.2513 -1.4790
   33POPC  H18S 4458   1.659   1.890   9.495  0.3468  0.8815 -1.5766
   33POPC  H18T 4459   1.674   1.766   9.364 -0.9274 -1.2813  0.9603
   33POPC   C33 4460   2.344   3.067  10.309  0.1053 -0.0817 -0.6881
   33POPC   H3X 4461   2.328   3.155  10.375 -2.0385 -1.2130  0.3565
   33POPC   H3Y 4462   2.248   3.011  10.309 -0.9044  1.6269 -1.2504
   33POPC   C34 4463   2.382   3.134  10.173  0.6827 -0.4250 -0.3644
   33POPC   H4X 4464   2.425   3.069  10.094 -2.9496 -1.1918 -1.7785
   33POPC   H4Y 4465   2.467   3.201  10.200  0.3962 -0.7141  1.3412
   33POPC   C35 4466   2.274   3.220  10.107 -0.2316  0.2248  1.1832
   33POPC   H5X 4467   2.297   3.328  10.119  0.1454 -0.0457  3.0857
   33POPC   H5Y 4468   2.176   3.205  10.156 -0.5758  0.6227  0.6137
   33POPC   C36 4469   2.236   3.189   9.960 -0.3977 -0.6559 -0.2902
   33POPC   H6X 4470   2.131   3.157   9.946 -1.2304  1.9434 -0.3609
   33POPC   H6Y 4471   2.295   3.102   9.926 -0.4414 -0.9765  0.4401
   33POPC   C37 4472   2.279   3.303   9.857  0.2132 -0.1078 -0.9601
   33POPC   H7X 4473   2.383   3.332   9.883 -1.0306  2.4928  1.3623
   33POPC   H7Y 4474   2.211   3.388   9.877 -1.3126 -2.0596  2.6297
   33POPC   C38 4475   2.281   3.252   9.713 -0.0715  0.2519 -0.5344
   33POPC   H8X 4476   2.176   3.260   9.676 -0.4000 -1.2537  0.0050
   33POPC   H8Y 4477   2.304   3.144   9.699 -0.8721 -0.1931  1.3746
   33POPC   C39 4478   2.367   3.332   9.611 -0.5772  0.3752  0.4502
   33POPC   H9X 4479   2.475   3.339   9.633 -0.8523  1.5747  1.4580
   33POPC   H9Y 4480   2.326   3.435   9.611 -0.2745  0.4963 -0.0626
   33POPC  C310 4481   2.347   3.273   9.466  0.0696 -0.3226  0.0338
   33POPC  H10X 4482   2.259   3.209   9.484 -0.7401  1.0672  1.1601
   33POPC  H10Y 4483   2.434   3.207   9.448  2.8380  2.2030  3.3136
   33POPC  C311 4484   2.327   3.381   9.354  0.0998  0.2328  0.8796
   33POPC  H11X 4485   2.259   3.458   9.396  0.6335  0.2479  1.7264
   33POPC  H11Y 4486   2.282   3.318   9.274 -0.6975 -0.2568  1.6993
   33POPC  C312 4487   2.462   3.450   9.310  0.3699 -0.5752  0.1067
   33POPC  H12X 4488   2.533   3.372   9.275  0.7115 -1.1993  2.1726
   33POPC  H12Y 4489   2.503   3.491   9.405  2.2511 -3.5551  0.6255
   33POPC  C313 4490   2.431   3.568   9.211 -0.5846 -0.1835  0.7454
   33POPC  H13X 4491   2.517   3.639   9.207 -0.8760  0.0800 -0.9820
   33POPC  H13Y 4492   2.346   3.630   9.249  0.7681  2.5143 -0.5045
   33POPC  C314 4493   2.399   3.522   9.069 -0.5196  0.5029 -0.1149
   33POPC  H14X 4494   2.306   3.461   9.075  1.5173 -2.6700  0.8186
   33POPC  H14Y 4495   2.467   3.436   9.051 -0.1962  0.8924 -0.7668
   33POPC  C315 4496   2.386   3.627   8.961 -0.7308 -0.2122  0.9658
   33POPC  H15X 4497   2.289   3.679   8.975 -0.7948 -0.0693  0.0084
   33POPC  H15Y 4498   2.363   3.588   8.860 -1.6632  1.9200  0.3257
   33POPC  C316 4499   2.494   3.731   8.945  0.8369  0.3717  0.3726
   33POPC  H16X 4500   2.461   3.813   8.877 -1.2435  0.3161  1.2802
   33POPC  H16Y 4501   2.594   3.689   8.922 -0.1033 -1.2691 -0.7730
   33POPC  H16Z 4502   2.501   3.780   9.045  0.2281  1.5549 -0.1607
   34POPC     N 4503   1.956   3.554  10.884 -0.0662  0.1370 -0.3792
   34POPC   C12 4504   1.943   3.707  10.873 -0.2995  0.4235 -0.0183
   34POPC  H12A 4505   1.977   3.757  10.962  0.6716 -1.4573  0.7109
   34POPC  H12B 4506   1.839   3.734  10.867 -0.6965 -1.3346 -1.4144
   34POPC   C13 4507   1.908   3.493  10.757 -0.2921 -0.0701  0.6756
   34POPC  H13A 4508   1.906   3.386  10.774 -0.8340 -0.4128 -1.3399
   34POPC  H13B 4509   1.811   3.527  10.724  0.0338 -0.2153 -0.4430
   34POPC  H13C 4510   1.984   3.513  10.683 -2.6208  1.1727 -1.4404
   34POPC   C14 4511   2.093   3.514  10.912 -0.9252  0.0161  0.0649
   34POPC  H14A 4512   2.165   3.553  10.841 -0.1837  0.3380  0.9841
   34POPC  H14B 4513   2.127   3.543  11.010 -0.7774 -0.8851  0.2785
   34POPC  H14C 4514   2.107   3.407  10.915 -0.1284  0.1452  1.4650
   34POPC   C15 4515   1.871   3.502  10.990 -0.5071  0.2000 -0.3211
   34POPC  H15A 4516   1.768   3.504  10.957 -0.7378 -0.6015  0.3549
   34POPC  H15B 4517   1.882   3.552  11.085 -0.2256 -0.5874  0.0666
   34POPC  H15C 4518   1.883   3.396  11.009  1.3187 -0.1018 -2.8227
   34POPC   C11 4519   2.015   3.769  10.758 -1.2604 -0.1575 -0.3428
   34POPC  H11A 4520   1.988   3.877  10.753  1.5853  0.4967 -4.0402
   34POPC  H11B 4521   1.960   3.741  10.665  1.5967  0.1407 -2.1636
   34POPC     P 4522   2.246   3.757  10.633  0.2682  0.1672  0.0998
   34POPC   O13 4523   2.348   3.650  10.628  0.8116 -0.3252  0.1660
   34POPC   O14 4524   2.306   3.897  10.636 -0.0031 -0.0521 -0.0879
   34POPC   O12 4525   2.155   3.741  10.761 -0.5148  0.4524 -0.0521
   34POPC   O11 4526   2.148   3.737  10.508 -0.5670  0.0259  0.4924
   34POPC    C1 4527   2.118   3.844  10.425 -0.2115  0.3874  0.2086
   34POPC    HA 4528   2.198   3.922  10.417  1.2303 -1.1576 -0.8339
   34POPC    HB 4529   2.029   3.895  10.468 -1.1012 -1.6168  0.7624
   34POPC    C2 4530   2.054   3.790  10.288 -0.8523  0.0906 -0.1851
   34POPC    HS 4531   1.991   3.702  10.313 -1.6029  1.5770  3.4774
   34POPC   O21 4532   2.165   3.763  10.203 -0.3255 -0.6367 -0.6913
   34POPC   C21 4533   2.227   3.644  10.208  0.6822 -0.2399  0.7598
   34POPC   O22 4534   2.171   3.539  10.247 -0.2174 -0.5348  0.6915
   34POPC   C22 4535   2.375   3.645  10.157  0.4925 -0.4350 -0.1037
   34POPC   H2R 4536   2.384   3.546  10.107  0.7842 -0.1869 -0.5501
   34POPC   H2S 4537   2.441   3.650  10.246 -0.4429 -1.0716  0.6411
   34POPC    C3 4538   1.962   3.895  10.211 -0.1850  0.5916  0.0856
   34POPC    HX 4539   2.008   3.996  10.214 -3.6986  2.2531  0.3512
   34POPC    HY 4540   1.868   3.893  10.270  0.2398  0.8963  0.7716
   34POPC   O31 4541   1.955   3.864  10.068 -0.1348 -0.8235  0.8307
   34POPC   C31 4542   1.872   3.760  10.045 -0.9512  0.4222  0.4501
   34POPC   O32 4543   1.814   3.695  10.134  0.0898  0.2856  0.1689
   34POPC   C32 4544   1.875   3.714   9.900 -0.2501  0.0308  0.6599
   34POPC   H2X 4545   1.814   3.777   9.831 -0.3154 -0.3266  0.3904
   34POPC   H2Y 4546   1.850   3.606   9.904 -0.9071  0.1744  0.5392
   34POPC   C23 4547   2.399   3.758  10.051  0.7847  0.6760  0.4930
   34POPC   H3R 4548   2.402   3.849  10.116  3.3904 -0.0667  1.4758
   34POPC   H3S 4549   2.312   3.776   9.985 -0.5073  0.5683  2.1347
   34POPC   C24 4550   2.527   3.748   9.972  0.6282  0.1434  0.3297
   34POPC   H4R 4551   2.522   3.654   9.913  0.3496 -1.2810  2.5863
   34POPC   H4S 4552   2.615   3.730  10.037  0.4256 -0.5067  0.4235
   34POPC   C25 4553   2.544   3.883   9.896  0.9995  0.2164 -0.0540
   34POPC   H5R 4554   2.641   3.889   9.843  1.1966  0.8744  0.3683
   34POPC   H5S 4555   2.537   3.959   9.977 -1.0743 -0.6215  0.5910
   34POPC   C26 4556   2.433   3.899   9.795 -1.1615  0.5580  0.1944
   34POPC   H6R 4557   2.438   3.999   9.746 -1.2087  1.4012  1.8983
   34POPC   H6S 4558   2.325   3.887   9.821 -0.9055  0.8121  1.3799
   34POPC   C27 4559   2.449   3.791   9.683  0.3489 -0.1628 -0.2594
   34POPC   H7R 4560   2.381   3.706   9.707 -0.3212  0.8875  1.6317
   34POPC   H7S 4561   2.555   3.760   9.665  0.4918  0.3311 -0.2587
   34POPC   C28 4562   2.400   3.837   9.543 -0.2697  0.7417  0.3152
   34POPC   H8R 4563   2.294   3.869   9.550 -1.3727 -2.8414  1.2900
   34POPC   H8S 4564   2.414   3.759   9.465  3.2347 -1.2100  2.7342
   34POPC   C29 4565   2.490   3.950   9.495  0.0370  0.4821  0.6571
   34POPC   H91 4566   2.598   3.930   9.490 -0.4107 -1.6335 -1.4814
   34POPC  C210 4567   2.448   4.062   9.441 -0.2028 -0.0136  1.1113
   34POPC  H101 4568   2.519   4.140   9.412 -0.5926  0.4849  1.4992
   34POPC  C211 4569   2.305   4.109   9.409  0.4640  0.1281 -0.1745
   34POPC  H11R 4570   2.282   4.183   9.489 -2.0298 -1.8886  1.0600
   34POPC  H11S 4571   2.231   4.028   9.428  1.3025 -1.5204 -3.5846
   34POPC  C212 4572   2.278   4.166   9.271  0.6019 -0.0508  0.0950
   34POPC  H12R 4573   2.323   4.267   9.258  0.0469  0.4288  1.7966
   34POPC  H12S 4574   2.171   4.195   9.270  0.3001 -1.1413 -0.1484
   34POPC  C213 4575   2.300   4.072   9.143  0.2342 -0.0431 -0.0547
   34POPC  H13R 4576   2.256   3.984   9.195  1.0692 -0.5237 -0.1452
   34POPC  H13S 4577   2.404   4.043   9.115 -0.2831 -1.2933 -0.6880
   34POPC  C214 4578   2.212   4.107   9.019  0.5353 -0.4288  0.6019
   34POPC  H14R 4579   2.238   4.203   8.970 -1.4935  0.1869  0.6568
   34POPC  H14S 4580   2.106   4.104   9.054  0.3846 -2.1199  0.0180
   34POPC  C215 4581   2.214   4.006   8.903  0.5830 -0.3989  0.0674
   34POPC  H15R 4582   2.177   3.906   8.934  0.0899  0.1357  1.2228
   34POPC  H15S 4583   2.321   4.008   8.873  0.3695 -1.5935 -0.8213
   34POPC  C216 4584   2.139   4.058   8.786 -0.1162  0.2565  0.3760
   34POPC  H16R 4585   2.189   4.153   8.758 -0.5546  0.5143  0.4584
   34POPC  H16S 4586   2.035   4.084   8.817  0.5628  2.7310  0.6745
   34POPC  C217 4587   2.147   3.967   8.660  0.4120 -0.4361 -0.2144
   34POPC  H17R 4588   2.100   3.869   8.683 -1.1732  0.4900  0.5742
   34POPC  H17S 4589   2.252   3.938   8.637  0.8996  0.7942  0.4057
   34POPC  C218 4590   2.076   4.025   8.538  0.9331 -0.0358  0.3592
   34POPC  H18R 4591   2.054   3.948   8.461  0.2692 -1.8067  2.2729
   34POPC  H18S 4592   2.142   4.108   8.504  0.1948 -0.0252 -1.0807
   34POPC  H18T 4593   1.974   4.064   8.562  1.3634  1.3333 -0.0035
   34POPC   C33 4594   2.026   3.703   9.839 -0.4521  0.2511  0.6299
   34POPC   H3X 4595   2.079   3.637   9.911  0.4878  0.6346  0.2934
   34POPC   H3Y 4596   2.080   3.799   9.851  1.6273 -1.2036  3.4652
   34POPC   C34 4597   2.040   3.639   9.696 -0.1160  0.0471 -0.7626
   34POPC   H4X 4598   1.981   3.545   9.689  0.6187 -0.2593 -3.6056
   34POPC   H4Y 4599   2.149   3.618   9.692 -0.0654  0.3902 -1.3376
   34POPC   C35 4600   2.000   3.733   9.582  0.0168 -0.1744  0.4926
   34POPC   H5X 4601   2.069   3.819   9.569 -0.4643  0.4766  2.1476
   34POPC   H5Y 4602   1.894   3.763   9.598  0.2013  0.2726  0.8754
   34POPC   C36 4603   1.984   3.653   9.448 -0.2987  0.1274  0.3497
   34POPC   H6X 4604   1.920   3.562   9.450  2.9983 -2.3088 -1.2755
   34POPC   H6Y 4605   2.084   3.615   9.417 -1.5005 -2.4429 -0.4741
   34POPC   C37 4606   1.911   3.743   9.339  0.6724 -0.1176  0.4450
   34POPC   H7X 4607   1.978   3.831   9.330  0.5692  0.3304  3.5784
   34POPC   H7Y 4608   1.812   3.781   9.372  0.7388  2.3858 -2.0747
   34POPC   C38 4609   1.894   3.665   9.217  0.6784  0.7266  0.3039
   34POPC   H8X 4610   1.850   3.568   9.249  2.3596 -0.3976 -0.7576
   34POPC   H8Y 4611   1.994   3.639   9.177  0.3863  1.7081 -1.0960
   34POPC   C39 4612   1.809   3.722   9.103 -0.2306  0.8563 -0.7381
   34POPC   H9X 4613   1.719   3.770   9.147 -1.4018 -0.0997 -2.0408
   34POPC   H9Y 4614   1.777   3.632   9.046  1.3405  0.6649 -1.3469
   34POPC  C310 4615   1.889   3.822   9.013  0.4286  0.4414  0.7583
   34POPC  H10X 4616   1.974   3.766   8.968  1.2687  2.0296  0.3467
   34POPC  H10Y 4617   1.916   3.900   9.088 -3.3137  0.4308  2.2302
   34POPC  C311 4618   1.816   3.880   8.890 -0.4281  0.1934 -0.3153
   34POPC  H11X 4619   1.887   3.927   8.819  1.1790 -2.1630 -0.3357
   34POPC  H11Y 4620   1.749   3.964   8.918  1.8614  1.9158  0.1534
   34POPC  C312 4621   1.735   3.771   8.824 -0.4297  0.1966  0.5912
   34POPC  H12X 4622   1.644   3.756   8.887 -2.1296  1.7174 -1.4249
   34POPC  H12Y 4623   1.794   3.677   8.821 -1.9863 -0.7431 -2.7167
   34POPC  C313 4624   1.681   3.813   8.690  0.2397  0.5281  0.0061
   34POPC  H13X 4625   1.606   3.744   8.646  0.5499  1.2227 -1.6395
   34POPC  H13Y 4626   1.770   3.816   8.623 -0.5683 -2.6711 -1.3236
   34POPC  C314 4627   1.602   3.945   8.692  0.5783  0.0704  0.1612
   34POPC  H14X 4628   1.659   4.031   8.735 -1.1662  1.2862  0.0952
   34POPC  H14Y 4629   1.519   3.939   8.766 -0.5608  1.8453 -0.9138
   34POPC  C315 4630   1.544   3.997   8.556  0.1986 -0.4060 -0.2463
   34POPC  H15X 4631   1.495   4.094   8.577 -0.5243 -0.5967 -1.0094
   34POPC  H15Y 4632   1.468   3.922   8.523  1.2308 -1.8867  0.6661
   34POPC  C316 4633   1.654   4.018   8.452 -0.2720 -0.1562 -0.3076
   34POPC  H16X 4634   1.734   3.942   8.441 -0.4848 -0.7759  2.1941
   34POPC  H16Y 4635   1.707   4.114   8.470 -0.9496  1.0008 -4.0999
   34POPC  H16Z 4636   1.612   4.035   8.350  1.5007  0.6036 -0.9374
   35POPC     N 4637   1.436   1.202  11.180 -0.6885  0.5849 -0.3876
   35POPC   C12 4638   1.313   1.229  11.093 -0.2892 -0.5197 -1.4607
   35POPC  H12A 4639   1.334   1.305  11.019  0.9414  1.9748  1.3561
   35POPC  H12B 4640   1.238   1.261  11.163  0.5552 -1.2510 -0.1809
   35POPC   C13 4641   1.486   1.330  11.244 -0.0960  0.8870 -0.1982
   35POPC  H13A 4642   1.405   1.370  11.303 -0.3337 -1.4600  1.1441
   35POPC  H13B 4643   1.574   1.310  11.304  0.1473 -0.3395 -0.9507
   35POPC  H13C 4644   1.516   1.400  11.169  1.1598  0.1191 -0.4289
   35POPC   C14 4645   1.401   1.106  11.290 -0.0912  0.0552  0.6786
   35POPC  H14A 4646   1.374   1.009  11.250  3.1233 -0.4767 -0.3565
   35POPC  H14B 4647   1.496   1.086  11.338  0.5449 -1.6579 -1.1902
   35POPC  H14C 4648   1.330   1.148  11.360 -0.9208  0.6292 -0.4899
   35POPC   C15 4649   1.545   1.155  11.084  0.2824 -0.4029 -0.3364
   35POPC  H15A 4650   1.540   1.047  11.077  2.4739 -0.4896 -1.2229
   35POPC  H15B 4651   1.647   1.167  11.118  0.3405 -0.5187 -0.4696
   35POPC  H15C 4652   1.533   1.217  10.997  1.9567 -0.7202 -0.8266
   35POPC   C11 4653   1.246   1.113  11.017  0.5262  0.4674  0.3829
   35POPC  H11A 4654   1.334   1.057  10.981  1.0384  1.7180 -0.3425
   35POPC  H11B 4655   1.188   1.159  10.934  1.2901  0.9850  0.1414
   35POPC     P 4656   1.022   1.100  11.140 -0.1026 -0.2924 -0.3184
   35POPC   O13 4657   1.029   1.249  11.149 -0.7115  0.4911  0.2208
   35POPC   O14 4658   0.980   1.036  11.262 -0.1652  0.6705  0.8646
   35POPC   O12 4659   1.158   1.031  11.096  0.0547  0.3323 -0.1020
   35POPC   O11 4660   0.930   1.060  11.027  0.3226 -0.6412  0.5150
   35POPC    C1 4661   0.919   0.931  10.970 -0.3322 -0.2879  0.4521
   35POPC    HA 4662   0.818   0.888  10.987 -0.7568  0.1741 -0.8214
   35POPC    HB 4663   0.992   0.851  10.995  0.8623 -0.0208 -1.9804
   35POPC    C2 4664   0.919   0.933  10.811 -0.0843 -0.0667 -0.0836
   35POPC    HS 4665   0.892   0.828  10.784 -1.2381  0.8203 -2.5823
   35POPC   O21 4666   1.042   0.967  10.753  0.5777  0.2314  0.1582
   35POPC   C21 4667   1.135   0.879  10.765 -0.0383 -0.0592 -0.4767
   35POPC   O22 4668   1.131   0.770  10.820 -0.4634  0.2125 -0.3335
   35POPC   C22 4669   1.259   0.933  10.699 -0.4964 -0.3638 -0.1411
   35POPC   H2R 4670   1.347   0.915  10.764  0.9565  3.2531 -0.9781
   35POPC   H2S 4671   1.243   1.042  10.683  2.7450 -0.1593 -2.5303
   35POPC    C3 4672   0.815   1.034  10.753 -0.9045  0.0721  0.1882
   35POPC    HX 4673   0.850   1.129  10.797 -0.3620  0.1783 -0.4521
   35POPC    HY 4674   0.711   1.016  10.788 -2.0948  3.8721 -1.1649
   35POPC   O31 4675   0.804   1.033  10.606 -0.0912 -0.5206 -0.2856
   35POPC   C31 4676   0.768   1.151  10.557 -0.5519 -0.1238 -0.1742
   35POPC   O32 4677   0.767   1.250  10.623  0.6610 -0.6803 -0.7417
   35POPC   C32 4678   0.731   1.150  10.408 -0.0386  0.4895  0.6301
   35POPC   H2X 4679   0.625   1.117  10.402 -0.0257  0.6045 -0.4041
   35POPC   H2Y 4680   0.788   1.068  10.358 -2.5280 -0.4593 -0.7724
   35POPC   C23 4681   1.297   0.864  10.562  0.3785  0.1443 -0.0919
   35POPC   H3R 4682   1.312   0.754  10.570  0.9674  0.2706  0.5787
   35POPC   H3S 4683   1.393   0.909  10.529 -0.0817  0.0198 -1.6637
   35POPC   C24 4684   1.217   0.901  10.440  0.1512 -0.7248 -0.0399
   35POPC   H4R 4685   1.276   0.890  10.346  1.9119  0.5241  0.8878
   35POPC   H4S 4686   1.202   1.010  10.457  0.4463 -0.4571 -1.3550
   35POPC   C25 4687   1.087   0.818  10.427  0.4540  0.0242  0.7087
   35POPC   H5R 4688   1.023   0.842  10.514 -0.7803 -1.1210  0.1355
   35POPC   H5S 4689   1.106   0.710  10.406 -0.7295  0.3529 -2.2976
   35POPC   C26 4690   0.995   0.873  10.311 -0.7576 -0.5335  0.3116
   35POPC   H6R 4691   1.003   0.983  10.300  0.5153 -0.6967 -0.4318
   35POPC   H6S 4692   0.893   0.856  10.352  0.2971 -0.5109  3.0075
   35POPC   C27 4693   1.030   0.802  10.179 -0.2428 -0.1237  0.5429
   35POPC   H7R 4694   1.021   0.693  10.202 -1.9465 -0.5865 -2.1459
   35POPC   H7S 4695   1.138   0.826  10.168 -0.3172  1.0182  2.1630
   35POPC   C28 4696   0.938   0.841  10.062  0.5246 -0.7493 -0.5629
   35POPC   H8R 4697   0.970   0.947  10.050  1.0069 -0.8095  0.1287
   35POPC   H8S 4698   0.832   0.829  10.093  0.1245  0.1854 -1.5164
   35POPC   C29 4699   0.974   0.759   9.942 -0.1950 -0.2784 -0.2857
   35POPC   H91 4700   0.994   0.653   9.962  0.0671 -0.2627 -0.4653
   35POPC  C210 4701   1.010   0.811   9.820  0.0477 -0.1503 -0.0531
   35POPC  H101 4702   1.026   0.743   9.736 -2.5047 -0.6959 -0.1196
   35POPC  C211 4703   1.007   0.954   9.774 -0.2895 -0.8214  0.0633
   35POPC  H11R 4704   1.110   0.994   9.785  0.3846 -2.4063 -0.4211
   35POPC  H11S 4705   0.939   1.015   9.837 -1.3188 -1.8577 -0.0466
   35POPC  C212 4706   0.956   0.967   9.631 -0.6174  0.0947 -0.7456
   35POPC  H12R 4707   0.936   1.072   9.600  0.2844  1.0202  1.6427
   35POPC  H12S 4708   0.852   0.928   9.623 -0.5982  0.0478 -0.7662
   35POPC  C213 4709   1.047   0.894   9.528  0.2460 -0.1728 -0.1599
   35POPC  H13R 4710   1.051   0.787   9.557  1.0454  0.0743  0.6546
   35POPC  H13S 4711   1.148   0.940   9.529  0.3198 -0.3033 -1.1587
   35POPC  C214 4712   0.988   0.917   9.387  0.1147  0.1745 -0.2540
   35POPC  H14R 4713   1.063   0.950   9.312  0.0543  2.4957  0.6593
   35POPC  H14S 4714   0.907   0.994   9.388  1.1328  1.2726 -0.5024
   35POPC  C215 4715   0.933   0.772   9.342 -0.2446 -0.1044 -0.4437
   35POPC  H15R 4716   0.890   0.726   9.433  1.8301 -1.8178 -0.2884
   35POPC  H15S 4717   1.016   0.711   9.299 -1.5709 -2.7204  0.5956
   35POPC  C216 4718   0.820   0.785   9.240  0.0467 -0.2689 -0.4778
   35POPC  H16R 4719   0.732   0.827   9.292 -0.3352 -1.3522 -0.2414
   35POPC  H16S 4720   0.799   0.681   9.208  0.3427 -0.1257 -1.1543
   35POPC  C217 4721   0.852   0.864   9.119  0.0239  0.1857  0.1182
   35POPC  H17R 4722   0.855   0.967   9.162 -1.2674  0.6119 -0.7858
   35POPC  H17S 4723   0.774   0.869   9.040  0.3152 -0.1190 -0.1958
   35POPC  C218 4724   0.981   0.828   9.044  0.5822  0.1607  0.0957
   35POPC  H18R 4725   1.065   0.796   9.109  1.0927 -1.7780 -1.4794
   35POPC  H18S 4726   1.020   0.914   8.986  0.1446  0.1594 -0.2004
   35POPC  H18T 4727   0.982   0.742   8.973 -0.1292  0.3576 -0.1661
   35POPC   C33 4728   0.753   1.277  10.329 -0.6758  0.3441 -0.0733
   35POPC   H3X 4729   0.853   1.315  10.359  0.3875 -1.3966 -1.3069
   35POPC   H3Y 4730   0.678   1.352  10.360 -1.0200  0.1365 -0.3949
   35POPC   C34 4731   0.751   1.254  10.172 -0.0531 -0.1426 -0.5213
   35POPC   H4X 4732   0.833   1.185  10.142  1.5044  1.4744 -0.1065
   35POPC   H4Y 4733   0.756   1.353  10.120  0.2806  0.4616  0.6423
   35POPC   C35 4734   0.626   1.175  10.119  0.1206 -0.6486 -0.5896
   35POPC   H5X 4735   0.534   1.236  10.128  2.2549  2.5074  0.3341
   35POPC   H5Y 4736   0.606   1.099  10.198  1.7244  0.5978  1.0515
   35POPC   C36 4737   0.642   1.100   9.985  0.5956 -0.2498 -0.2338
   35POPC   H6X 4738   0.575   1.011   9.986  0.9100 -0.5611 -2.4704
   35POPC   H6Y 4739   0.744   1.062   9.960  0.8189  0.2834 -0.1292
   35POPC   C37 4740   0.612   1.196   9.869  0.0077  0.5869 -0.0028
   35POPC   H7X 4741   0.692   1.270   9.845  0.1518  0.5612  0.4074
   35POPC   H7Y 4742   0.524   1.256   9.901 -0.2221  0.0847  0.2937
   35POPC   C38 4743   0.590   1.123   9.735  0.0553 -0.2280 -0.1981
   35POPC   H8X 4744   0.489   1.079   9.719  0.3992 -0.3951 -1.9917
   35POPC   H8Y 4745   0.665   1.042   9.733 -0.1023 -0.4693  2.6508
   35POPC   C39 4746   0.624   1.215   9.614  0.0955  0.5270 -0.2086
   35POPC   H9X 4747   0.727   1.256   9.620  0.1667  0.4286 -0.7726
   35POPC   H9Y 4748   0.554   1.300   9.624  0.2355  0.5939  0.2385
   35POPC  C310 4749   0.596   1.159   9.476  0.5098  0.2201 -0.2196
   35POPC  H10X 4750   0.490   1.127   9.468  0.3997  0.5341 -0.0314
   35POPC  H10Y 4751   0.657   1.075   9.438  0.3337 -1.1034  2.3021
   35POPC  C311 4752   0.595   1.267   9.368 -0.2222  0.2278 -0.1103
   35POPC  H11X 4753   0.691   1.324   9.363  0.1955 -0.5647 -1.3671
   35POPC  H11Y 4754   0.515   1.342   9.387  0.0994  0.2847  1.0142
   35POPC  C312 4755   0.569   1.216   9.221  0.3665  0.5092 -0.5266
   35POPC  H12X 4756   0.472   1.164   9.207  1.5361 -1.4528 -1.6904
   35POPC  H12Y 4757   0.642   1.136   9.197  1.7059  1.4939  0.1925
   35POPC  C313 4758   0.567   1.324   9.117 -0.1749  0.2098  0.1634
   35POPC  H13X 4759   0.665   1.375   9.121  1.6555 -2.9963 -1.8653
   35POPC  H13Y 4760   0.489   1.401   9.135 -2.6266 -1.8917 -1.1124
   35POPC  C314 4761   0.555   1.262   8.976 -0.7045 -0.4574  0.3678
   35POPC  H14X 4762   0.521   1.340   8.904 -0.0875 -0.9512 -0.4663
   35POPC  H14Y 4763   0.477   1.184   8.969 -2.8500  1.6297  0.3412
   35POPC  C315 4764   0.685   1.190   8.928  0.3655 -0.3403 -0.1578
   35POPC  H15X 4765   0.716   1.116   9.005  0.3353  0.7935  0.9597
   35POPC  H15Y 4766   0.774   1.256   8.920  0.9160 -0.8910  1.2775
   35POPC  C316 4767   0.675   1.118   8.791 -0.9435 -0.3993 -1.0090
   35POPC  H16X 4768   0.591   1.046   8.786 -0.6451 -0.9576  1.5928
   35POPC  H16Y 4769   0.771   1.061   8.790 -0.9710 -0.4441 -1.0825
   35POPC  H16Z 4770   0.669   1.190   8.706 -0.1315  1.0067  0.1057
   36POPC     N 4771   1.337   5.826  10.799  0.6805  0.1020 -0.4433
   36POPC   C12 4772   1.191   5.792  10.759 -0.4917  0.2688  0.2168
   36POPC  H12A 4773   1.139   5.755  10.846 -0.1302 -0.5902  0.0840
   36POPC  H12B 4774   1.191   5.700  10.702 -0.9695  0.5719 -0.2738
   36POPC   C13 4775   1.397   5.723  10.894 -0.0507  0.3345  0.0388
   36POPC  H13A 4776   1.499   5.748  10.921  0.2503 -1.4958  0.6730
   36POPC  H13B 4777   1.346   5.710  10.988  0.7715 -0.6822  0.3573
   36POPC  H13C 4778   1.394   5.625  10.849 -0.1879  0.5511 -0.4319
   36POPC   C14 4779   1.436   5.840  10.684 -0.7722  0.1195  0.1162
   36POPC  H14A 4780   1.390   5.924  10.634 -1.6452 -0.1105  0.5266
   36POPC  H14B 4781   1.530   5.876  10.726  0.6173 -1.6480 -1.4041
   36POPC  H14C 4782   1.431   5.754  10.619 -0.2196  0.5613 -0.5219
   36POPC   C15 4783   1.324   5.952  10.885 -0.6472 -0.5461 -0.0585
   36POPC  H15A 4784   1.408   5.975  10.949 -1.5990  1.2212  0.5806
   36POPC  H15B 4785   1.235   5.961  10.947  0.3468 -0.6336  1.4102
   36POPC  H15C 4786   1.315   6.039  10.822  0.2961 -0.6109 -0.2897
   36POPC   C11 4787   1.098   5.891  10.679 -0.3642  0.2749 -0.1497
   36POPC  H11A 4788   1.006   5.829  10.670  0.4213 -1.1232  1.2023
   36POPC  H11B 4789   1.139   5.901  10.576 -0.1271 -1.1649 -0.2068
   36POPC     P 4790   0.972   6.079  10.814 -0.0284  0.0326  0.1483
   36POPC   O13 4791   0.975   6.233  10.812  0.2898  0.2513  0.1106
   36POPC   O14 4792   0.969   6.020  10.951 -0.0898  0.3119 -0.5790
   36POPC   O12 4793   1.092   6.022  10.734  0.2440 -0.7418 -0.3596
   36POPC   O11 4794   0.842   6.021  10.738 -0.3196 -0.5672  0.0541
   36POPC    C1 4795   0.709   6.066  10.776 -0.4840  0.3228  0.0180
   36POPC    HA 4796   0.702   6.175  10.796 -3.5526  0.0836  0.5811
   36POPC    HB 4797   0.672   6.013  10.866 -1.5292  1.8498  0.5222
   36POPC    C2 4798   0.600   6.041  10.672  0.2164 -0.1421  0.6618
   36POPC    HS 4799   0.599   5.934  10.643  1.8461 -0.2500  0.9131
   36POPC   O21 4800   0.621   6.135  10.560 -0.3466 -0.1042 -0.2142
   36POPC   C21 4801   0.702   6.083  10.465 -0.0548  0.8138  0.0338
   36POPC   O22 4802   0.697   5.963  10.430 -0.2917  0.1470 -0.2429
   36POPC   C22 4803   0.816   6.176  10.424 -0.1751 -0.5673  0.8342
   36POPC   H2R 4804   0.875   6.179  10.518  1.0737  0.5453  0.0508
   36POPC   H2S 4805   0.778   6.278  10.401 -1.6283 -1.3122 -0.0685
   36POPC    C3 4806   0.463   6.088  10.720 -0.0687 -0.1459 -0.0209
   36POPC    HX 4807   0.471   6.194  10.752 -1.2842  0.3292 -1.2372
   36POPC    HY 4808   0.437   6.037  10.815 -0.0852 -1.5102 -0.7595
   36POPC   O31 4809   0.369   6.060  10.618 -0.2039  0.2403  0.0803
   36POPC   C31 4810   0.250   6.124  10.635 -0.6385  0.1315  0.3359
   36POPC   O32 4811   0.223   6.191  10.739 -0.2798  0.5420 -0.1999
   36POPC   C32 4812   0.162   6.112  10.509  0.3205 -0.4173  0.2755
   36POPC   H2X 4813   0.066   6.065  10.537  0.5755 -0.4855  1.0531
   36POPC   H2Y 4814   0.205   6.043  10.432 -0.1696 -1.1197  0.6343
   36POPC   C23 4815   0.908   6.121  10.318  0.2299 -0.0009  0.1365
   36POPC   H3R 4816   0.935   6.017  10.348  0.9646  0.2692  0.4234
   36POPC   H3S 4817   1.009   6.167  10.311  0.3449 -0.4024 -0.8921
   36POPC   C24 4818   0.858   6.130  10.179 -0.4121  0.5610  0.0431
   36POPC   H4R 4819   0.817   6.232  10.160 -2.1028 -0.0407  0.3178
   36POPC   H4S 4820   0.789   6.044  10.160  2.6549 -2.1207  0.5258
   36POPC   C25 4821   0.972   6.119  10.077 -0.2426 -0.1632  0.3644
   36POPC   H5R 4822   1.018   6.020  10.099  0.8173  0.3917  0.6542
   36POPC   H5S 4823   1.039   6.205  10.096  0.2972 -0.7382  1.1111
   36POPC   C26 4824   0.930   6.126   9.926  0.3788 -0.0229 -0.1294
   36POPC   H6R 4825   1.028   6.108   9.875  0.7145  2.8530 -0.5748
   36POPC   H6S 4826   0.885   6.224   9.899 -2.7738 -0.3025  3.7363
   36POPC   C27 4827   0.824   6.033   9.874  0.1325 -0.3027 -1.4824
   36POPC   H7R 4828   0.732   6.048   9.935  1.8846 -1.7163  1.6088
   36POPC   H7S 4829   0.858   5.927   9.880  1.8369  0.1340 -3.1638
   36POPC   C28 4830   0.789   6.053   9.725  0.4649 -0.4919 -0.1472
   36POPC   H8R 4831   0.787   6.163   9.710 -0.5286 -0.3423  0.9524
   36POPC   H8S 4832   0.694   5.999   9.704 -0.6400  1.1643  0.4387
   36POPC   C29 4833   0.901   5.990   9.644 -0.4129  0.0142 -0.4172
   36POPC   H91 4834   0.987   5.971   9.710 -0.2246 -1.4989 -1.0792
   36POPC  C210 4835   0.904   5.948   9.517  0.1857  0.4686  0.3044
   36POPC  H101 4836   0.999   5.910   9.475 -0.0967 -1.0109  0.9587
   36POPC  C211 4837   0.782   5.963   9.428 -0.6812 -0.2591 -0.3885
   36POPC  H11R 4838   0.711   6.039   9.467 -0.2467  0.3181 -0.7249
   36POPC  H11S 4839   0.728   5.868   9.447 -2.8681  1.1426  0.5363
   36POPC  C212 4840   0.805   5.979   9.276  0.5814 -0.0632  0.0201
   36POPC  H12R 4841   0.874   5.895   9.254  1.9941  0.9582  0.5199
   36POPC  H12S 4842   0.860   6.070   9.243 -1.2336  1.3230  0.7248
   36POPC  C213 4843   0.680   5.953   9.194 -0.3521 -0.9108 -0.5039
   36POPC  H13R 4844   0.632   5.858   9.225 -0.4213 -0.3594  1.1621
   36POPC  H13S 4845   0.719   5.949   9.091 -1.4237 -1.2729 -0.9062
   36POPC  C214 4846   0.568   6.063   9.209 -0.6791  0.2303  0.8785
   36POPC  H14R 4847   0.619   6.162   9.200  0.9819 -0.7278 -0.7223
   36POPC  H14S 4848   0.518   6.050   9.307 -1.5182  0.3715  0.4741
   36POPC  C215 4849   0.461   6.047   9.099 -0.2639  0.3538  0.5830
   36POPC  H15R 4850   0.368   6.094   9.137 -0.0386  0.7897  0.6035
   36POPC  H15S 4851   0.422   5.943   9.089 -2.5433  1.2522 -0.3226
   36POPC  C216 4852   0.501   6.099   8.960 -0.1061  0.6129 -0.1734
   36POPC  H16R 4853   0.603   6.071   8.927 -0.8213  0.3545 -2.2231
   36POPC  H16S 4854   0.513   6.209   8.970  0.1435  0.4064  2.0569
   36POPC  C217 4855   0.396   6.066   8.850 -0.3720  0.1096  1.6066
   36POPC  H17R 4856   0.294   6.108   8.870 -0.5921  0.3994 -0.0029
   36POPC  H17S 4857   0.390   5.956   8.858 -0.4239 -0.0021  0.1505
   36POPC  C218 4858   0.430   6.101   8.709 -0.0109  0.3890  0.6006
   36POPC  H18R 4859   0.444   6.211   8.705 -2.2638  0.6692 -0.4365
   36POPC  H18S 4860   0.337   6.081   8.652  0.3931  0.4476 -0.0871
   36POPC  H18T 4861   0.522   6.044   8.682 -1.7801 -2.9464  1.4447
   36POPC   C33 4862   0.118   6.252  10.460  0.2301 -0.0509  0.3710
   36POPC   H3X 4863   0.105   6.318  10.547 -0.2739 -0.0557  0.2976
   36POPC   H3Y 4864   0.024   6.239  10.402  0.8979  0.5722 -0.8935
   36POPC   C34 4865   0.219   6.311  10.360 -0.1370 -1.0919 -0.3973
   36POPC   H4X 4866   0.195   6.413  10.323  0.7360 -0.8538 -0.3341
   36POPC   H4Y 4867   0.225   6.235  10.279  2.2355 -3.7867  2.1647
   36POPC   C35 4868   0.367   6.330  10.406 -1.0548  0.1866 -0.2308
   36POPC   H5X 4869   0.404   6.226  10.391  1.0797  1.1422 -1.8998
   36POPC   H5Y 4870   0.361   6.365  10.511  1.1449  0.5500 -0.1962
   36POPC   C36 4871   0.445   6.423  10.315 -0.3220 -0.2456  0.4336
   36POPC   H6X 4872   0.544   6.429  10.366  0.3039  1.4656 -0.9049
   36POPC   H6Y 4873   0.403   6.526  10.323 -1.2047 -0.7374  2.4960
   36POPC   C37 4874   0.454   6.372  10.172  0.4733  0.5807  0.5125
   36POPC   H7X 4875   0.356   6.384  10.120  0.7565 -0.3061 -0.2440
   36POPC   H7Y 4876   0.465   6.262  10.178 -1.9940  0.1543 -1.8390
   36POPC   C38 4877   0.570   6.433  10.085 -0.2305  0.2626  0.4383
   36POPC   H8X 4878   0.665   6.413  10.139 -0.1046 -0.9528 -0.1938
   36POPC   H8Y 4879   0.557   6.542  10.101 -0.2835  0.4917 -1.0580
   36POPC   C39 4880   0.561   6.389   9.936 -0.1588  0.3089  0.3902
   36POPC   H9X 4881   0.580   6.281   9.920  1.0223  0.6127 -0.2835
   36POPC   H9Y 4882   0.640   6.441   9.879 -2.1880  2.2313 -0.7433
   36POPC  C310 4883   0.431   6.439   9.873  0.3190  0.3280  0.4716
   36POPC  H10X 4884   0.398   6.541   9.900  0.6298  0.9512 -1.4582
   36POPC  H10Y 4885   0.355   6.366   9.909  2.7953 -2.1365  0.8428
   36POPC  C311 4886   0.443   6.443   9.718 -0.2226 -0.3984 -0.0424
   36POPC  H11X 4887   0.483   6.345   9.684 -3.2233 -1.2051 -1.4299
   36POPC  H11Y 4888   0.511   6.525   9.687 -0.3069 -0.2192  0.2398
   36POPC  C312 4889   0.306   6.471   9.647  0.0513 -0.9580 -0.1247
   36POPC  H12X 4890   0.263   6.564   9.691  0.0501 -0.2322 -1.6609
   36POPC  H12Y 4891   0.235   6.388   9.671  1.5469 -2.6694 -1.5302
   36POPC  C313 4892   0.308   6.490   9.499 -0.3199 -0.1999  0.0997
   36POPC  H13X 4893   0.310   6.395   9.440 -1.1078 -0.6189  0.7355
   36POPC  H13Y 4894   0.396   6.553   9.475 -1.0305  0.7591 -0.0108
   36POPC  C314 4895   0.175   6.567   9.457 -0.4884  0.4280 -0.1348
   36POPC  H14X 4896   0.184   6.600   9.352  1.1367  3.4906  0.8980
   36POPC  H14Y 4897   0.170   6.661   9.517  0.8249  1.0133 -0.9249
   36POPC  C315 4898   0.045   6.489   9.490  0.1816 -1.0139 -0.8573
   36POPC  H15X 4899  -0.031   6.565   9.460  1.5066  0.3457 -0.8328
   36POPC  H15Y 4900   0.039   6.472   9.599 -0.1792 -0.2901 -0.7575
   36POPC  C316 4901   0.018   6.365   9.407 -0.1486 -0.2764  0.0354
   36POPC  H16X 4902  -0.089   6.334   9.411 -0.1951 -0.3883 -1.6240
   36POPC  H16Y 4903   0.073   6.284   9.461 -1.5707 -0.2180  1.6041
   36POPC  H16Z 4904   0.067   6.377   9.308 -1.3178  1.3327 -0.3618
   37POPC     N 4905   6.439   2.721   6.600  0.5509 -0.0486  0.3482
   37POPC   C12 4906   6.342   2.631   6.677 -0.1622 -0.7683 -0.3033
   37POPC  H12A 4907   6.388   2.539   6.711  2.0757  0.2929 -0.3414
   37POPC  H12B 4908   6.262   2.617   6.606  1.2584  1.9340 -2.5561
   37POPC   C13 4909   6.372   2.848   6.554 -0.4854  0.1387 -0.6571
   37POPC  H13A 4910   6.338   2.907   6.638  0.7274  0.4374 -0.3698
   37POPC  H13B 4911   6.448   2.909   6.507 -1.5343  1.8057 -0.2170
   37POPC  H13C 4912   6.289   2.832   6.487 -1.5130  2.4836  0.0141
   37POPC   C14 4913   6.558   2.758   6.687 -0.3306 -0.3295 -0.1136
   37POPC  H14A 4914   6.582   2.674   6.750  0.2174 -1.1113 -1.3275
   37POPC  H14B 4915   6.649   2.791   6.639  0.0123 -0.3069  0.5480
   37POPC  H14C 4916   6.529   2.836   6.756 -0.7751  0.2158 -0.9040
   37POPC   C15 4917   6.493   2.638   6.488  0.4842 -0.1579  0.0197
   37POPC  H15A 4918   6.551   2.552   6.520  0.0764  0.6078  3.0019
   37POPC  H15B 4919   6.555   2.700   6.426 -0.5046 -1.6469 -2.5283
   37POPC  H15C 4920   6.408   2.602   6.432  0.0649 -0.5961  0.9220
   37POPC   C11 4921   6.288   2.699   6.808  0.2756 -0.6685 -0.9141
   37POPC  H11A 4922   6.373   2.726   6.874 -1.0706  0.7968  0.2396
   37POPC  H11B 4923   6.244   2.623   6.875 -0.3754 -0.9947 -1.6987
   37POPC     P 4924   6.053   2.803   6.749 -0.1076  0.0063 -0.0461
   37POPC   O13 4925   6.038   2.698   6.645 -0.9350  0.0802  0.6262
   37POPC   O14 4926   6.016   2.945   6.718  0.1235 -0.1286 -0.2899
   37POPC   O12 4927   6.205   2.814   6.794 -0.0105 -0.2155 -0.4913
   37POPC   O11 4928   5.980   2.752   6.879  0.0478  0.1573 -0.2857
   37POPC    C1 4929   5.895   2.829   6.959  0.8215 -0.6987  0.6423
   37POPC    HA 4930   5.843   2.761   7.029 -2.9159  1.2442 -0.1149
   37POPC    HB 4931   5.824   2.891   6.899  0.6173 -1.8395 -0.3087
   37POPC    C2 4932   5.978   2.920   7.050  0.0482  0.1582 -0.5594
   37POPC    HS 4933   6.024   2.992   6.979 -1.1687  1.0301 -0.4682
   37POPC   O21 4934   6.087   2.845   7.114  0.1321 -0.3327 -0.2598
   37POPC   C21 4935   6.195   2.910   7.142  0.4802 -0.0073  0.0761
   37POPC   O22 4936   6.212   3.031   7.129  0.0500 -0.3276  0.6853
   37POPC   C22 4937   6.295   2.807   7.187  0.1531  0.4321  0.3335
   37POPC   H2R 4938   6.390   2.863   7.203 -0.6938  2.6417 -2.1342
   37POPC   H2S 4939   6.316   2.717   7.125  0.1650  0.6307  0.0488
   37POPC    C3 4940   5.892   3.003   7.157  0.4460 -0.5646  0.1334
   37POPC    HX 4941   5.816   3.060   7.099  0.5001 -0.8136 -0.1829
   37POPC    HY 4942   5.965   3.072   7.204  0.4070 -0.3168 -0.1721
   37POPC   O31 4943   5.835   2.915   7.257 -0.3398 -0.0189 -0.3645
   37POPC   C31 4944   5.797   2.975   7.370  0.1701 -0.0963  0.3837
   37POPC   O32 4945   5.800   3.094   7.394  0.0335  0.1764  0.4595
   37POPC   C32 4946   5.744   2.877   7.479  0.5549  0.2131 -0.4059
   37POPC   H2X 4947   5.808   2.893   7.568  2.1727 -0.6328 -1.4009
   37POPC   H2Y 4948   5.758   2.774   7.439 -1.9801 -1.0189  1.7260
   37POPC   C23 4949   6.243   2.752   7.325 -0.2823  0.3648 -0.4605
   37POPC   H3R 4950   6.321   2.691   7.376 -0.7564  2.0526  2.4368
   37POPC   H3S 4951   6.144   2.703   7.314 -0.8084  0.7190  2.2661
   37POPC   C24 4952   6.217   2.856   7.434  0.3984  0.5852 -0.0483
   37POPC   H4R 4953   6.130   2.916   7.401  0.3480  0.2102 -0.6007
   37POPC   H4S 4954   6.307   2.920   7.441 -1.1256  2.6620  1.0962
   37POPC   C25 4955   6.186   2.796   7.567  0.3473 -0.1986  0.6565
   37POPC   H5R 4956   6.261   2.723   7.607  0.0999 -0.7152  0.1889
   37POPC   H5S 4957   6.092   2.737   7.562  1.1698 -1.6016  1.1581
   37POPC   C26 4958   6.152   2.908   7.667 -0.2951  0.0526 -0.6189
   37POPC   H6R 4959   6.069   2.966   7.623 -0.2911  1.1320  0.7796
   37POPC   H6S 4960   6.238   2.979   7.670 -0.3846  0.1069  0.6675
   37POPC   C27 4961   6.125   2.851   7.811  0.0870 -0.4497  0.2873
   37POPC   H7R 4962   6.056   2.764   7.809  0.1618 -0.5363  1.2634
   37POPC   H7S 4963   6.088   2.938   7.869 -0.5415  0.0842 -0.9210
   37POPC   C28 4964   6.245   2.796   7.881 -0.3405  0.3628 -0.3931
   37POPC   H8R 4965   6.307   2.732   7.814  1.2544  0.8246  0.6181
   37POPC   H8S 4966   6.219   2.729   7.966  2.6705 -1.1855 -0.6318
   37POPC   C29 4967   6.331   2.904   7.939  0.0337 -0.4488 -0.6195
   37POPC   H91 4968   6.419   2.936   7.881 -0.7472  0.1308 -1.4827
   37POPC  C210 4969   6.312   2.940   8.070 -0.5834  0.0740 -0.4736
   37POPC  H101 4970   6.388   3.009   8.111  0.7278 -1.8305  0.3614
   37POPC  C211 4971   6.207   2.902   8.178 -0.0269 -0.2246  0.5523
   37POPC  H11R 4972   6.120   2.846   8.138 -0.6753  0.7940  0.5259
   37POPC  H11S 4973   6.158   2.996   8.212 -0.4364 -0.4126  0.4868
   37POPC  C212 4974   6.290   2.817   8.282 -0.7828  0.4523 -0.0167
   37POPC  H12R 4975   6.220   2.790   8.364  0.7725 -3.0648  0.2659
   37POPC  H12S 4976   6.381   2.872   8.314 -0.3940  0.4625 -1.1027
   37POPC  C213 4977   6.331   2.677   8.242  0.4458 -0.0608 -0.7539
   37POPC  H13R 4978   6.394   2.684   8.151  0.9997 -2.0287 -0.5316
   37POPC  H13S 4979   6.234   2.627   8.225  0.4777 -0.1825 -0.5765
   37POPC  C214 4980   6.402   2.604   8.357  0.0405  0.3625 -0.2419
   37POPC  H14R 4981   6.326   2.601   8.437  0.5183  2.4188  0.3238
   37POPC  H14S 4982   6.499   2.648   8.391  1.7516 -3.9945  0.8239
   37POPC  C215 4983   6.442   2.462   8.308 -0.1907  0.1498 -0.9363
   37POPC  H15R 4984   6.526   2.460   8.235  0.3684 -2.4344 -0.2491
   37POPC  H15S 4985   6.347   2.429   8.261 -0.6009  1.2856 -0.9410
   37POPC  C216 4986   6.490   2.385   8.431 -0.8014 -0.6010 -0.4725
   37POPC  H16R 4987   6.535   2.461   8.499 -3.0671  0.8335 -0.5405
   37POPC  H16S 4988   6.572   2.316   8.400 -0.8738 -1.1023  0.4132
   37POPC  C217 4989   6.390   2.298   8.504 -0.1831  0.6249 -0.1183
   37POPC  H17R 4990   6.357   2.224   8.429  1.6868 -1.6265  1.1817
   37POPC  H17S 4991   6.301   2.359   8.530  0.6972  1.0079  2.1084
   37POPC  C218 4992   6.449   2.234   8.633 -0.2374 -0.4278 -0.4810
   37POPC  H18R 4993   6.533   2.166   8.608 -0.0758 -0.2630 -0.3879
   37POPC  H18S 4994   6.370   2.167   8.674 -0.5250  0.9488  1.2771
   37POPC  H18T 4995   6.476   2.309   8.711  2.1287 -0.1743 -1.5088
   37POPC   C33 4996   5.606   2.902   7.521 -0.0851  0.5110 -0.0610
   37POPC   H3X 4997   5.554   2.808   7.494  0.3976  0.3836 -0.5344
   37POPC   H3Y 4998   5.549   2.983   7.470 -1.5317  0.8327  1.9780
   37POPC   C34 4999   5.588   2.898   7.673 -0.2694 -0.1106 -0.1329
   37POPC   H4X 5000   5.654   2.823   7.721 -0.3502  0.4867  0.9370
   37POPC   H4Y 5001   5.488   2.862   7.706 -0.3101  0.5828  0.5208
   37POPC   C35 5002   5.605   3.031   7.748  0.2911 -0.0423  0.1247
   37POPC   H5X 5003   5.712   3.060   7.744 -0.3199  2.4726  0.9919
   37POPC   H5Y 5004   5.563   3.009   7.848  0.5934  0.1853  0.3035
   37POPC   C36 5005   5.514   3.147   7.695  0.1167  0.8417  0.6664
   37POPC   H6X 5006   5.535   3.163   7.587 -1.7218 -2.0394 -0.2039
   37POPC   H6Y 5007   5.531   3.245   7.744  0.4346  1.6419 -0.9808
   37POPC   C37 5008   5.364   3.120   7.703 -0.2645  0.0968 -0.4160
   37POPC   H7X 5009   5.347   3.049   7.786  1.9338  1.1653  0.9929
   37POPC   H7Y 5010   5.325   3.065   7.614 -1.5599  1.0368 -0.4459
   37POPC   C38 5011   5.282   3.250   7.723 -0.0475 -0.2067  0.1036
   37POPC   H8X 5012   5.183   3.227   7.680 -1.0796  0.7622  1.9191
   37POPC   H8Y 5013   5.330   3.327   7.658 -0.0603 -1.6921 -1.7322
   37POPC   C39 5014   5.273   3.289   7.874  0.5269  0.5399  0.1234
   37POPC   H9X 5015   5.375   3.277   7.916  0.7061 -1.3385 -0.8383
   37POPC   H9Y 5016   5.213   3.218   7.935  0.1682  0.7207 -0.0154
   37POPC  C310 5017   5.225   3.435   7.896  0.3512  0.1088  0.4476
   37POPC  H10X 5018   5.309   3.492   7.851 -0.5991  0.5658 -0.7681
   37POPC  H10Y 5019   5.227   3.438   8.007  3.3734  1.8050  0.4182
   37POPC  C311 5020   5.095   3.463   7.831 -0.4660 -0.2307  0.4786
   37POPC  H11X 5021   5.107   3.448   7.721  0.7642 -2.7790  0.9270
   37POPC  H11Y 5022   5.078   3.572   7.845 -1.1938  0.1443 -2.8188
   37POPC  C312 5023   4.986   3.375   7.883  0.3769  0.0922  0.5698
   37POPC  H12X 5024   5.018   3.271   7.858 -1.4810 -0.3984  0.1769
   37POPC  H12Y 5025   4.896   3.395   7.822  0.3284  0.6160  0.8125
   37POPC  C313 5026   4.948   3.403   8.028 -0.0217  0.3876  0.3201
   37POPC  H13X 5027   5.034   3.421   8.096  0.0143  4.3358 -0.6701
   37POPC  H13Y 5028   4.893   3.314   8.066 -0.7532  0.9780  0.6722
   37POPC  C314 5029   4.847   3.525   8.051 -0.2379  0.4212  0.2140
   37POPC  H14X 5030   4.755   3.511   7.990  0.1601  2.2052 -0.8345
   37POPC  H14Y 5031   4.904   3.616   8.020 -1.5813  1.1488 -0.1530
   37POPC  C315 5032   4.811   3.541   8.197  0.7360 -0.3053  0.6272
   37POPC  H15X 5033   4.774   3.645   8.207  0.5809 -0.4856  2.0951
   37POPC  H15Y 5034   4.905   3.541   8.257  1.2321  1.3531 -0.1085
   37POPC  C316 5035   4.707   3.445   8.253 -0.0607 -0.2793 -0.0002
   37POPC  H16X 5036   4.685   3.454   8.362  0.8458 -0.9743  0.2428
   37POPC  H16Y 5037   4.732   3.337   8.240  0.0712  0.0654 -2.8106
   37POPC  H16Z 5038   4.611   3.464   8.200  0.2634  0.3802 -0.3579
   38POPC     N 5039   1.587   6.389   6.403 -0.8594  0.1867  0.5179
   38POPC   C12 5040   1.437   6.401   6.432 -0.7911 -0.4488 -0.5156
   38POPC  H12A 5041   1.378   6.430   6.347 -0.0404  0.0536 -0.8670
   38POPC  H12B 5042   1.421   6.480   6.503 -0.5549  0.6676 -1.6861
   38POPC   C13 5043   1.637   6.526   6.373  0.2698 -0.0308 -0.1815
   38POPC  H13A 5044   1.742   6.537   6.394 -0.3966  2.2224  2.4617
   38POPC  H13B 5045   1.628   6.555   6.270  1.2371  1.1421  0.0492
   38POPC  H13C 5046   1.596   6.596   6.445  1.2908  0.0999  0.2770
   38POPC   C14 5047   1.661   6.337   6.520 -0.1800 -0.1902 -0.3744
   38POPC  H14A 5048   1.627   6.235   6.538 -0.0121 -0.1170  0.3799
   38POPC  H14B 5049   1.766   6.343   6.496  0.2311  0.5078  1.4954
   38POPC  H14C 5050   1.639   6.395   6.608 -1.8614  0.4908 -1.2243
   38POPC   C15 5051   1.605   6.302   6.281 -0.1269 -0.7865  0.2441
   38POPC  H15A 5052   1.704   6.283   6.244 -0.7248  0.2018 -1.9537
   38POPC  H15B 5053   1.570   6.357   6.195 -2.8563 -0.6702  1.3793
   38POPC  H15C 5054   1.551   6.208   6.278 -0.1112 -0.7722 -0.5925
   38POPC   C11 5055   1.382   6.274   6.482 -0.0120 -0.6379 -0.5301
   38POPC  H11A 5056   1.441   6.234   6.567  2.7606 -1.3633 -2.7195
   38POPC  H11B 5057   1.395   6.198   6.403  0.6567 -1.7451  0.6311
   38POPC     P 5058   1.126   6.276   6.420  0.5338  0.0114  0.0657
   38POPC   O13 5059   1.155   6.192   6.297  0.3576 -0.8876  0.5144
   38POPC   O14 5060   1.082   6.416   6.391  0.1618  0.5059  0.2329
   38POPC   O12 5061   1.247   6.286   6.518 -0.3637  0.2627 -0.3181
   38POPC   O11 5062   1.012   6.209   6.509  0.5336  0.4175 -0.4815
   38POPC    C1 5063   1.004   6.255   6.641  0.6143 -0.0194  0.2502
   38POPC    HA 5064   0.898   6.282   6.659  0.3510 -0.5428 -0.4986
   38POPC    HB 5065   1.047   6.353   6.669  0.1894  0.0657  0.6208
   38POPC    C2 5066   1.037   6.133   6.733 -0.1679 -0.4285  0.1231
   38POPC    HS 5067   0.994   6.046   6.678 -0.7405  1.2621 -2.1853
   38POPC   O21 5068   0.973   6.160   6.861 -0.8100 -0.4717  0.1131
   38POPC   C21 5069   0.886   6.073   6.898  0.5680  0.1238 -0.0708
   38POPC   O22 5070   0.847   5.974   6.830 -0.1325  0.2933  0.4705
   38POPC   C22 5071   0.831   6.115   7.040  0.8251  0.7629 -0.2421
   38POPC   H2R 5072   0.764   6.202   7.021  2.1591  1.4741 -1.9390
   38POPC   H2S 5073   0.918   6.145   7.103  0.4756  1.5185 -0.1081
   38POPC    C3 5074   1.193   6.119   6.743 -0.6211 -0.7305 -0.4278
   38POPC    HX 5075   1.237   6.213   6.783  0.3216 -0.8738 -1.1109
   38POPC    HY 5076   1.239   6.097   6.645 -0.6615 -0.0537 -0.5984
   38POPC   O31 5077   1.221   6.022   6.845  0.2141  0.5960  0.0883
   38POPC   C31 5078   1.244   5.901   6.792  0.4450  0.1272  0.9115
   38POPC   O32 5079   1.232   5.873   6.673 -0.3967  0.0164  0.3656
   38POPC   C32 5080   1.321   5.807   6.894  0.4241 -0.8077 -0.0731
   38POPC   H2X 5081   1.430   5.818   6.876 -0.1341  2.7057 -1.6764
   38POPC   H2Y 5082   1.287   5.702   6.877  2.4203 -1.3544 -0.7686
   38POPC   C23 5083   0.752   6.001   7.107 -0.0907 -0.2370  0.5058
   38POPC   H3R 5084   0.815   5.912   7.129 -0.6305 -0.6813  0.2893
   38POPC   H3S 5085   0.664   5.972   7.045  1.0009 -0.5962 -0.8940
   38POPC   C24 5086   0.678   6.049   7.234 -0.0939 -0.0386  0.0563
   38POPC   H4R 5087   0.624   6.143   7.211  0.4807  0.1043 -0.7105
   38POPC   H4S 5088   0.761   6.076   7.302 -0.5945  0.1275  0.6056
   38POPC   C25 5089   0.595   5.937   7.291  0.7524 -0.0207 -0.1877
   38POPC   H5R 5090   0.645   5.840   7.268  0.3372 -0.1089 -0.7399
   38POPC   H5S 5091   0.492   5.943   7.248  0.7587 -0.0165 -0.2022
   38POPC   C26 5092   0.576   5.936   7.446  0.0181 -0.5659 -0.4264
   38POPC   H6R 5093   0.579   6.043   7.477 -1.1143 -0.6802  0.0810
   38POPC   H6S 5094   0.658   5.874   7.489 -0.5932 -2.3719 -1.8010
   38POPC   C27 5095   0.437   5.889   7.497 -0.5572 -0.0511  0.1168
   38POPC   H7R 5096   0.418   5.786   7.459 -1.1761  1.4135 -3.7898
   38POPC   H7S 5097   0.372   5.958   7.439  1.2732  0.3708 -1.4837
   38POPC   C28 5098   0.417   5.902   7.647 -0.1238 -0.6636  0.1882
   38POPC   H8R 5099   0.310   5.872   7.650  0.3050 -2.5415 -1.5927
   38POPC   H8S 5100   0.431   6.007   7.679  0.5175 -0.7520  0.1974
   38POPC   C29 5101   0.504   5.808   7.727  0.0818  0.5254 -0.1997
   38POPC   H91 5102   0.504   5.702   7.695 -0.9858  0.5569 -0.3091
   38POPC  C210 5103   0.567   5.837   7.842 -0.5966  0.6145  0.3139
   38POPC  H101 5104   0.619   5.758   7.899  0.5881  2.3342  1.6487
   38POPC  C211 5105   0.579   5.969   7.914 -0.5641 -0.1010  0.0208
   38POPC  H11R 5106   0.550   6.062   7.859 -0.7937 -0.4403 -0.4301
   38POPC  H11S 5107   0.685   5.999   7.930 -0.6268  0.0538  0.1467
   38POPC  C212 5108   0.525   5.983   8.061  0.1562 -0.3309  0.6947
   38POPC  H12R 5109   0.545   6.080   8.110  0.0547  0.6488 -1.1667
   38POPC  H12S 5110   0.584   5.907   8.116 -0.3638 -1.2553 -0.0007
   38POPC  C213 5111   0.382   5.950   8.077  0.5539 -0.6883 -0.4336
   38POPC  H13R 5112   0.362   5.854   8.023 -1.5015  0.7245 -2.2815
   38POPC  H13S 5113   0.324   6.026   8.020  0.6495  0.4583  0.9823
   38POPC  C214 5114   0.321   5.930   8.220  0.0516 -0.3130  1.1916
   38POPC  H14R 5115   0.219   5.892   8.200  0.3108 -0.2419 -0.3284
   38POPC  H14S 5116   0.295   6.025   8.271 -5.0521 -1.3925  0.8030
   38POPC  C215 5117   0.405   5.839   8.306  0.0371  0.6113  0.2083
   38POPC  H15R 5118   0.502   5.886   8.334  0.2126  0.1834  0.3340
   38POPC  H15S 5119   0.433   5.749   8.247  0.5578  0.0318  1.3096
   38POPC  C216 5120   0.329   5.798   8.434  0.3633  0.3152  0.2812
   38POPC  H16R 5121   0.223   5.796   8.403  0.3661 -1.6667  0.3289
   38POPC  H16S 5122   0.353   5.873   8.513  0.2113  0.7809 -0.1163
   38POPC  C217 5123   0.357   5.651   8.475  0.0475  0.0482  0.3530
   38POPC  H17R 5124   0.467   5.633   8.481 -0.0586 -0.4146  0.9404
   38POPC  H17S 5125   0.313   5.583   8.399 -1.1558 -0.8600  1.8400
   38POPC  C218 5126   0.302   5.606   8.613  0.4461 -0.1806 -0.5201
   38POPC  H18R 5127   0.192   5.623   8.623  0.5219  1.7854 -2.5730
   38POPC  H18S 5128   0.352   5.676   8.683 -0.2077  0.5996 -0.8116
   38POPC  H18T 5129   0.343   5.506   8.638  1.3140  0.5444  1.0191
   38POPC   C33 5130   1.301   5.838   7.042  0.3231 -0.5646 -0.3395
   38POPC   H3X 5131   1.333   5.943   7.058 -0.2929 -0.6607  1.7926
   38POPC   H3Y 5132   1.372   5.779   7.105 -0.8699  0.7263  2.3184
   38POPC   C34 5133   1.162   5.806   7.099  0.4369  0.5406 -0.1351
   38POPC   H4X 5134   1.147   5.696   7.100 -1.5554  0.8033 -0.0808
   38POPC   H4Y 5135   1.080   5.857   7.044  1.7394  1.5690 -1.1564
   38POPC   C35 5136   1.166   5.838   7.252 -0.4890 -0.1789  0.0632
   38POPC   H5X 5137   1.200   5.943   7.270 -2.8133  0.5731  0.2061
   38POPC   H5Y 5138   1.248   5.776   7.294  2.3272  3.9221  0.9921
   38POPC   C36 5139   1.033   5.811   7.323  0.2290  0.1497 -0.3235
   38POPC   H6X 5140   0.978   5.716   7.308 -0.3561  0.5546 -0.7630
   38POPC   H6Y 5141   0.966   5.883   7.270 -2.3700 -0.9731  1.3135
   38POPC   C37 5142   1.032   5.852   7.468 -0.1310 -0.6789 -1.2262
   38POPC   H7X 5143   0.929   5.878   7.499  0.9912  0.7768  1.4417
   38POPC   H7Y 5144   1.097   5.941   7.483 -0.0260 -0.8693 -0.5591
   38POPC   C38 5145   1.085   5.756   7.571  0.6408  1.6287  1.1425
   38POPC   H8X 5146   1.194   5.758   7.593  0.5922  1.4167  1.4058
   38POPC   H8Y 5147   1.071   5.648   7.549  0.4750  2.2516 -2.0135
   38POPC   C39 5148   1.006   5.777   7.705 -0.1673  0.1324 -0.4965
   38POPC   H9X 5149   0.904   5.739   7.685 -0.4994 -0.6690  2.5529
   38POPC   H9Y 5150   1.001   5.883   7.737 -0.0289  0.1824 -0.6383
   38POPC  C310 5151   1.077   5.707   7.824 -0.2060  0.1545  0.8982
   38POPC  H10X 5152   1.175   5.755   7.846 -0.3619  1.2252 -0.6047
   38POPC  H10Y 5153   1.108   5.604   7.797 -1.6078  0.5134 -2.2942
   38POPC  C311 5154   0.989   5.698   7.954 -0.0949 -0.0133 -0.3379
   38POPC  H11X 5155   0.881   5.675   7.946 -0.2651  0.7184 -0.0917
   38POPC  H11Y 5156   0.982   5.802   7.990  0.5585 -0.4242  1.0053
   38POPC  C312 5157   1.060   5.604   8.054 -0.2447  0.0673 -0.2741
   38POPC  H12X 5158   1.151   5.660   8.086 -0.4077  0.2827 -0.1845
   38POPC  H12Y 5159   1.078   5.510   7.999  1.7473  0.2984 -0.0537
   38POPC  C313 5160   0.976   5.575   8.181  0.0200 -0.0836  0.3149
   38POPC  H13X 5161   0.881   5.539   8.135 -0.1007  2.3295 -1.4255
   38POPC  H13Y 5162   0.959   5.661   8.250  1.1284 -1.6792  2.6369
   38POPC  C314 5163   1.031   5.466   8.275  0.3659  0.0310 -0.1945
   38POPC  H14X 5164   1.138   5.487   8.299  1.0115 -2.5362 -0.6816
   38POPC  H14Y 5165   1.033   5.375   8.212  1.3363 -1.2883  1.6654
   38POPC  C315 5166   0.944   5.450   8.400  0.5603  0.1175 -0.0821
   38POPC  H15X 5167   0.843   5.428   8.360  0.0291  0.2554  1.1598
   38POPC  H15Y 5168   0.933   5.540   8.464  0.7999  1.0393 -1.3157
   38POPC  C316 5169   0.995   5.336   8.480 -0.3228  0.3686 -0.0798
   38POPC  H16X 5170   1.101   5.362   8.502 -1.1053  1.4408  2.5864
   38POPC  H16Y 5171   0.996   5.238   8.428  1.8256  0.1346  0.3533
   38POPC  H16Z 5172   0.933   5.317   8.570  2.1009  0.4510  1.6649
   39POPC     N 5173   4.368   3.641   5.866  0.4448  0.0904  0.1602
   39POPC   C12 5174   4.346   3.602   6.012 -0.3560  0.5948  0.0118
   39POPC  H12A 5175   4.258   3.539   6.016 -0.4794  0.6998 -1.1151
   39POPC  H12B 5176   4.333   3.698   6.061 -0.9912  0.8948 -0.7448
   39POPC   C13 5177   4.378   3.517   5.780 -0.4460  0.1808 -0.0505
   39POPC  H13A 5178   4.394   3.549   5.678  1.6182  2.6632  1.0017
   39POPC  H13B 5179   4.458   3.459   5.821 -0.8051 -1.1796 -1.2294
   39POPC  H13C 5180   4.289   3.457   5.788 -0.4211  0.2703  0.8778
   39POPC   C14 5181   4.244   3.721   5.821 -0.1301  0.4149 -0.3192
   39POPC  H14A 5182   4.235   3.721   5.713 -2.1240  0.1022 -0.1780
   39POPC  H14B 5183   4.144   3.689   5.847 -0.3189  1.1981 -0.0913
   39POPC  H14C 5184   4.253   3.824   5.852 -2.3117  1.0640 -1.7684
   39POPC   C15 5185   4.483   3.721   5.843  0.6493 -0.2173 -0.2788
   39POPC  H15A 5186   4.578   3.672   5.855  1.4198  0.4750 -3.0355
   39POPC  H15B 5187   4.481   3.817   5.893 -2.3650 -0.1149 -0.5122
   39POPC  H15C 5188   4.486   3.748   5.738  0.2235 -3.8329 -1.2614
   39POPC   C11 5189   4.453   3.528   6.099 -0.7886 -0.1682  0.0202
   39POPC  H11A 5190   4.408   3.506   6.198  0.4379 -2.6733  0.0606
   39POPC  H11B 5191   4.541   3.595   6.104  0.3961 -1.7220  0.3320
   39POPC     P 5192   4.525   3.272   6.104  0.4392  0.6419 -0.4204
   39POPC   O13 5193   4.632   3.191   6.029 -0.6783  0.1965 -0.1636
   39POPC   O14 5194   4.392   3.201   6.124 -0.1850 -0.4007  0.3829
   39POPC   O12 5195   4.499   3.408   6.030 -0.1537  0.4842  0.2748
   39POPC   O11 5196   4.592   3.318   6.242  0.9224  0.0874 -0.1316
   39POPC    C1 5197   4.608   3.213   6.344  0.0673  0.0214 -0.4962
   39POPC    HA 5198   4.686   3.255   6.412  0.5723  1.1936 -1.7760
   39POPC    HB 5199   4.648   3.121   6.297 -0.7282 -1.7317  2.1359
   39POPC    C2 5200   4.478   3.184   6.420  0.9238  0.0855 -0.0405
   39POPC    HS 5201   4.398   3.161   6.346 -0.7053 -0.5350  1.8576
   39POPC   O21 5202   4.432   3.303   6.494  0.1285  0.4450 -0.1569
   39POPC   C21 5203   4.310   3.301   6.537  0.4829 -0.1471 -0.1340
   39POPC   O22 5204   4.231   3.212   6.519 -0.1764  0.4601  0.2405
   39POPC   C22 5205   4.294   3.426   6.622 -0.1381 -1.1766  0.1749
   39POPC   H2R 5206   4.305   3.521   6.566  2.7743 -0.6302  1.6139
   39POPC   H2S 5207   4.378   3.438   6.693 -0.0237 -2.5746  0.2861
   39POPC    C3 5208   4.505   3.070   6.521  0.7814 -0.0752  0.3182
   39POPC    HX 5209   4.534   2.988   6.451 -1.3179 -0.8094  0.2567
   39POPC    HY 5210   4.419   3.020   6.570  1.2219  0.2288  1.4111
   39POPC   O31 5211   4.613   3.093   6.614 -0.1721  0.2018  0.1630
   39POPC   C31 5212   4.570   3.139   6.737  0.3138 -0.7901  0.6763
   39POPC   O32 5213   4.452   3.153   6.765  0.1793  0.2247 -0.4058
   39POPC   C32 5214   4.694   3.167   6.823 -0.0459 -0.5828 -0.1431
   39POPC   H2X 5215   4.746   3.077   6.862 -2.1676 -1.0962  1.5908
   39POPC   H2Y 5216   4.756   3.227   6.752  0.3008  0.2841  0.8922
   39POPC   C23 5217   4.164   3.422   6.705 -1.2109  0.1650 -0.1821
   39POPC   H3R 5218   4.162   3.332   6.770 -0.1512  1.1883  1.2963
   39POPC   H3S 5219   4.078   3.425   6.634 -2.3446 -0.6340  1.1229
   39POPC   C24 5220   4.143   3.540   6.795  0.2939  0.4626 -0.4536
   39POPC   H4R 5221   4.040   3.525   6.835  0.5577  0.4063  0.1984
   39POPC   H4S 5222   4.145   3.623   6.721 -0.9788 -0.7151 -1.8449
   39POPC   C25 5223   4.258   3.582   6.889 -0.2829 -0.6857 -0.2525
   39POPC   H5R 5224   4.220   3.666   6.950  2.3507  0.1003  0.3569
   39POPC   H5S 5225   4.347   3.613   6.831  0.0216  1.5046  1.3467
   39POPC   C26 5226   4.295   3.476   6.990 -0.4819  0.6969 -0.2332
   39POPC   H6R 5227   4.365   3.523   7.062 -0.5937  1.9197 -0.9088
   39POPC   H6S 5228   4.350   3.396   6.936 -1.3763  0.4297 -0.7525
   39POPC   C27 5229   4.174   3.412   7.060 -1.0789 -0.0203 -0.0968
   39POPC   H7R 5230   4.117   3.364   6.978 -0.1107 -0.8170 -0.3143
   39POPC   H7S 5231   4.108   3.498   7.087 -0.6824  0.9602 -2.1096
   39POPC   C28 5232   4.197   3.314   7.176 -0.2258 -0.2469 -0.1129
   39POPC   H8R 5233   4.264   3.232   7.144  0.5303  0.9455 -1.6664
   39POPC   H8S 5234   4.103   3.258   7.193  0.8355 -1.7248  1.0827
   39POPC   C29 5235   4.261   3.382   7.294 -0.2139 -0.5884  0.2466
   39POPC   H91 5236   4.331   3.463   7.269 -1.0195 -0.0730 -0.3646
   39POPC  C210 5237   4.237   3.373   7.428  0.4987  0.5113 -0.4023
   39POPC  H101 5238   4.310   3.400   7.506 -1.1062 -0.5009  1.5077
   39POPC  C211 5239   4.135   3.275   7.490 -0.4101 -0.2917  0.0113
   39POPC  H11R 5240   4.167   3.169   7.477 -2.4428 -0.7808 -1.2756
   39POPC  H11S 5241   4.036   3.284   7.440 -0.9646  0.8885  1.2940
   39POPC  C212 5242   4.106   3.317   7.632 -0.5136 -0.0472  0.0067
   39POPC  H12R 5243   4.060   3.418   7.644  0.6723  0.5781 -0.6543
   39POPC  H12S 5244   4.200   3.327   7.690 -1.1991 -0.0151  1.1195
   39POPC  C213 5245   4.024   3.208   7.700  0.3221  0.1081  0.0161
   39POPC  H13R 5246   4.017   3.257   7.799  0.4342 -1.5895  0.8751
   39POPC  H13S 5247   4.088   3.118   7.703 -0.0729 -0.1246  1.4199
   39POPC  C214 5248   3.890   3.172   7.633  0.0114  1.2822 -0.2955
   39POPC  H14R 5249   3.900   3.102   7.547  1.1782 -2.3937  2.6792
   39POPC  H14S 5250   3.852   3.264   7.584 -0.5801 -0.4889 -3.3210
   39POPC  C215 5251   3.788   3.118   7.737 -0.8570  0.3926  0.0151
   39POPC  H15R 5252   3.699   3.080   7.682 -0.8125  1.5891 -0.9061
   39POPC  H15S 5253   3.755   3.211   7.789  0.2106  0.6966  0.1618
   39POPC  C216 5254   3.839   3.030   7.849 -0.2252 -0.2987 -0.4187
   39POPC  H16R 5255   3.950   3.041   7.849 -0.3037  0.6385 -1.2868
   39POPC  H16S 5256   3.816   2.924   7.826 -1.7106 -0.2804  0.9480
   39POPC  C217 5257   3.793   3.076   7.994 -0.6618  0.4976  0.1888
   39POPC  H17R 5258   3.810   3.185   8.005 -0.7892  0.6200 -0.8004
   39POPC  H17S 5259   3.862   3.027   8.067  0.6628  1.3664 -0.4658
   39POPC  C218 5260   3.648   3.035   8.023 -0.6389  0.1531  0.4821
   39POPC  H18R 5261   3.592   2.997   7.934 -0.2228 -0.6859  0.5803
   39POPC  H18S 5262   3.595   3.127   8.055  0.2935  1.0042 -0.3984
   39POPC  H18T 5263   3.653   2.953   8.097 -1.1652 -1.5349 -1.3047
   39POPC   C33 5264   4.657   3.259   6.946 -0.0072 -0.0792  0.4376
   39POPC   H3X 5265   4.632   3.355   6.895  3.2259  1.3985  1.5064
   39POPC   H3Y 5266   4.749   3.263   7.008  0.7177 -2.0822 -0.4910
   39POPC   C34 5267   4.554   3.210   7.053 -0.3562 -0.3961 -0.3416
   39POPC   H4X 5268   4.452   3.231   7.013  0.4777  3.3601 -0.6666
   39POPC   H4Y 5269   4.557   3.285   7.135 -0.8000 -0.7709  0.0155
   39POPC   C35 5270   4.603   3.074   7.100 -0.1457  0.3242 -0.0342
   39POPC   H5X 5271   4.692   3.077   7.166  1.5786 -1.8214 -2.1899
   39POPC   H5Y 5272   4.623   2.997   7.023 -0.2407 -0.3007  0.5660
   39POPC   C36 5273   4.495   3.007   7.184 -0.3572 -0.2512 -0.1300
   39POPC   H6X 5274   4.544   2.908   7.196 -0.3758 -0.1489  0.8290
   39POPC   H6Y 5275   4.400   2.989   7.130  0.3927  2.3564 -2.5049
   39POPC   C37 5276   4.458   3.044   7.326 -0.1442 -0.2360  0.0594
   39POPC   H7X 5277   4.419   2.951   7.373 -0.8774 -0.1485 -0.3700
   39POPC   H7Y 5278   4.392   3.133   7.337  1.1143  0.5888  1.0790
   39POPC   C38 5279   4.580   3.087   7.401 -0.1453  0.1884  1.0134
   39POPC   H8X 5280   4.595   3.197   7.395 -2.3246  0.5327  1.6577
   39POPC   H8Y 5281   4.676   3.039   7.370 -0.4478 -1.7423  2.9585
   39POPC   C39 5282   4.573   3.049   7.545 -0.2857 -0.3397 -0.4945
   39POPC   H9X 5283   4.551   2.940   7.542 -0.6155 -0.2541 -1.2794
   39POPC   H9Y 5284   4.484   3.101   7.587  1.2953  1.8411  0.2234
   39POPC  C310 5285   4.698   3.078   7.622  0.3420  0.7342 -0.4320
   39POPC  H10X 5286   4.687   3.186   7.646 -1.3311  0.4409  0.1799
   39POPC  H10Y 5287   4.791   3.059   7.565  1.9134 -0.1803  2.3125
   39POPC  C311 5288   4.695   3.007   7.757 -0.4630  0.9301 -0.1537
   39POPC  H11X 5289   4.694   2.898   7.739  3.2988  0.6691  0.8507
   39POPC  H11Y 5290   4.605   3.046   7.810 -1.9452 -2.2018 -0.2384
   39POPC  C312 5291   4.820   3.030   7.846  0.5333 -0.5873 -1.0567
   39POPC  H12X 5292   4.830   3.139   7.825  2.0045 -0.9876 -2.4991
   39POPC  H12Y 5293   4.916   2.986   7.811  2.3053  0.3532  2.3700
   39POPC  C313 5294   4.806   3.010   7.994 -0.6583  0.5792  0.1584
   39POPC  H13X 5295   4.732   3.090   8.018  0.5382  1.9985 -0.8581
   39POPC  H13Y 5296   4.896   3.044   8.049  0.7472 -1.8281 -0.5983
   39POPC  C314 5297   4.761   2.866   8.031 -0.2522  0.8562  0.1353
   39POPC  H14X 5298   4.818   2.782   7.986 -0.7273  0.1138  0.9010
   39POPC  H14Y 5299   4.659   2.859   7.987  0.2156 -1.0677 -0.6876
   39POPC  C315 5300   4.750   2.836   8.187  0.1586 -0.1434  0.1764
   39POPC  H15X 5301   4.850   2.831   8.236 -0.5148 -1.5705  1.4408
   39POPC  H15Y 5302   4.716   2.730   8.189 -2.8156  0.7694  2.8303
   39POPC  C316 5303   4.652   2.925   8.255 -0.1197 -0.6852  0.6331
   39POPC  H16X 5304   4.557   2.933   8.199 -1.7884 -2.4538  3.1342
   39POPC  H16Y 5305   4.699   3.026   8.258  0.5689 -0.9556 -0.7048
   39POPC  H16Z 5306   4.632   2.891   8.359 -0.8573 -3.2270 -0.3174
   40POPC     N 5307   3.460   1.007   6.037 -0.2041 -0.0286  0.0565
   40POPC   C12 5308   3.395   0.912   6.132 -0.0087 -0.5424  0.1881
   40POPC  H12A 5309   3.295   0.894   6.095 -0.9099  0.1167  2.2231
   40POPC  H12B 5310   3.387   0.962   6.227 -0.4626 -0.4417  0.1006
   40POPC   C13 5311   3.453   0.961   5.893 -0.7226 -0.2471  0.2275
   40POPC  H13A 5312   3.350   0.955   5.860 -0.2636  0.7551 -1.3972
   40POPC  H13B 5313   3.495   1.036   5.827  0.1340 -0.1765  0.8522
   40POPC  H13C 5314   3.503   0.866   5.886 -0.2221 -0.1265  1.9024
   40POPC   C14 5315   3.389   1.140   6.061 -0.2292 -0.0722 -0.1926
   40POPC  H14A 5316   3.435   1.222   6.008 -0.1989  0.4885  0.6953
   40POPC  H14B 5317   3.286   1.144   6.029  0.3452  2.1940 -1.8842
   40POPC  H14C 5318   3.386   1.167   6.165 -1.9606 -2.7656  0.5061
   40POPC   C15 5319   3.602   1.030   6.069 -0.0843 -0.2371  0.2189
   40POPC  H15A 5320   3.626   1.080   6.162 -0.4509 -0.6985  0.5677
   40POPC  H15B 5321   3.653   1.082   5.990 -0.2190  0.1144  0.3609
   40POPC  H15C 5322   3.655   0.936   6.078 -3.4054 -2.3980 -1.6546
   40POPC   C11 5323   3.464   0.773   6.147 -0.3974 -0.1547 -0.0806
   40POPC  H11A 5324   3.493   0.736   6.046  0.7199 -1.4586  0.6975
   40POPC  H11B 5325   3.386   0.704   6.187  1.1676 -1.7881  0.2253
   40POPC     P 5326   3.604   0.765   6.379 -0.0612 -0.3802 -0.3404
   40POPC   O13 5327   3.561   0.895   6.435  0.5488 -0.2135 -0.0939
   40POPC   O14 5328   3.737   0.716   6.421 -0.7552 -0.0591  0.4440
   40POPC   O12 5329   3.584   0.772   6.221 -0.0096 -0.2495  0.1749
   40POPC   O11 5330   3.495   0.655   6.419 -0.2731 -0.1800 -0.4315
   40POPC    C1 5331   3.498   0.520   6.411 -0.4815  0.4652 -0.4331
   40POPC    HA 5332   3.580   0.489   6.343  0.1876 -1.4206  1.2021
   40POPC    HB 5333   3.399   0.487   6.371 -0.4682  0.8922 -0.8281
   40POPC    C2 5334   3.503   0.439   6.547  0.4049 -0.0283  0.1000
   40POPC    HS 5335   3.495   0.334   6.512  1.4110 -0.8436  2.1967
   40POPC   O21 5336   3.397   0.488   6.632 -0.6741 -0.1233  0.0009
   40POPC   C21 5337   3.279   0.433   6.621  0.0007 -0.1942  0.3601
   40POPC   O22 5338   3.243   0.347   6.543  0.3278 -0.2542 -0.1268
   40POPC   C22 5339   3.202   0.496   6.748  0.1160 -0.6509  0.2445
   40POPC   H2R 5340   3.099   0.461   6.727  0.0460  0.1041 -0.7264
   40POPC   H2S 5341   3.197   0.607   6.752  0.6986 -0.5613 -1.2618
   40POPC    C3 5342   3.642   0.459   6.614  0.2034  0.4324  0.7704
   40POPC    HX 5343   3.660   0.568   6.619 -2.9451  1.1249 -1.3982
   40POPC    HY 5344   3.715   0.420   6.539 -1.1130  1.1901 -0.9387
   40POPC   O31 5345   3.655   0.391   6.738 -0.1956  0.1524  0.9843
   40POPC   C31 5346   3.780   0.389   6.769 -0.7061  0.4752  0.0918
   40POPC   O32 5347   3.877   0.420   6.697  0.6912  0.1428 -0.7528
   40POPC   C32 5348   3.785   0.336   6.910  0.2267 -0.1383 -0.2357
   40POPC   H2X 5349   3.886   0.369   6.943 -1.1180  2.1015  1.8402
   40POPC   H2Y 5350   3.782   0.226   6.896  1.8836 -0.2602  0.3053
   40POPC   C23 5351   3.249   0.434   6.885 -0.7956 -0.2432  0.4654
   40POPC   H3R 5352   3.348   0.482   6.902 -0.9587 -0.1230  1.1135
   40POPC   H3S 5353   3.269   0.326   6.869  1.3947  0.1779  0.2292
   40POPC   C24 5354   3.150   0.459   7.001 -0.3600  0.1260  0.4510
   40POPC   H4R 5355   3.057   0.402   6.976  0.2260 -0.2553 -0.8898
   40POPC   H4S 5356   3.122   0.566   7.005  0.3438  0.2736  1.6094
   40POPC   C25 5357   3.211   0.413   7.135  0.1598 -0.4805 -0.5135
   40POPC   H5R 5358   3.318   0.438   7.151 -0.1593 -0.2057  1.3044
   40POPC   H5S 5359   3.196   0.305   7.158  0.2630 -0.3198  0.3066
   40POPC   C26 5360   3.145   0.474   7.261  0.1925  0.5575 -0.2017
   40POPC   H6R 5361   3.038   0.445   7.270  0.2437 -0.2777 -2.1849
   40POPC   H6S 5362   3.159   0.583   7.244 -1.4739  0.9844  0.9716
   40POPC   C27 5363   3.217   0.445   7.395  0.5055  0.2211  0.4347
   40POPC   H7R 5364   3.299   0.516   7.418  0.8618 -0.0131 -0.0998
   40POPC   H7S 5365   3.267   0.347   7.382 -2.0093 -0.9380 -0.9681
   40POPC   C28 5366   3.117   0.475   7.512  0.1356  0.1515 -0.5396
   40POPC   H8R 5367   3.017   0.428   7.499  0.7366 -0.8390 -1.7530
   40POPC   H8S 5368   3.097   0.584   7.518 -0.1389 -0.0413  3.5310
   40POPC   C29 5369   3.181   0.436   7.639  0.6685 -0.6921 -0.5324
   40POPC   H91 5370   3.291   0.437   7.645  0.6608  0.2167 -0.4467
   40POPC  C210 5371   3.114   0.419   7.755 -0.3654  0.2760 -0.7511
   40POPC  H101 5372   3.174   0.380   7.838  0.2472  1.2267 -0.7424
   40POPC  C211 5373   2.962   0.416   7.777 -0.1666  1.1849 -0.7964
   40POPC  H11R 5374   2.914   0.397   7.679  0.8131 -1.0705 -0.8692
   40POPC  H11S 5375   2.942   0.518   7.816 -0.9651 -0.0380  2.1139
   40POPC  C212 5376   2.904   0.303   7.871 -0.5611 -0.7076 -0.0654
   40POPC  H12R 5377   2.912   0.211   7.810  1.0701 -1.6985  1.5855
   40POPC  H12S 5378   2.793   0.308   7.874 -0.6777 -2.7328 -0.4612
   40POPC  C213 5379   2.977   0.267   8.000  0.1266 -0.0151 -0.4746
   40POPC  H13R 5380   2.958   0.352   8.068  2.2815 -0.7752  1.1091
   40POPC  H13S 5381   3.088   0.263   7.988 -0.0899 -0.1507 -2.7772
   40POPC  C214 5382   2.930   0.127   8.046 -0.7782  0.0515 -0.6153
   40POPC  H14R 5383   2.976   0.054   7.976 -0.1632 -0.4378  0.2798
   40POPC  H14S 5384   2.819   0.128   8.054 -0.7978 -5.3693  2.4330
   40POPC  C215 5385   2.974   0.103   8.190  0.2715 -0.2089 -0.0962
   40POPC  H15R 5386   2.926   0.174   8.260  0.6419 -0.3350  0.2907
   40POPC  H15S 5387   3.082   0.128   8.200 -0.2683  0.7320  4.0131
   40POPC  C216 5388   2.950  -0.041   8.255  0.3030 -0.5031  1.0865
   40POPC  H16R 5389   3.012  -0.109   8.192  0.6934  0.3721  0.5082
   40POPC  H16S 5390   2.841  -0.051   8.237  0.7293 -0.7563 -1.7169
   40POPC  C217 5391   2.986  -0.065   8.403 -0.3686 -0.2539  0.5561
   40POPC  H17R 5392   2.949   0.019   8.465 -0.5769 -0.7870  1.1564
   40POPC  H17S 5393   3.096  -0.075   8.408 -0.3586 -0.2299  0.3781
   40POPC  C218 5394   2.916  -0.193   8.466 -0.0245 -0.3059  0.4280
   40POPC  H18R 5395   2.805  -0.186   8.466  0.0399  0.9151  0.0208
   40POPC  H18S 5396   2.951  -0.206   8.571  2.2113 -0.0840 -0.2661
   40POPC  H18T 5397   2.936  -0.281   8.401 -1.2676  0.0249 -0.4293
   40POPC   C33 5398   3.675   0.390   7.009 -0.3754 -0.2205  1.0374
   40POPC   H3X 5399   3.582   0.349   6.963 -0.8142 -0.8654  2.4901
   40POPC   H3Y 5400   3.683   0.500   7.020 -0.8074 -0.1683  0.8610
   40POPC   C34 5401   3.700   0.327   7.145 -0.5945 -0.3141  0.2311
   40POPC   H4X 5402   3.806   0.344   7.172 -0.4625 -2.7649  1.3641
   40POPC   H4Y 5403   3.674   0.220   7.134  0.6581 -0.6788  0.7312
   40POPC   C35 5404   3.609   0.380   7.251  0.0504  0.2265 -0.1806
   40POPC   H5X 5405   3.509   0.335   7.233  0.7960 -1.0924 -1.1182
   40POPC   H5Y 5406   3.589   0.489   7.256  1.1712  0.4639 -0.6590
   40POPC   C36 5407   3.669   0.344   7.392  0.8800 -0.4518 -1.6323
   40POPC   H6X 5408   3.765   0.400   7.399  1.1749 -1.1749  0.3506
   40POPC   H6Y 5409   3.694   0.236   7.396 -0.5620 -0.7455  0.2926
   40POPC   C37 5410   3.576   0.382   7.507  0.0796  0.2677 -0.2493
   40POPC   H7X 5411   3.485   0.319   7.507  1.0553 -1.1692 -0.9489
   40POPC   H7Y 5412   3.546   0.488   7.497  1.0528  0.7354  1.4745
   40POPC   C38 5413   3.639   0.381   7.649  0.4435  0.2120  0.1520
   40POPC   H8X 5414   3.560   0.434   7.706 -1.8609  1.2322 -3.7673
   40POPC   H8Y 5415   3.730   0.445   7.639  0.9780 -0.2765  1.7619
   40POPC   C39 5416   3.673   0.244   7.696  0.7396 -0.1848 -0.1985
   40POPC   H9X 5417   3.765   0.226   7.638  0.4120 -0.7636 -0.5465
   40POPC   H9Y 5418   3.591   0.171   7.677  0.3764  0.2799 -0.4154
   40POPC  C310 5419   3.700   0.221   7.848  0.1460 -0.2876 -0.1409
   40POPC  H10X 5420   3.783   0.284   7.887  0.5217 -0.9855  0.1912
   40POPC  H10Y 5421   3.717   0.114   7.870  0.1856  0.1316  1.9487
   40POPC  C311 5422   3.574   0.255   7.935  0.2903  0.4054 -0.7432
   40POPC  H11X 5423   3.482   0.218   7.885  1.1125  0.7024 -2.4875
   40POPC  H11Y 5424   3.559   0.365   7.946 -1.5974  0.0879  0.0962
   40POPC  C312 5425   3.567   0.185   8.069 -0.5067  0.4786 -0.5152
   40POPC  H12X 5426   3.659   0.204   8.128 -0.7049  1.8464 -0.6118
   40POPC  H12Y 5427   3.576   0.075   8.061 -2.0531  0.0785  2.5377
   40POPC  C313 5428   3.439   0.224   8.144 -0.0322  0.8401  0.1356
   40POPC  H13X 5429   3.349   0.192   8.088 -0.9665 -1.4068  2.7893
   40POPC  H13Y 5430   3.433   0.335   8.151  1.2859  0.8446  1.6661
   40POPC  C314 5431   3.440   0.164   8.290  0.5940  0.3460  0.5691
   40POPC  H14X 5432   3.353   0.194   8.352 -0.4151 -1.6302  0.1328
   40POPC  H14Y 5433   3.522   0.212   8.348 -0.8403  4.0313 -0.3101
   40POPC  C315 5434   3.461   0.012   8.307  0.1941 -0.9219 -0.2029
   40POPC  H15X 5435   3.439  -0.014   8.413 -0.1958  3.2829  0.8235
   40POPC  H15Y 5436   3.562  -0.019   8.273 -0.2131 -0.6812 -1.6618
   40POPC  C316 5437   3.362  -0.083   8.232 -0.0306  0.1102  0.2277
   40POPC  H16X 5438   3.378  -0.081   8.122 -0.5030  2.3665  0.1961
   40POPC  H16Y 5439   3.256  -0.065   8.257 -0.4656 -1.3456 -0.5409
   40POPC  H16Z 5440   3.384  -0.189   8.259  0.1136  0.2088  0.4979
   41CHL1    C3 5441   3.437   4.266  10.100  0.6662  0.3601  0.9397
   41CHL1    H3 5442   3.534   4.321  10.098  0.7669  0.1664  0.3692
   41CHL1    O3 5443   3.397   4.266  10.238  0.3239 -0.0890  0.0595
   41CHL1   H3' 5444   3.354   4.350  10.259  1.2147  0.1543  0.9646
   41CHL1    C4 5445   3.334   4.350  10.029  0.5972  0.4059 -0.4273
   41CHL1   H4A 5446   3.233   4.316  10.062  1.9150 -0.1178  3.3312
   41CHL1   H4B 5447   3.341   4.456  10.062  0.6893  0.2250  0.1404
   41CHL1    C5 5448   3.333   4.347   9.879 -0.3590  0.3311  1.0576
   41CHL1    C6 5449   3.340   4.455   9.803 -0.2153  0.3254 -0.5511
   41CHL1    H6 5450   3.355   4.554   9.848 -3.0274  0.1354  0.8704
   41CHL1    C7 5451   3.333   4.455   9.653  0.3812  0.5243 -0.5456
   41CHL1   H7A 5452   3.247   4.512   9.611 -0.6725 -0.8025 -0.2269
   41CHL1   H7B 5453   3.430   4.483   9.607  1.9120  0.9749  2.8327
   41CHL1    C8 5454   3.302   4.315   9.597  0.2359  0.4446  0.1914
   41CHL1    H8 5455   3.197   4.280   9.592  0.4930 -0.2754 -0.2874
   41CHL1   C14 5456   3.350   4.314   9.452  0.4702 -0.2508 -0.1590
   41CHL1   H14 5457   3.459   4.338   9.449  0.9012 -1.7215  2.4037
   41CHL1   C15 5458   3.289   4.413   9.354 -0.1334  1.1147 -0.1035
   41CHL1  H15A 5459   3.183   4.387   9.376  0.1709 -0.9678 -0.8907
   41CHL1  H15B 5460   3.317   4.519   9.371  1.2053  0.8584 -0.6493
   41CHL1   C16 5461   3.328   4.365   9.214 -0.0050  0.8548 -1.0994
   41CHL1  H16A 5462   3.239   4.357   9.149 -2.0575 -1.1062  1.8171
   41CHL1  H16B 5463   3.405   4.433   9.171  0.9932  1.3565  1.4203
   41CHL1   C17 5464   3.392   4.221   9.240  0.3175  0.0976  0.1323
   41CHL1   H17 5465   3.502   4.231   9.251  0.4850  1.8547 -2.5523
   41CHL1   C13 5466   3.343   4.171   9.383 -0.0250 -0.5408  0.8983
   41CHL1   C18 5467   3.193   4.118   9.360 -0.5517  0.2549 -0.6113
   41CHL1  H18A 5468   3.208   4.020   9.310  0.1634  0.5093 -0.9030
   41CHL1  H18B 5469   3.143   4.100   9.458 -0.9399  0.0953 -0.8399
   41CHL1  H18C 5470   3.138   4.191   9.296 -0.6513 -0.4938 -1.3831
   41CHL1   C12 5471   3.427   4.078   9.461 -0.0517  0.5386  0.0564
   41CHL1  H12A 5472   3.423   3.977   9.415 -0.2770  0.1204  0.9809
   41CHL1  H12B 5473   3.531   4.117   9.461  0.5730 -1.0872 -0.6376
   41CHL1   C11 5474   3.372   4.070   9.603 -0.1556  0.1886 -0.4194
   41CHL1  H11A 5475   3.262   4.055   9.594  0.1900 -1.3420 -2.3205
   41CHL1  H11B 5476   3.424   3.986   9.654 -0.6610  1.9027  3.0859
   41CHL1    C9 5477   3.382   4.207   9.672 -0.8412 -0.3151  0.0193
   41CHL1    H9 5478   3.487   4.244   9.670 -1.1903  0.6475 -2.3797
   41CHL1   C10 5479   3.338   4.205   9.815  0.0761  0.1248 -0.2423
   41CHL1   C19 5480   3.199   4.126   9.833 -0.0696  0.3322  0.3534
   41CHL1  H19A 5481   3.173   4.120   9.941 -1.8889 -0.0913 -0.0850
   41CHL1  H19B 5482   3.118   4.178   9.778 -0.5277 -0.7556 -0.0105
   41CHL1  H19C 5483   3.225   4.022   9.804  0.3366  0.7201 -0.7143
   41CHL1    C1 5484   3.443   4.130   9.889 -0.1024 -0.5511  0.7169
   41CHL1   H1A 5485   3.450   4.028   9.844 -3.2560 -0.4607 -0.0600
   41CHL1   H1B 5486   3.546   4.171   9.875 -0.1388 -0.0976  1.7418
   41CHL1    C2 5487   3.433   4.130  10.048 -0.8251  0.4093  0.6546
   41CHL1   H2A 5488   3.523   4.076  10.085  1.1947  3.8931  1.0691
   41CHL1   H2B 5489   3.347   4.067  10.078  1.5049 -1.9972  2.5481
   41CHL1   C20 5490   3.367   4.125   9.125 -0.3346 -0.4264  0.8716
   41CHL1   H20 5491   3.261   4.128   9.092 -0.0113  0.0326 -0.1598
   41CHL1   C21 5492   3.410   3.978   9.147  0.7660 -0.6447 -0.8587
   41CHL1  H21A 5493   3.506   3.981   9.203 -0.1269 -1.2471  0.7226
   41CHL1  H21B 5494   3.433   3.919   9.055  1.8318 -1.4819 -0.0616
   41CHL1  H21C 5495   3.334   3.930   9.212  0.2391  1.9716  0.5431
   41CHL1   C22 5496   3.445   4.173   9.007 -0.2812 -0.1663  0.1761
   41CHL1  H22A 5497   3.413   4.276   8.983  0.7922  0.3295  0.8499
   41CHL1  H22B 5498   3.553   4.155   9.026  0.2410  1.2474 -1.3610
   41CHL1   C23 5499   3.417   4.110   8.868 -0.0648 -0.2439  0.4208
   41CHL1  H23A 5500   3.443   4.002   8.864  2.1282  0.1539  2.9095
   41CHL1  H23B 5501   3.308   4.104   8.845  0.2046 -1.0085 -0.7451
   41CHL1   C24 5502   3.488   4.187   8.750 -0.3785  0.0057  0.2154
   41CHL1  H24A 5503   3.431   4.283   8.739 -0.7619 -0.4730 -2.2807
   41CHL1  H24B 5504   3.594   4.211   8.772 -0.5648  2.4587 -1.2937
   41CHL1   C25 5505   3.491   4.119   8.604  0.5934  0.3715 -0.1501
   41CHL1   H25 5506   3.583   4.056   8.613 -0.0800 -0.5061  0.7302
   41CHL1   C26 5507   3.370   4.031   8.580  0.3140 -0.2175 -0.4733
   41CHL1  H26A 5508   3.360   3.956   8.661  0.7455  0.6981  0.4358
   41CHL1  H26B 5509   3.284   4.101   8.577 -1.3841 -2.1747  0.9391
   41CHL1  H26C 5510   3.375   3.983   8.480  2.2879 -0.7950 -0.1139
   41CHL1   C27 5511   3.513   4.215   8.489 -0.2581  0.5220  0.0021
   41CHL1  H27A 5512   3.429   4.287   8.486  0.8389  1.8610  0.4613
   41CHL1  H27B 5513   3.611   4.268   8.482  0.8090 -1.4021  0.0381
   41CHL1  H27C 5514   3.522   4.156   8.396  0.7541 -0.1887  0.5378
   42CHL1    C3 5515   3.072   3.666   9.843 -0.0937  0.3006  0.2190
   42CHL1    H3 5516   3.131   3.577   9.814  1.5623  0.5053  2.7486
   42CHL1    O3 5517   3.111   3.688   9.977 -0.1786 -0.6807  0.2643
   42CHL1   H3' 5518   3.121   3.602  10.018 -2.1947 -1.4638 -0.7860
   42CHL1    C4 5519   3.115   3.792   9.769 -0.2102  0.3135 -0.2865
   42CHL1   H4A 5520   3.054   3.883   9.790 -0.0803  0.8746 -2.2375
   42CHL1   H4B 5521   3.220   3.820   9.789 -0.0974  0.1099 -0.5979
   42CHL1    C5 5522   3.094   3.753   9.619 -0.8716 -0.0727  1.0022
   42CHL1    C6 5523   3.201   3.753   9.537  0.5102 -0.6165  0.1783
   42CHL1    H6 5524   3.299   3.785   9.575 -0.1615  0.1621  1.2976
   42CHL1    C7 5525   3.204   3.711   9.394  0.1055  0.2651  0.1758
   42CHL1   H7A 5526   3.252   3.789   9.331  0.1281 -0.1055 -0.2641
   42CHL1   H7B 5527   3.253   3.612   9.388  1.9243  1.0066  2.0047
   42CHL1    C8 5528   3.061   3.698   9.343  0.4387 -0.2367  0.0966
   42CHL1    H8 5529   3.007   3.792   9.320 -1.5506 -1.0024  1.4763
   42CHL1   C14 5530   3.067   3.618   9.214  0.8648 -1.1659 -0.3433
   42CHL1   H14 5531   3.098   3.518   9.253  1.3953 -0.6862  0.4898
   42CHL1   C15 5532   3.169   3.659   9.101  0.2295  0.2048 -0.1376
   42CHL1  H15A 5533   3.150   3.766   9.081  0.0947  0.3757  0.8901
   42CHL1  H15B 5534   3.274   3.632   9.122  0.0311 -0.6857 -0.2409
   42CHL1   C16 5535   3.120   3.577   8.978  0.5131  0.3283 -0.2425
   42CHL1  H16A 5536   3.106   3.648   8.894 -0.2650 -0.6612 -0.9760
   42CHL1  H16B 5537   3.197   3.499   8.959 -0.5788 -0.6982 -0.5487
   42CHL1   C17 5538   2.980   3.517   9.012 -0.0304 -0.5497 -0.4057
   42CHL1   H17 5539   2.996   3.412   9.046 -2.9511 -0.4577  1.3402
   42CHL1   C13 5540   2.937   3.594   9.137  0.8894 -0.7938 -0.5349
   42CHL1   C18 5541   2.856   3.724   9.103  0.0206 -0.6831  0.1982
   42CHL1  H18A 5542   2.913   3.776   9.023 -0.4907  1.2555  1.0606
   42CHL1  H18B 5543   2.754   3.708   9.062  0.6881 -1.5664 -1.1313
   42CHL1  H18C 5544   2.839   3.789   9.192 -1.6550 -2.1507  0.9797
   42CHL1   C12 5545   2.848   3.515   9.235  0.5418  0.3213  1.1270
   42CHL1  H12A 5546   2.743   3.497   9.204  1.2437 -1.1995 -0.4388
   42CHL1  H12B 5547   2.891   3.415   9.254 -1.3236 -0.4007  1.6658
   42CHL1   C11 5548   2.836   3.582   9.378 -0.2571  0.2240 -0.5640
   42CHL1  H11A 5549   2.777   3.674   9.359 -4.1689 -2.5380 -2.3886
   42CHL1  H11B 5550   2.787   3.507   9.444 -1.4570  2.1611  0.7991
   42CHL1    C9 5551   2.975   3.622   9.443  0.6340  0.3319 -0.0662
   42CHL1    H9 5552   3.026   3.527   9.468 -0.2330  0.0546  0.6636
   42CHL1   C10 5553   2.957   3.702   9.576  1.0128  0.4604  0.1755
   42CHL1   C19 5554   2.858   3.824   9.562 -0.7955 -0.1215  0.5153
   42CHL1  H19A 5555   2.755   3.794   9.531 -0.7481  0.8500 -0.6529
   42CHL1  H19B 5556   2.841   3.867   9.663  0.0345  0.5465  0.3715
   42CHL1  H19C 5557   2.898   3.899   9.491  0.6208 -0.1984  1.2296
   42CHL1    C1 5558   2.888   3.607   9.684 -0.4243 -0.2182 -0.1680
   42CHL1   H1A 5559   2.777   3.607   9.671 -0.5552 -1.2098  0.8659
   42CHL1   H1B 5560   2.918   3.500   9.677  0.2332 -0.2091  2.1314
   42CHL1    C2 5561   2.920   3.642   9.827 -0.7621  0.3488  0.4012
   42CHL1   H2A 5562   2.874   3.565   9.893 -1.2958 -1.4165 -1.9336
   42CHL1   H2B 5563   2.869   3.735   9.860 -0.6421  0.6470 -0.2396
   42CHL1   C20 5564   2.885   3.501   8.892 -0.4928 -0.9544 -0.4811
   42CHL1   H20 5565   2.847   3.598   8.853 -1.4073 -0.5326  1.3842
   42CHL1   C21 5566   2.759   3.429   8.936  0.5666  0.2338 -0.4163
   42CHL1  H21A 5567   2.775   3.320   8.955 -0.1125  0.5087  1.9004
   42CHL1  H21B 5568   2.693   3.442   8.848 -0.1093 -2.3057 -0.3274
   42CHL1  H21C 5569   2.708   3.476   9.022  0.5056 -1.8065  0.7061
   42CHL1   C22 5570   2.955   3.425   8.775 -0.5649  0.4584  0.3224
   42CHL1  H22A 5571   3.057   3.461   8.749 -1.0699 -0.0188 -2.4857
   42CHL1  H22B 5572   2.968   3.319   8.808 -0.2390  0.1071 -0.9142
   42CHL1   C23 5573   2.886   3.425   8.632  0.2187  0.2612 -0.0177
   42CHL1  H23A 5574   2.798   3.361   8.653  0.5040  0.0919  0.6728
   42CHL1  H23B 5575   2.858   3.525   8.594 -1.3360 -0.2527 -0.2510
   42CHL1   C24 5576   2.976   3.342   8.533 -0.4033 -0.7399 -0.1557
   42CHL1  H24A 5577   3.072   3.398   8.528 -0.8670  0.3863  2.8652
   42CHL1  H24B 5578   2.991   3.243   8.581 -1.4325 -0.7623  0.1273
   42CHL1   C25 5579   2.921   3.321   8.392  0.2167 -0.5353 -0.1961
   42CHL1   H25 5580   2.834   3.253   8.399  0.0015 -0.0444  2.3239
   42CHL1   C26 5581   2.876   3.452   8.330 -0.5863  0.2511 -0.0708
   42CHL1  H26A 5582   2.782   3.499   8.366 -1.2317 -0.9524 -0.1791
   42CHL1  H26B 5583   2.957   3.528   8.332 -2.9277  2.8239  1.3430
   42CHL1  H26C 5584   2.848   3.428   8.225 -1.0342  0.8202 -0.0841
   42CHL1   C27 5585   3.022   3.252   8.307 -0.5343 -0.9175  0.4680
   42CHL1  H27A 5586   2.980   3.244   8.204  0.0007 -1.3817  0.2814
   42CHL1  H27B 5587   3.110   3.320   8.299 -0.6643 -0.7539  0.4314
   42CHL1  H27C 5588   3.046   3.145   8.325 -2.2926 -1.7722 -1.9011
   43CHL1    C3 5589   3.219   3.082   9.899 -0.1409  0.1771  0.7057
   43CHL1    H3 5590   3.273   3.180   9.902  1.1253 -0.4867  0.2583
   43CHL1    O3 5591   3.161   3.040  10.020  0.4602 -0.3428  0.0590
   43CHL1   H3' 5592   3.218   3.052  10.096 -0.2233  1.4602  0.3200
   43CHL1    C4 5593   3.113   3.095   9.790  0.0263 -0.4220  0.0661
   43CHL1   H4A 5594   3.066   2.995   9.797 -0.7031 -0.2234 -1.8335
   43CHL1   H4B 5595   3.038   3.174   9.814 -0.3241  0.0126 -2.3598
   43CHL1    C5 5596   3.164   3.118   9.655  0.5236  0.2153  0.1613
   43CHL1    C6 5597   3.135   3.234   9.588 -0.8165 -0.1692  0.4206
   43CHL1    H6 5598   3.065   3.304   9.636 -0.9855  0.0138 -0.0895
   43CHL1    C7 5599   3.194   3.262   9.451  0.0652  0.5535 -0.4686
   43CHL1   H7A 5600   3.129   3.321   9.384 -0.7527  0.4955  0.2614
   43CHL1   H7B 5601   3.286   3.324   9.462  1.1746 -1.0438 -0.7126
   43CHL1    C8 5602   3.249   3.133   9.381  0.3444 -0.2849  0.7612
   43CHL1    H8 5603   3.162   3.076   9.341 -0.1065 -0.0081  1.3472
   43CHL1   C14 5604   3.320   3.167   9.253  0.7043  0.1792 -0.1860
   43CHL1   H14 5605   3.404   3.226   9.295 -0.7132  0.4734  2.3371
   43CHL1   C15 5606   3.248   3.248   9.151 -0.0044  0.6060  0.2395
   43CHL1  H15A 5607   3.141   3.221   9.143 -0.0785  1.4036 -1.7585
   43CHL1  H15B 5608   3.268   3.353   9.180  0.2483  0.4564  0.6065
   43CHL1   C16 5609   3.323   3.208   9.020 -0.2344  0.6087  0.6649
   43CHL1  H16A 5610   3.248   3.162   8.952  1.1618  0.6410 -0.9314
   43CHL1  H16B 5611   3.360   3.303   8.976 -0.9386  0.9463  0.7953
   43CHL1   C17 5612   3.444   3.121   9.057 -0.2677 -0.0226  1.1313
   43CHL1   H17 5613   3.518   3.196   9.092  0.4859 -0.7692  1.1433
   43CHL1   C13 5614   3.383   3.046   9.177 -0.2851  0.1381 -0.5263
   43CHL1   C18 5615   3.272   2.949   9.125 -0.0281 -0.7404 -0.4174
   43CHL1  H18A 5616   3.328   2.864   9.078 -0.7182 -1.7389  0.5327
   43CHL1  H18B 5617   3.211   2.913   9.210 -1.2149  0.2313 -0.8453
   43CHL1  H18C 5618   3.201   2.989   9.050 -3.6194 -1.4573  2.4951
   43CHL1   C12 5619   3.486   2.983   9.276 -0.7544 -0.0973 -0.4212
   43CHL1  H12A 5620   3.536   2.897   9.226 -1.4711 -0.1559 -1.0452
   43CHL1  H12B 5621   3.560   3.055   9.317  1.3929 -2.3618 -0.1881
   43CHL1   C11 5622   3.413   2.935   9.401  0.8471 -0.2535 -0.5246
   43CHL1  H11A 5623   3.341   2.855   9.374  0.1648 -0.0951  0.7710
   43CHL1  H11B 5624   3.490   2.901   9.474  1.6544  2.7563  0.1193
   43CHL1    C9 5625   3.335   3.056   9.480 -0.5792 -0.1943 -0.3515
   43CHL1    H9 5626   3.419   3.123   9.504  0.3548 -0.9878 -1.3256
   43CHL1   C10 5627   3.262   3.010   9.612  0.3042  0.1298 -0.4360
   43CHL1   C19 5628   3.190   2.881   9.583  0.1925 -0.5036 -0.2315
   43CHL1  H19A 5629   3.269   2.805   9.569  1.4632  1.2050 -2.6219
   43CHL1  H19B 5630   3.128   2.846   9.668  1.1045 -0.3417  0.5099
   43CHL1  H19C 5631   3.122   2.881   9.496  1.7185 -1.8317 -1.4347
   43CHL1    C1 5632   3.369   2.984   9.718  0.2286  0.1260 -0.3782
   43CHL1   H1A 5633   3.440   2.900   9.702  0.3308 -0.1369  1.3070
   43CHL1   H1B 5634   3.434   3.073   9.710  2.6546 -1.7741 -2.5712
   43CHL1    C2 5635   3.315   2.971   9.858  0.1403  0.2837  0.1061
   43CHL1   H2A 5636   3.403   2.980   9.926  0.1419 -3.4794  0.7157
   43CHL1   H2B 5637   3.262   2.875   9.874  0.2292  0.4063  1.2355
   43CHL1   C20 5638   3.511   3.039   8.949  0.6771  0.1703 -0.4707
   43CHL1   H20 5639   3.449   2.948   8.930  0.8409 -0.1971  0.7340
   43CHL1   C21 5640   3.651   3.002   8.994  0.0319 -0.3106 -0.0519
   43CHL1  H21A 5641   3.667   2.998   9.104  0.0505 -0.8612 -0.0695
   43CHL1  H21B 5642   3.728   3.072   8.956 -1.0450  0.2234 -1.2759
   43CHL1  H21C 5643   3.686   2.906   8.950  1.1351 -0.1898  0.5369
   43CHL1   C22 5644   3.510   3.111   8.811  0.0640 -0.0602  0.3380
   43CHL1  H22A 5645   3.402   3.117   8.785  0.0125  0.3587  0.6329
   43CHL1  H22B 5646   3.561   3.209   8.825  2.6756 -1.3189 -0.1911
   43CHL1   C23 5647   3.601   3.053   8.697 -0.0214 -0.9710 -0.2859
   43CHL1  H23A 5648   3.706   3.054   8.732  0.3181 -3.4796 -1.1463
   43CHL1  H23B 5649   3.568   2.948   8.680 -1.2676 -0.7409  0.6248
   43CHL1   C24 5650   3.578   3.144   8.570 -0.0584 -0.1054  0.1721
   43CHL1  H24A 5651   3.473   3.181   8.569  0.3115  0.9542 -0.9744
   43CHL1  H24B 5652   3.644   3.233   8.574 -1.0643  0.9263 -3.8620
   43CHL1   C25 5653   3.591   3.073   8.428 -0.3519 -0.7266  0.1966
   43CHL1   H25 5654   3.559   3.145   8.350 -0.0985 -0.8119  0.0161
   43CHL1   C26 5655   3.740   3.052   8.395  0.2041  0.9547 -0.2034
   43CHL1  H26A 5656   3.797   3.024   8.487  2.7401 -0.9875 -2.3081
   43CHL1  H26B 5657   3.756   2.968   8.324 -5.2055 -0.8961  0.5378
   43CHL1  H26C 5658   3.791   3.141   8.352 -0.5631  1.7527  0.5189
   43CHL1   C27 5659   3.506   2.947   8.417 -0.1609 -1.4092  0.6041
   43CHL1  H27A 5660   3.399   2.962   8.442 -0.3254  0.4946 -1.0838
   43CHL1  H27B 5661   3.515   2.923   8.309  1.7776  0.8983  0.2059
   43CHL1  H27C 5662   3.543   2.866   8.482 -2.2412 -1.2057  2.0723
   44CHL1    C3 5663   3.936   4.400  10.234  0.0377  0.3094 -0.4245
   44CHL1    H3 5664   3.964   4.505  10.210 -0.7667  0.3239 -1.3301
   44CHL1    O3 5665   3.926   4.389  10.374  0.4915  0.5379 -0.0879
   44CHL1   H3' 5666   3.912   4.295  10.389  0.1829  0.3128 -1.7007
   44CHL1    C4 5667   3.798   4.372  10.167 -0.0887  0.4463  0.0069
   44CHL1   H4A 5668   3.762   4.275  10.208  0.6052 -0.8294 -2.3062
   44CHL1   H4B 5669   3.725   4.447  10.203 -1.6971 -0.8343 -0.5236
   44CHL1    C5 5670   3.807   4.356  10.016  0.0687 -0.4572  0.4093
   44CHL1    C6 5671   3.729   4.422   9.932  0.0148 -0.6214 -0.3964
   44CHL1    H6 5672   3.654   4.487   9.980  1.2384 -0.6632  1.5948
   44CHL1    C7 5673   3.730   4.417   9.783 -0.5305 -0.2812 -0.8218
   44CHL1   H7A 5674   3.630   4.388   9.744 -1.7655 -0.3126  2.2696
   44CHL1   H7B 5675   3.747   4.517   9.737  0.6029 -0.2680 -0.3792
   44CHL1    C8 5676   3.831   4.307   9.722 -0.2189 -0.2193  0.4708
   44CHL1    H8 5677   3.763   4.219   9.722  0.4144 -0.7178 -0.8646
   44CHL1   C14 5678   3.874   4.343   9.583 -0.1073  0.3156  0.2864
   44CHL1   H14 5679   3.947   4.426   9.591 -1.2961  1.5750 -1.4630
   44CHL1   C15 5680   3.756   4.386   9.481  0.0170 -0.4348 -0.4126
   44CHL1  H15A 5681   3.672   4.317   9.502 -0.9278  1.0529  0.7466
   44CHL1  H15B 5682   3.725   4.490   9.502  1.1394  0.1930 -1.7692
   44CHL1   C16 5683   3.822   4.349   9.347 -0.3652  0.6267 -0.0795
   44CHL1  H16A 5684   3.764   4.287   9.276 -1.0076  0.2964  0.7235
   44CHL1  H16B 5685   3.842   4.438   9.284 -2.1394 -1.2092 -3.4097
   44CHL1   C17 5686   3.962   4.282   9.377 -0.2296 -0.3643  0.3089
   44CHL1   H17 5687   4.030   4.369   9.389 -2.9371  2.0720 -1.4063
   44CHL1   C13 5688   3.949   4.221   9.521  0.3504 -0.2300  0.4159
   44CHL1   C18 5689   3.869   4.089   9.510  0.9041  0.6036 -0.1497
   44CHL1  H18A 5690   3.856   4.056   9.616  1.4591 -0.8620 -0.5183
   44CHL1  H18B 5691   3.764   4.110   9.480  0.9492 -0.8322 -1.3520
   44CHL1  H18C 5692   3.916   4.005   9.455  1.4572  0.1729  0.9542
   44CHL1   C12 5693   4.078   4.210   9.607 -0.1992  0.0739  0.5314
   44CHL1  H12A 5694   4.135   4.124   9.566  0.5444  1.3275 -1.0835
   44CHL1  H12B 5695   4.134   4.304   9.586  0.8460 -0.6741 -0.0891
   44CHL1   C11 5696   4.050   4.184   9.754  0.0734  0.0466  0.9277
   44CHL1  H11A 5697   3.998   4.087   9.761 -1.7229  0.7668 -1.8912
   44CHL1  H11B 5698   4.140   4.194   9.819  0.4411  4.7533 -0.0872
   44CHL1    C9 5699   3.952   4.290   9.810  0.0712 -0.0834 -0.1307
   44CHL1    H9 5700   4.018   4.379   9.802  0.6678 -0.3142  1.8031
   44CHL1   C10 5701   3.928   4.269   9.966 -0.1085  0.5545 -0.7466
   44CHL1   C19 5702   3.881   4.120   9.991 -0.1205 -0.1496 -0.6658
   44CHL1  H19A 5703   3.860   4.094  10.096 -0.1513  0.5687 -0.4954
   44CHL1  H19B 5704   3.783   4.100   9.943 -0.9649  0.6070  0.7285
   44CHL1  H19C 5705   3.959   4.050   9.953 -0.5678 -1.1250  0.1889
   44CHL1    C1 5706   4.055   4.302  10.053  0.3581 -0.3925  0.3414
   44CHL1   H1A 5707   4.137   4.233  10.022  2.0627  1.3273  0.9628
   44CHL1   H1B 5708   4.088   4.406  10.032  1.6064 -0.6128  1.1747
   44CHL1    C2 5709   4.029   4.286  10.200 -0.8855  0.2949  1.0630
   44CHL1   H2A 5710   4.125   4.308  10.251 -0.5306 -2.4525  1.6886
   44CHL1   H2B 5711   3.991   4.187  10.232 -1.9891  0.2102 -0.4866
   44CHL1   C20 5712   4.008   4.189   9.263 -0.2047  0.3658 -0.1710
   44CHL1   H20 5713   3.947   4.097   9.280  0.4767 -0.3800 -1.6634
   44CHL1   C21 5714   4.153   4.158   9.278  0.3204  0.2403 -0.1407
   44CHL1  H21A 5715   4.184   4.159   9.384 -0.6979 -0.9823  0.1648
   44CHL1  H21B 5716   4.214   4.231   9.220 -1.1179  2.1612  0.7252
   44CHL1  H21C 5717   4.178   4.057   9.240  0.4434 -0.3376  1.4656
   44CHL1   C22 5718   3.973   4.233   9.117  0.0231 -0.8850  0.0014
   44CHL1  H22A 5719   3.869   4.270   9.105  0.0398  0.1241  2.5282
   44CHL1  H22B 5720   4.032   4.324   9.095  0.8707 -1.3679  0.2625
   44CHL1   C23 5721   4.004   4.132   9.005  0.4850 -0.3276  0.1642
   44CHL1  H23A 5722   4.114   4.114   8.997  0.8123  2.1584 -1.6624
   44CHL1  H23B 5723   3.949   4.038   9.027 -0.2358  0.5872  2.4140
   44CHL1   C24 5724   3.943   4.190   8.877  0.6883  0.0642  0.0915
   44CHL1  H24A 5725   3.834   4.210   8.885  1.3365  3.5325  0.8660
   44CHL1  H24B 5726   3.990   4.290   8.866  1.1837 -0.2964 -1.2327
   44CHL1   C25 5727   3.969   4.101   8.756  0.3671  0.0062 -0.0635
   44CHL1   H25 5728   3.943   3.999   8.792 -1.8447 -0.3520 -2.5097
   44CHL1   C26 5729   3.868   4.135   8.638  0.6378  0.3719  0.1815
   44CHL1  H26A 5730   3.917   4.104   8.543  2.4014  0.7553  0.9428
   44CHL1  H26B 5731   3.768   4.087   8.643  0.5175  0.5747 -0.3006
   44CHL1  H26C 5732   3.852   4.244   8.630  0.1819  0.4318  1.6589
   44CHL1   C27 5733   4.114   4.115   8.694  0.0935 -0.7397  0.0732
   44CHL1  H27A 5734   4.187   4.066   8.762  0.9999  1.8367  0.9846
   44CHL1  H27B 5735   4.134   4.055   8.602  2.2588  1.6218 -1.0320
   44CHL1  H27C 5736   4.132   4.222   8.672 -1.8301 -0.4971 -0.4614
   45CHL1    C3 5737   0.060   2.708  10.309  0.7453 -0.0631  0.3775
   45CHL1    H3 5738   0.010   2.617  10.347  0.0801  0.1034 -0.0948
   45CHL1    O3 5739   0.047   2.820  10.398 -0.0926  0.3103 -0.2678
   45CHL1   H3' 5740  -0.046   2.829  10.420 -0.5779  0.2520 -2.1788
   45CHL1    C4 5741   0.214   2.680  10.279  0.2968 -0.3491 -0.5717
   45CHL1   H4A 5742   0.265   2.768  10.235  1.6881 -2.0474 -2.3855
   45CHL1   H4B 5743   0.264   2.647  10.373 -0.2388 -0.5993 -0.3735
   45CHL1    C5 5744   0.213   2.570  10.174  0.1045  0.2080  0.2536
   45CHL1    C6 5745   0.272   2.457  10.195 -0.1742  0.0028 -0.3610
   45CHL1    H6 5746   0.320   2.442  10.292 -0.4807 -1.2572 -0.3938
   45CHL1    C7 5747   0.292   2.347  10.087 -0.5958 -0.5748 -0.1712
   45CHL1   H7A 5748   0.400   2.323  10.097 -0.6930 -1.0452 -0.2684
   45CHL1   H7B 5749   0.231   2.255  10.099 -0.4518 -0.8214 -1.3519
   45CHL1    C8 5750   0.257   2.386   9.941 -0.0432  0.9924  0.2524
   45CHL1    H8 5751   0.226   2.290   9.895  0.4319 -0.0551  2.0646
   45CHL1   C14 5752   0.375   2.446   9.855 -0.0552  1.0727  0.1017
   45CHL1   H14 5753   0.409   2.536   9.911 -1.0066  1.6204 -0.1810
   45CHL1   C15 5754   0.486   2.346   9.845  0.1075  0.2118 -0.2130
   45CHL1  H15A 5755   0.581   2.401   9.834 -0.3399  1.2726  1.0538
   45CHL1  H15B 5756   0.497   2.277   9.931  0.6122 -0.2927 -0.6769
   45CHL1   C16 5757   0.454   2.271   9.712 -0.3744 -0.0036 -0.4503
   45CHL1  H16A 5758   0.539   2.283   9.642  1.5096  2.1360  2.0989
   45CHL1  H16B 5759   0.453   2.166   9.748 -2.9846 -0.4303 -1.6755
   45CHL1   C17 5760   0.331   2.336   9.639 -0.4965 -0.2311  0.2546
   45CHL1   H17 5761   0.248   2.276   9.680  0.0115 -0.1664  1.3859
   45CHL1   C13 5762   0.327   2.473   9.708  0.4919 -0.1244 -0.4058
   45CHL1   C18 5763   0.434   2.564   9.644  0.3946 -0.0302 -0.6381
   45CHL1  H18A 5764   0.533   2.516   9.629  1.8838  2.4546  0.9580
   45CHL1  H18B 5765   0.398   2.607   9.547 -0.2530 -0.8897 -0.7873
   45CHL1  H18C 5766   0.458   2.645   9.716  1.3383  0.0127 -0.9877
   45CHL1   C12 5767   0.196   2.546   9.694 -0.1639  0.4499 -0.3449
   45CHL1  H12A 5768   0.207   2.657   9.695 -0.6616  0.4909  0.4808
   45CHL1  H12B 5769   0.149   2.526   9.595  2.2729 -0.1163 -1.4390
   45CHL1   C11 5770   0.086   2.500   9.795  0.3192  0.2891 -0.3413
   45CHL1  H11A 5771   0.013   2.582   9.782  0.1017  0.3791  1.2850
   45CHL1  H11B 5772   0.042   2.405   9.759 -1.1713 -0.0673  2.2937
   45CHL1    C9 5773   0.136   2.475   9.942 -0.1221  0.0492  0.4652
   45CHL1    H9 5774   0.055   2.413   9.987 -1.7624  1.1615 -0.8743
   45CHL1   C10 5775   0.135   2.596  10.044 -0.5571  0.4847  0.4299
   45CHL1   C19 5776   0.192   2.727   9.968  0.1988  0.5583 -0.1393
   45CHL1  H19A 5777   0.293   2.696   9.934  0.0059 -0.3297  0.0870
   45CHL1  H19B 5778   0.120   2.762   9.892  1.3574  0.3596 -1.3439
   45CHL1  H19C 5779   0.201   2.810  10.041 -2.0802  0.3352  0.4263
   45CHL1    C1 5780  -0.010   2.643  10.084 -0.1987  0.3526 -0.0678
   45CHL1   H1A 5781  -0.056   2.677   9.989  0.8277 -0.4287 -0.8495
   45CHL1   H1B 5782  -0.057   2.550  10.122 -0.0663 -0.6141 -2.1772
   45CHL1    C2 5783  -0.022   2.758  10.192  0.0192  0.2108 -0.5420
   45CHL1   H2A 5784  -0.126   2.769  10.230  0.3104 -2.3875  1.1501
   45CHL1   H2B 5785   0.014   2.854  10.150 -0.7017  0.4810 -0.5596
   45CHL1   C20 5786   0.317   2.330   9.483 -0.4156 -0.6545  0.8162
   45CHL1   H20 5787   0.332   2.428   9.433  0.6522 -0.8985  0.6543
   45CHL1   C21 5788   0.172   2.289   9.447 -0.3008  0.7379 -0.6014
   45CHL1  H21A 5789   0.135   2.325   9.348  0.7452 -1.6113 -1.8938
   45CHL1  H21B 5790   0.096   2.334   9.515  2.1186  0.1981  2.5671
   45CHL1  H21C 5791   0.158   2.179   9.452 -0.6450  0.8973  3.1449
   45CHL1   C22 5792   0.422   2.232   9.417  0.4694  0.2805 -0.1301
   45CHL1  H22A 5793   0.527   2.247   9.451 -0.0700 -2.2355  2.8118
   45CHL1  H22B 5794   0.395   2.130   9.452  0.7874  0.5310  0.8557
   45CHL1   C23 5795   0.422   2.223   9.261  0.4945 -0.0803 -0.3345
   45CHL1  H23A 5796   0.322   2.188   9.229  0.9362  0.5368 -2.4525
   45CHL1  H23B 5797   0.432   2.324   9.215  2.8775  1.2723  2.8773
   45CHL1   C24 5798   0.532   2.128   9.212 -1.0595  0.5682  0.2543
   45CHL1  H24A 5799   0.626   2.183   9.231 -0.5633 -0.1010 -0.2441
   45CHL1  H24B 5800   0.522   2.032   9.267 -0.7990  0.9505  0.9671
   45CHL1   C25 5801   0.525   2.092   9.063 -0.6857  0.2338  0.3706
   45CHL1   H25 5802   0.418   2.081   9.034 -0.3280  0.9842 -1.3104
   45CHL1   C26 5803   0.584   2.217   8.978 -0.3258  0.2676 -0.1712
   45CHL1  H26A 5804   0.536   2.309   9.017 -0.6325 -0.1351  0.4156
   45CHL1  H26B 5805   0.694   2.229   8.964 -0.2503 -1.3846 -1.0861
   45CHL1  H26C 5806   0.544   2.195   8.876 -0.3270  1.9075 -0.5356
   45CHL1   C27 5807   0.593   1.964   9.030  0.1462 -1.1014 -0.4462
   45CHL1  H27A 5808   0.703   1.974   9.032 -0.0065  0.7339 -0.3162
   45CHL1  H27B 5809   0.560   1.884   9.099 -0.4218 -0.5097 -0.0178
   45CHL1  H27C 5810   0.572   1.936   8.924  1.8408 -2.2709 -0.4853
   46CHL1    C3 5811   3.025   6.148  10.034 -0.2647 -0.0394  0.3167
   46CHL1    H3 5812   2.988   6.249  10.009 -1.9774 -0.7585 -0.1848
   46CHL1    O3 5813   3.064   6.138  10.166 -0.4364 -1.0256 -0.2768
   46CHL1   H3' 5814   3.106   6.052  10.171  1.9336 -0.0483 -2.1150
   46CHL1    C4 5815   2.913   6.051  10.019  0.3273 -0.4336  0.4687
   46CHL1   H4A 5816   2.959   5.952  10.041 -1.8082 -0.9989  2.5840
   46CHL1   H4B 5817   2.831   6.067  10.092  1.8660  1.9399  1.6972
   46CHL1    C5 5818   2.877   6.040   9.874 -0.2416  1.0370 -0.7185
   46CHL1    C6 5819   2.751   6.084   9.839 -0.3290  0.2130 -0.2289
   46CHL1    H6 5820   2.686   6.111   9.924  0.2016 -0.8366  0.5391
   46CHL1    C7 5821   2.699   6.095   9.702 -0.2379 -0.1146 -0.1419
   46CHL1   H7A 5822   2.602   6.041   9.696  0.8384 -2.0285 -0.6615
   46CHL1   H7B 5823   2.682   6.203   9.682  1.9229  0.7290  2.2873
   46CHL1    C8 5824   2.799   6.032   9.601 -0.0588  0.2325  0.1208
   46CHL1    H8 5825   2.779   5.923   9.597 -0.2665  0.3263 -2.3509
   46CHL1   C14 5826   2.762   6.080   9.461 -0.6355 -0.0617  0.0972
   46CHL1   H14 5827   2.785   6.187   9.444 -0.3665 -0.3843 -1.6990
   46CHL1   C15 5828   2.610   6.059   9.420 -0.3488  0.6491 -0.4491
   46CHL1  H15A 5829   2.572   5.956   9.437  0.7640  0.6275  2.0964
   46CHL1  H15B 5830   2.551   6.138   9.472 -1.0641  1.5605 -2.5700
   46CHL1   C16 5831   2.621   6.089   9.273  0.8213  0.0074  0.7102
   46CHL1  H16A 5832   2.556   6.028   9.206 -1.8205  2.5887  0.8420
   46CHL1  H16B 5833   2.587   6.191   9.244  1.8134  0.7468  2.1054
   46CHL1   C17 5834   2.769   6.070   9.228 -0.4044 -0.3320 -0.9966
   46CHL1   H17 5835   2.811   6.172   9.215  0.6257 -0.6860 -0.4863
   46CHL1   C13 5836   2.847   6.020   9.355  0.9018  0.6920 -0.2955
   46CHL1   C18 5837   2.835   5.861   9.358 -1.0634 -0.5436  0.2452
   46CHL1  H18A 5838   2.889   5.817   9.271 -1.9786  1.8919 -1.5994
   46CHL1  H18B 5839   2.865   5.806   9.450 -0.5137 -1.1555 -0.2902
   46CHL1  H18C 5840   2.732   5.821   9.340 -0.0166 -3.3053  0.0403
   46CHL1   C12 5841   2.995   6.065   9.369 -0.6562 -0.1250 -0.7026
   46CHL1  H12A 5842   3.070   6.025   9.297 -1.9912 -0.0358 -2.1662
   46CHL1  H12B 5843   3.003   6.176   9.374 -1.1953  0.0048 -2.3622
   46CHL1   C11 5844   3.045   6.024   9.515 -0.1794  0.0528 -0.2377
   46CHL1  H11A 5845   3.065   5.915   9.508  1.3260  0.3431 -0.5430
   46CHL1  H11B 5846   3.146   6.069   9.526  0.3154 -1.0074 -0.3845
   46CHL1    C9 5847   2.946   6.059   9.636 -0.1930  0.0933  0.8683
   46CHL1    H9 5848   2.948   6.170   9.635 -2.9035  0.2590  4.4515
   46CHL1   C10 5849   2.992   6.007   9.772 -0.0345 -0.1599  0.8391
   46CHL1   C19 5850   3.022   5.856   9.769  1.5386 -0.6000 -0.0838
   46CHL1  H19A 5851   3.108   5.826   9.705 -0.1713 -2.0698 -1.7619
   46CHL1  H19B 5852   3.047   5.828   9.873  0.6370  1.1484  0.6281
   46CHL1  H19C 5853   2.932   5.798   9.737  0.0335  1.2137  0.7419
   46CHL1    C1 5854   3.123   6.090   9.809  0.9269  0.4651  0.3369
   46CHL1   H1A 5855   3.206   6.034   9.760  0.8214  0.1624  0.5008
   46CHL1   H1B 5856   3.132   6.191   9.763  0.2389 -0.3296 -1.5719
   46CHL1    C2 5857   3.148   6.105   9.957  0.3505  0.6330  0.5892
   46CHL1   H2A 5858   3.234   6.176   9.964  0.3923  0.7184 -0.6568
   46CHL1   H2B 5859   3.181   6.007   9.997 -1.8248  0.4282  1.9840
   46CHL1   C20 5860   2.789   5.995   9.100 -0.5281  0.1776 -0.1802
   46CHL1   H20 5861   2.781   5.885   9.112  1.2435 -0.2854 -2.8341
   46CHL1   C21 5862   2.927   6.022   9.044  0.1762  0.6263  0.0977
   46CHL1  H21A 5863   2.982   6.115   9.071  1.2878  0.1477 -0.4669
   46CHL1  H21B 5864   2.933   6.013   8.933  2.7834  2.5722  0.0470
   46CHL1  H21C 5865   2.989   5.941   9.089  0.5288  0.5424 -0.5325
   46CHL1   C22 5866   2.686   6.033   8.990  0.9146 -0.6872  0.5340
   46CHL1  H22A 5867   2.711   5.973   8.899 -0.4727  0.5112 -0.6797
   46CHL1  H22B 5868   2.582   6.004   9.017  0.4706  1.6339  1.3920
   46CHL1   C23 5869   2.697   6.179   8.936 -0.0334 -0.1702  0.1019
   46CHL1  H23A 5870   2.643   6.237   9.014 -0.9353 -0.1189 -0.5460
   46CHL1  H23B 5871   2.803   6.208   8.921  0.0426  0.4496  1.6932
   46CHL1   C24 5872   2.621   6.191   8.808  0.6935  0.1169  0.0240
   46CHL1  H24A 5873   2.669   6.136   8.723  1.3252  0.7069  0.0032
   46CHL1  H24B 5874   2.526   6.141   8.836  0.0369  2.7868  2.7238
   46CHL1   C25 5875   2.588   6.330   8.752 -0.1599 -0.0059 -1.1478
   46CHL1   H25 5876   2.546   6.388   8.837 -0.1804 -1.4550 -0.1421
   46CHL1   C26 5877   2.719   6.397   8.706 -0.4338  0.0695  0.0600
   46CHL1  H26A 5878   2.718   6.490   8.644 -1.3969  0.0372  0.0223
   46CHL1  H26B 5879   2.795   6.409   8.786 -1.0479  1.0891  0.5024
   46CHL1  H26C 5880   2.770   6.330   8.634 -0.0013 -0.2146  0.6243
   46CHL1   C27 5881   2.487   6.325   8.640 -0.6182 -0.6458 -0.0244
   46CHL1  H27A 5882   2.517   6.262   8.554 -2.3297  2.5165 -3.0611
   46CHL1  H27B 5883   2.389   6.286   8.677  0.3984 -3.0308  0.2124
   46CHL1  H27C 5884   2.473   6.425   8.592 -1.0595 -1.0828 -0.8205
   47CHL1    C3 5885   3.549   3.555  10.040 -0.2469 -0.6971  0.5665
   47CHL1    H3 5886   3.656   3.581  10.058 -0.0323 -0.6539 -0.7455
   47CHL1    O3 5887   3.484   3.553  10.163  0.1842 -0.0682 -0.3887
   47CHL1   H3' 5888   3.396   3.533  10.130  0.5200 -0.6156 -0.9711
   47CHL1    C4 5889   3.483   3.659   9.941  0.0794  0.0585  0.1273
   47CHL1   H4A 5890   3.375   3.637   9.933  0.5562 -2.4812  0.1938
   47CHL1   H4B 5891   3.497   3.758   9.989 -1.5946  1.0702 -1.4536
   47CHL1    C5 5892   3.551   3.651   9.803 -0.0590 -0.2858  0.3210
   47CHL1    C6 5893   3.602   3.763   9.751  0.7781 -0.5778  0.2413
   47CHL1    H6 5894   3.606   3.852   9.816  0.8004 -1.1901  1.0870
   47CHL1    C7 5895   3.651   3.769   9.614 -0.1662  0.1834 -0.3044
   47CHL1   H7A 5896   3.615   3.866   9.573 -4.7710 -0.4668  1.8671
   47CHL1   H7B 5897   3.761   3.782   9.612 -0.0429 -0.9298 -1.5393
   47CHL1    C8 5898   3.618   3.646   9.527  0.0167  0.1135  0.6974
   47CHL1    H8 5899   3.510   3.651   9.505 -0.3780  1.6421  2.7961
   47CHL1   C14 5900   3.710   3.651   9.405  0.0633  1.2775  0.5960
   47CHL1   H14 5901   3.814   3.653   9.442  0.6339 -1.6241 -0.6845
   47CHL1   C15 5902   3.691   3.780   9.310 -0.1049  0.2331  0.3637
   47CHL1  H15A 5903   3.585   3.810   9.296 -0.1611 -0.6183 -1.1233
   47CHL1  H15B 5904   3.752   3.858   9.362  2.2658 -1.3553  0.0554
   47CHL1   C16 5905   3.746   3.734   9.174 -0.3199  0.2895  0.3535
   47CHL1  H16A 5906   3.663   3.748   9.101 -0.7157  1.7358  1.0607
   47CHL1  H16B 5907   3.835   3.791   9.141 -1.5746  1.4882 -1.0766
   47CHL1   C17 5908   3.778   3.582   9.191 -0.7033 -0.6809  0.1476
   47CHL1   H17 5909   3.883   3.577   9.228  0.1777  0.7558 -2.0585
   47CHL1   C13 5910   3.688   3.529   9.314 -0.1625  0.0245 -0.3129
   47CHL1   C18 5911   3.547   3.520   9.271 -0.2695  0.3664 -0.0605
   47CHL1  H18A 5912   3.490   3.508   9.366 -0.9984  1.1925 -0.3853
   47CHL1  H18B 5913   3.499   3.617   9.244  0.5484  0.7019 -0.3497
   47CHL1  H18C 5914   3.511   3.437   9.207  0.0070 -0.0374  0.3115
   47CHL1   C12 5915   3.731   3.400   9.392 -0.3795 -0.1248  0.5173
   47CHL1  H12A 5916   3.705   3.314   9.326 -1.1636  0.8232 -0.4397
   47CHL1  H12B 5917   3.838   3.400   9.422  0.1568  3.1735 -1.2662
   47CHL1   C11 5918   3.647   3.383   9.520 -0.2590 -0.6678  0.3691
   47CHL1  H11A 5919   3.550   3.342   9.483 -0.6555  0.6228 -0.0765
   47CHL1  H11B 5920   3.698   3.312   9.587 -0.1723 -1.1437 -0.1976
   47CHL1    C9 5921   3.642   3.516   9.606  0.0839  0.8586 -0.5262
   47CHL1    H9 5922   3.745   3.534   9.646 -0.4107  1.6006  0.4397
   47CHL1   C10 5923   3.555   3.513   9.733 -0.8080 -0.8174 -0.1466
   47CHL1   C19 5924   3.406   3.471   9.698 -0.4346 -0.3589  0.1722
   47CHL1  H19A 5925   3.360   3.533   9.618 -0.9129 -0.1131  0.6253
   47CHL1  H19B 5926   3.409   3.362   9.679  0.0541  0.0711 -2.2557
   47CHL1  H19C 5927   3.336   3.469   9.785 -0.8090  2.5116 -0.0002
   47CHL1    C1 5928   3.612   3.422   9.841  0.6055  0.0516 -0.2207
   47CHL1   H1A 5929   3.609   3.317   9.807 -0.9506  0.4265 -1.2946
   47CHL1   H1B 5930   3.720   3.433   9.863  0.0655  1.6974  1.9296
   47CHL1    C2 5931   3.545   3.416   9.976  0.6100  0.6406 -0.1092
   47CHL1   H2A 5932   3.601   3.341  10.035 -0.1245 -1.0978 -1.5934
   47CHL1   H2B 5933   3.442   3.374   9.978  1.5889 -1.8815 -0.4141
   47CHL1   C20 5934   3.764   3.504   9.064 -0.1458 -0.2448 -0.4531
   47CHL1   H20 5935   3.658   3.525   9.037 -0.1746 -0.4712 -0.5146
   47CHL1   C21 5936   3.782   3.351   9.078 -0.1269 -0.3064 -0.8918
   47CHL1  H21A 5937   3.881   3.328   9.121 -0.4620  0.7752  0.4969
   47CHL1  H21B 5938   3.769   3.308   8.976  1.0552 -3.4961  0.2410
   47CHL1  H21C 5939   3.700   3.305   9.138  2.5214 -1.5081  1.9368
   47CHL1   C22 5940   3.857   3.554   8.951 -0.1087 -0.3297 -0.3461
   47CHL1  H22A 5941   3.840   3.664   8.941  1.5864  0.0171  0.4620
   47CHL1  H22B 5942   3.964   3.536   8.974 -0.2597  0.0822  0.6866
   47CHL1   C23 5943   3.824   3.496   8.812 -0.0729 -0.4747 -0.6356
   47CHL1  H23A 5944   3.866   3.393   8.801  1.3622 -0.0224  0.4657
   47CHL1  H23B 5945   3.715   3.500   8.794 -0.7909 -1.5822  3.0476
   47CHL1   C24 5946   3.904   3.562   8.701  0.0391  0.7963  0.6028
   47CHL1  H24A 5947   3.870   3.666   8.681 -1.3270  0.1078 -0.6863
   47CHL1  H24B 5948   4.012   3.566   8.728  0.7012 -3.0664 -1.1765
   47CHL1   C25 5949   3.888   3.488   8.562  0.0739 -0.1138 -0.9000
   47CHL1   H25 5950   3.923   3.384   8.583 -0.2032 -0.2427 -1.0644
   47CHL1   C26 5951   3.743   3.489   8.517  0.1877 -0.3120  0.0801
   47CHL1  H26A 5952   3.735   3.443   8.416  1.7521  0.3366 -0.3359
   47CHL1  H26B 5953   3.696   3.584   8.485  0.5151 -0.1049  0.2237
   47CHL1  H26C 5954   3.669   3.442   8.587  0.6677  0.8690  1.3925
   47CHL1   C27 5955   3.988   3.539   8.462  0.4563  0.7561 -0.3791
   47CHL1  H27A 5956   4.093   3.507   8.479 -0.5896 -2.5573  0.2076
   47CHL1  H27B 5957   3.945   3.505   8.365  0.0390  2.4413 -0.8023
   47CHL1  H27C 5958   3.976   3.649   8.448 -1.3029  0.3209 -2.8110
   48CHL1    C3 5959   4.855   4.468  10.278  0.0811 -0.1505  0.0819
   48CHL1    H3 5960   4.749   4.488  10.250 -0.7300 -1.8042  1.8463
   48CHL1    O3 5961   4.869   4.487  10.418  0.0242  0.2870 -0.2742
   48CHL1   H3' 5962   4.940   4.424  10.431 -0.0129  0.3110  0.0482
   48CHL1    C4 5963   4.887   4.325  10.242 -0.2448 -0.4180  0.0040
   48CHL1   H4A 5964   4.989   4.296  10.276  0.4219  0.6678 -1.0460
   48CHL1   H4B 5965   4.818   4.256  10.295  0.8058 -2.3240 -1.0203
   48CHL1    C5 5966   4.886   4.302  10.091 -0.5911  0.5183  0.6986
   48CHL1    C6 5967   4.814   4.207  10.035 -0.4451 -0.7502 -0.1194
   48CHL1    H6 5968   4.758   4.146  10.107 -1.4023  0.9250  0.5977
   48CHL1    C7 5969   4.819   4.176   9.890 -0.4872  0.1402  0.6655
   48CHL1   H7A 5970   4.834   4.067   9.873 -1.4714  0.3175 -1.4606
   48CHL1   H7B 5971   4.729   4.212   9.836 -0.0042 -1.2492 -1.1018
   48CHL1    C8 5972   4.940   4.241   9.806 -0.5322  0.4736 -0.0530
   48CHL1    H8 5973   5.029   4.183   9.838 -1.0083 -0.4438 -0.3792
   48CHL1   C14 5974   4.909   4.243   9.659  0.3615 -0.2599 -0.2229
   48CHL1   H14 5975   4.825   4.316   9.654  2.7491  2.6780  0.7286
   48CHL1   C15 5976   4.870   4.114   9.594 -0.1775  0.3111  0.4862
   48CHL1  H15A 5977   4.935   4.029   9.621 -2.5834 -1.6721  0.2548
   48CHL1  H15B 5978   4.769   4.077   9.623 -0.1878 -0.0185  0.0318
   48CHL1   C16 5979   4.878   4.147   9.437  0.1897  0.2079 -0.1426
   48CHL1  H16A 5980   4.927   4.065   9.380 -0.4181  0.0840 -0.4822
   48CHL1  H16B 5981   4.777   4.173   9.399  0.0431  2.7902  1.9196
   48CHL1   C17 5982   4.972   4.270   9.424 -0.4182  0.3238  0.3162
   48CHL1   H17 5983   4.899   4.349   9.396  0.1001  0.6764 -0.0359
   48CHL1   C13 5984   5.025   4.299   9.575 -0.0279 -0.0810  0.7017
   48CHL1   C18 5985   5.155   4.212   9.597 -0.1560  0.4388 -0.2351
   48CHL1  H18A 5986   5.224   4.232   9.513  0.8906 -1.7345  0.0766
   48CHL1  H18B 5987   5.208   4.218   9.695 -0.4917  1.8836 -0.1354
   48CHL1  H18C 5988   5.133   4.107   9.567  2.9634 -0.5452  0.7370
   48CHL1   C12 5989   5.047   4.444   9.623  0.4156 -0.0685  0.4692
   48CHL1  H12A 5990   5.139   4.479   9.572 -0.6899 -0.0454 -1.5370
   48CHL1  H12B 5991   4.961   4.504   9.586  0.5208 -0.8203 -0.9923
   48CHL1   C11 5992   5.067   4.460   9.774 -0.3151  0.5900 -0.2788
   48CHL1  H11A 5993   5.171   4.428   9.797 -0.9331 -1.5017 -0.3529
   48CHL1  H11B 5994   5.058   4.568   9.798  2.9496  1.3841 -2.2490
   48CHL1    C9 5995   4.960   4.389   9.858  0.0671 -0.6079 -0.4668
   48CHL1    H9 5996   4.864   4.444   9.847 -0.6349 -1.6540  0.4341
   48CHL1   C10 5997   4.978   4.401  10.013 -0.1402  0.0801 -0.0660
   48CHL1   C19 5998   5.126   4.379  10.045  0.3684 -0.0934 -0.5493
   48CHL1  H19A 5999   5.185   4.461   9.997  0.4197 -1.2103 -2.4703
   48CHL1  H19B 6000   5.146   4.374  10.154  2.0410 -0.8165 -0.8750
   48CHL1  H19C 6001   5.164   4.287   9.995  0.3840 -2.0037  2.8714
   48CHL1    C1 6002   4.934   4.553  10.055 -0.2461  0.2956 -0.5885
   48CHL1   H1A 6003   4.995   4.625   9.997  5.2166 -1.0138  3.1604
   48CHL1   H1B 6004   4.825   4.562  10.035 -0.5891  0.3831  1.1733
   48CHL1    C2 6005   4.948   4.568  10.205  0.2938 -0.1771 -0.3488
   48CHL1   H2A 6006   4.911   4.668  10.234  0.6934 -0.5744  1.6026
   48CHL1   H2B 6007   5.054   4.562  10.237  0.4390  1.5280 -0.4902
   48CHL1   C20 6008   5.073   4.274   9.307 -0.6121  0.4333  0.2870
   48CHL1   H20 6009   5.132   4.180   9.309  1.8649  1.9409 -0.4934
   48CHL1   C21 6010   5.172   4.392   9.318  0.1433  0.2347 -0.8335
   48CHL1  H21A 6011   5.115   4.481   9.283 -1.9588 -1.3705 -1.6187
   48CHL1  H21B 6012   5.255   4.364   9.250 -0.6386 -0.9606 -1.3032
   48CHL1  H21C 6013   5.224   4.409   9.414  0.3070 -1.7660 -0.5511
   48CHL1   C22 6014   5.001   4.270   9.170 -0.3150 -0.2171  0.2391
   48CHL1  H22A 6015   4.917   4.197   9.164 -0.2771 -0.2741  0.3961
   48CHL1  H22B 6016   4.968   4.372   9.140 -0.6161  0.1937  1.9317
   48CHL1   C23 6017   5.091   4.222   9.056 -0.0889 -0.3777 -0.8356
   48CHL1  H23A 6018   5.193   4.259   9.080  0.0047 -1.6948  0.8944
   48CHL1  H23B 6019   5.086   4.111   9.059  0.2896 -0.3917 -0.7181
   48CHL1   C24 6020   5.049   4.263   8.916 -0.0693 -0.1474  0.0847
   48CHL1  H24A 6021   4.946   4.230   8.893  0.4982 -2.0836  0.2431
   48CHL1  H24B 6022   5.062   4.373   8.910  1.5889 -0.4060 -1.4292
   48CHL1   C25 6023   5.137   4.196   8.809  0.0733 -0.6595 -0.1138
   48CHL1   H25 6024   5.246   4.208   8.826  0.0173  0.5480 -0.6171
   48CHL1   C26 6025   5.120   4.043   8.794 -0.1198 -0.0290 -0.7672
   48CHL1  H26A 6026   5.166   3.987   8.878  1.0627 -0.0847 -1.4441
   48CHL1  H26B 6027   5.015   4.013   8.775 -0.0720  0.7483 -2.3494
   48CHL1  H26C 6028   5.190   4.019   8.711  0.8269  2.3678 -0.7063
   48CHL1   C27 6029   5.089   4.271   8.686 -0.1578 -0.0149  0.0387
   48CHL1  H27A 6030   5.111   4.380   8.697  0.2247  0.2989 -3.3037
   48CHL1  H27B 6031   5.143   4.237   8.595  0.5412 -0.8125  0.7390
   48CHL1  H27C 6032   4.982   4.259   8.659 -0.2493  0.1124  0.3366
   49CHL1    C3 6033   2.223   6.297   9.924 -0.3734  0.0877 -0.2789
   49CHL1    H3 6034   2.116   6.272   9.908 -1.0609 -0.4817  4.5412
   49CHL1    O3 6035   2.237   6.263  10.064 -0.1035 -0.1643 -0.5628
   49CHL1   H3' 6036   2.327   6.276  10.094 -0.2811 -0.8397  0.2785
   49CHL1    C4 6037   2.308   6.206   9.834  0.0701 -0.1744 -0.4738
   49CHL1   H4A 6038   2.412   6.220   9.872 -0.7867  2.0530  1.1956
   49CHL1   H4B 6039   2.283   6.100   9.854 -0.3119 -0.2978 -1.5968
   49CHL1    C5 6040   2.295   6.251   9.687 -0.8156  0.0524  0.0679
   49CHL1    C6 6041   2.265   6.168   9.590  0.8888 -0.3902  1.0305
   49CHL1    H6 6042   2.248   6.062   9.616 -2.2434 -0.2075 -0.1166
   49CHL1    C7 6043   2.246   6.197   9.444  0.2626 -0.3787  0.1817
   49CHL1   H7A 6044   2.291   6.121   9.376  1.0153 -0.6056  0.9279
   49CHL1   H7B 6045   2.140   6.198   9.409  0.9423 -0.3306 -1.9140
   49CHL1    C8 6046   2.311   6.330   9.409  0.5640 -0.2812 -0.2488
   49CHL1    H8 6047   2.422   6.321   9.419  0.3699 -2.7474 -0.0213
   49CHL1   C14 6048   2.266   6.383   9.271  0.4632 -0.5117 -0.0788
   49CHL1   H14 6049   2.157   6.393   9.287  0.5647 -1.3659  1.2129
   49CHL1   C15 6050   2.276   6.285   9.151 -0.4378  0.0538 -0.1168
   49CHL1  H15A 6051   2.374   6.232   9.145  0.3816  1.6793 -2.1377
   49CHL1  H15B 6052   2.193   6.211   9.158  0.7849 -1.3812 -0.4603
   49CHL1   C16 6053   2.255   6.377   9.035  0.0324  0.1702  0.1031
   49CHL1  H16A 6054   2.352   6.370   8.980  0.5969  0.3147  1.0669
   49CHL1  H16B 6055   2.172   6.351   8.966 -1.0109  0.2784  1.3062
   49CHL1   C17 6056   2.249   6.525   9.091  0.5216 -0.4710 -0.0714
   49CHL1   H17 6057   2.141   6.538   9.113  0.7806  0.5588  0.6072
   49CHL1   C13 6058   2.313   6.512   9.230 -0.2697  0.3539 -0.1299
   49CHL1   C18 6059   2.471   6.509   9.217  0.3669 -1.3452  0.2279
   49CHL1  H18A 6060   2.504   6.447   9.131  3.1522  2.3143 -1.4754
   49CHL1  H18B 6061   2.504   6.615   9.210  0.7436 -1.3384  1.9415
   49CHL1  H18C 6062   2.516   6.469   9.310  2.0388  0.4308  0.2329
   49CHL1   C12 6063   2.269   6.615   9.330  0.2707  1.2231 -0.4011
   49CHL1  H12A 6064   2.313   6.713   9.305 -0.3184  2.3908  2.9070
   49CHL1  H12B 6065   2.158   6.618   9.325  0.2740  1.1276 -0.5534
   49CHL1   C11 6066   2.316   6.582   9.470 -0.2448  0.0129  0.4599
   49CHL1  H11A 6067   2.427   6.594   9.462  0.1165 -0.8353  3.5635
   49CHL1  H11B 6068   2.270   6.652   9.543  1.7462  0.3594  1.4222
   49CHL1    C9 6069   2.276   6.442   9.513 -0.9699 -0.6127 -0.0420
   49CHL1    H9 6070   2.166   6.456   9.504 -0.7367  0.9658 -0.5983
   49CHL1   C10 6071   2.316   6.405   9.660  0.5361 -0.2121 -0.3807
   49CHL1   C19 6072   2.474   6.432   9.684  0.5173 -0.1891 -0.7643
   49CHL1  H19A 6073   2.542   6.381   9.613  0.0375  1.7383 -2.6833
   49CHL1  H19B 6074   2.488   6.541   9.668 -2.3116  0.3283 -0.0706
   49CHL1  H19C 6075   2.506   6.396   9.783 -1.7867 -0.2112  0.0090
   49CHL1    C1 6076   2.227   6.494   9.764  0.1610  0.1963  0.2746
   49CHL1   H1A 6077   2.254   6.601   9.748  1.3220 -0.0653  0.3988
   49CHL1   H1B 6078   2.121   6.468   9.743 -0.1032  1.4751  0.0189
   49CHL1    C2 6079   2.246   6.448   9.904  1.2883  0.1493 -0.2342
   49CHL1   H2A 6080   2.174   6.493   9.974 -0.7022 -2.9747 -0.1809
   49CHL1   H2B 6081   2.352   6.474   9.926  0.8108  2.3189 -0.3612
   49CHL1   C20 6082   2.299   6.627   8.995  0.1711  0.3276  0.0370
   49CHL1   H20 6083   2.403   6.604   8.964  0.4613  1.0621  0.4764
   49CHL1   C21 6084   2.313   6.763   9.064  0.9984  0.0664 -0.3729
   49CHL1  H21A 6085   2.219   6.792   9.117  1.7603 -0.2928  1.2064
   49CHL1  H21B 6086   2.329   6.834   8.981  0.9532 -1.9173 -2.1042
   49CHL1  H21C 6087   2.399   6.771   9.134 -0.6532  3.2902  1.3914
   49CHL1   C22 6088   2.209   6.631   8.867  0.2292  0.7959  0.1389
   49CHL1  H22A 6089   2.190   6.527   8.831  0.3313  0.1636  1.8609
   49CHL1  H22B 6090   2.109   6.660   8.908 -0.3549  0.2626 -0.8984
   49CHL1   C23 6091   2.268   6.713   8.752 -0.3662  0.0801  0.0803
   49CHL1  H23A 6092   2.241   6.817   8.782 -0.0422 -0.5500  2.6687
   49CHL1  H23B 6093   2.376   6.687   8.746  0.1086  1.8199  0.7216
   49CHL1   C24 6094   2.185   6.696   8.625  0.1086 -0.6840 -0.1887
   49CHL1  H24A 6095   2.181   6.586   8.607 -1.1641 -0.7555  0.5226
   49CHL1  H24B 6096   2.077   6.720   8.634  0.2119 -0.3298  0.1362
   49CHL1   C25 6097   2.245   6.764   8.504  0.0080 -0.3231  0.0234
   49CHL1   H25 6098   2.261   6.870   8.531 -2.9910  0.1906 -0.1074
   49CHL1   C26 6099   2.383   6.708   8.477 -0.3366  0.5000 -0.2491
   49CHL1  H26A 6100   2.422   6.768   8.392  2.9580 -0.1090  0.7613
   49CHL1  H26B 6101   2.451   6.711   8.565 -0.9310 -1.8797  0.3252
   49CHL1  H26C 6102   2.391   6.600   8.453  0.3059  0.0746  1.8050
   49CHL1   C27 6103   2.168   6.755   8.368  0.1599  0.0149 -0.4087
   49CHL1  H27A 6104   2.132   6.653   8.347  0.4250 -0.0342 -0.6238
   49CHL1  H27B 6105   2.074   6.813   8.377  1.3648  1.8614  0.8698
   49CHL1  H27C 6106   2.224   6.795   8.281 -0.4736  2.0901  0.1058
   50CHL1    C3 6107   5.744   1.707  10.253  1.0487  0.5801 -0.0622
   50CHL1    H3 6108   5.738   1.816  10.230 -0.8586  0.1158 -1.9507
   50CHL1    O3 6109   5.675   1.671  10.368  0.4337  0.2842 -0.3613
   50CHL1   H3' 6110   5.732   1.610  10.415  0.9234  3.8583  3.9224
   50CHL1    C4 6111   5.672   1.638  10.139  0.3810  0.0674 -0.5448
   50CHL1   H4A 6112   5.666   1.529  10.158  0.6681 -0.7099 -4.4358
   50CHL1   H4B 6113   5.566   1.670  10.147  0.4872  0.7500 -1.7379
   50CHL1    C5 6114   5.743   1.644  10.006  0.6556 -0.0742  0.3921
   50CHL1    C6 6115   5.686   1.718   9.909 -0.0060 -0.5171  0.2015
   50CHL1    H6 6116   5.582   1.750   9.924 -0.1745 -1.1852  0.5085
   50CHL1    C7 6117   5.755   1.753   9.783  0.7259  0.6102  0.2978
   50CHL1   H7A 6118   5.687   1.750   9.695 -1.3885 -1.6665  1.9444
   50CHL1   H7B 6119   5.789   1.859   9.784  0.3901  0.7268 -0.7379
   50CHL1    C8 6120   5.879   1.660   9.756 -0.4593  0.4069 -0.3778
   50CHL1    H8 6121   5.835   1.558   9.751 -0.0018  0.1934 -0.1175
   50CHL1   C14 6122   5.955   1.694   9.631  0.8299 -0.2540 -0.3691
   50CHL1   H14 6123   5.985   1.801   9.641 -0.9541  0.2477 -0.3370
   50CHL1   C15 6124   5.869   1.681   9.502  0.0418  0.2354 -1.3000
   50CHL1  H15A 6125   5.811   1.587   9.497  0.9285 -0.3297 -0.9609
   50CHL1  H15B 6126   5.799   1.766   9.485 -0.6789 -0.3769 -1.3726
   50CHL1   C16 6127   5.978   1.677   9.388 -0.6556  0.0750 -0.2313
   50CHL1  H16A 6128   5.945   1.591   9.327 -1.5040  0.4123 -0.2539
   50CHL1  H16B 6129   5.970   1.774   9.334  0.4771  1.6715  2.3569
   50CHL1   C17 6130   6.113   1.666   9.458  0.5259 -0.0800 -0.2222
   50CHL1   H17 6131   6.146   1.771   9.473 -0.6674  0.2393  0.2322
   50CHL1   C13 6132   6.078   1.616   9.605 -0.8695  0.4218  0.3873
   50CHL1   C18 6133   6.054   1.464   9.584  0.4468  0.5609  0.1414
   50CHL1  H18A 6134   6.153   1.413   9.582 -0.2785 -0.7826 -2.0295
   50CHL1  H18B 6135   5.997   1.424   9.671 -2.5067  1.9316 -1.0990
   50CHL1  H18C 6136   5.991   1.440   9.497 -0.6996  0.4711  0.9888
   50CHL1   C12 6137   6.176   1.650   9.719  0.3893  0.3148  0.2310
   50CHL1  H12A 6138   6.271   1.595   9.705 -0.4735 -0.6708 -2.1076
   50CHL1  H12B 6139   6.200   1.757   9.704 -1.1802  0.5214 -1.0627
   50CHL1   C11 6140   6.117   1.618   9.855  0.2898  0.0373 -0.2067
   50CHL1  H11A 6141   6.120   1.507   9.870  1.0797  0.0113 -0.5901
   50CHL1  H11B 6142   6.180   1.657   9.938  1.4470 -0.1626 -0.9890
   50CHL1    C9 6143   5.966   1.669   9.881 -0.0113 -0.3106  0.2496
   50CHL1    H9 6144   5.973   1.779   9.897 -0.9918 -0.6599  3.4869
   50CHL1   C10 6145   5.893   1.608  10.005 -0.1355  0.1157  0.8558
   50CHL1   C19 6146   5.918   1.458  10.025 -0.2695  0.3491  0.1359
   50CHL1  H19A 6147   5.866   1.403   9.943  1.5799  2.2462 -2.4019
   50CHL1  H19B 6148   6.027   1.439  10.040 -0.5166 -1.8795 -0.7159
   50CHL1  H19C 6149   5.880   1.406  10.115  1.5474 -0.2421  0.5894
   50CHL1    C1 6150   5.955   1.682  10.129  0.6597 -1.2030  0.1014
   50CHL1   H1A 6151   6.063   1.658  10.134  0.4638 -2.0013  0.7214
   50CHL1   H1B 6152   5.955   1.793  10.125 -2.1776 -1.0751  2.0693
   50CHL1    C2 6153   5.885   1.661  10.268 -0.0204  0.1499  0.0952
   50CHL1   H2A 6154   5.935   1.713  10.351  2.2186  0.5145 -1.4432
   50CHL1   H2B 6155   5.893   1.554  10.295  3.6900  0.6085  0.9947
   50CHL1   C20 6156   6.224   1.593   9.380  0.2063  0.7568  0.8824
   50CHL1   H20 6157   6.198   1.489   9.349  2.2522  1.1259 -2.2100
   50CHL1   C21 6158   6.352   1.580   9.463  0.5371  0.1695 -0.3135
   50CHL1  H21A 6159   6.347   1.493   9.532  1.0591  0.9894  0.8002
   50CHL1  H21B 6160   6.375   1.676   9.516  1.0165  0.0795 -0.3492
   50CHL1  H21C 6161   6.442   1.557   9.401 -0.0236  0.8275 -1.3869
   50CHL1   C22 6162   6.251   1.668   9.248 -0.4120  0.2484 -0.0844
   50CHL1  H22A 6163   6.159   1.702   9.196 -1.4201 -0.5485  1.1376
   50CHL1  H22B 6164   6.293   1.769   9.267 -2.5650  1.4457 -1.3982
   50CHL1   C23 6165   6.351   1.599   9.149 -0.1486 -0.7263 -0.2299
   50CHL1  H23A 6166   6.368   1.671   9.065 -0.4732 -0.0801  0.2553
   50CHL1  H23B 6167   6.452   1.583   9.192  2.9927  5.0734 -4.7029
   50CHL1   C24 6168   6.289   1.476   9.082 -0.0180  0.7913 -0.2335
   50CHL1  H24A 6169   6.279   1.398   9.161  0.9765  1.9360  1.0558
   50CHL1  H24B 6170   6.187   1.494   9.043 -0.3480  0.6071  0.5268
   50CHL1   C25 6171   6.377   1.401   8.982  0.2960 -0.2224  0.5205
   50CHL1   H25 6172   6.474   1.389   9.034  0.8679  1.5649 -0.1038
   50CHL1   C26 6173   6.330   1.262   8.947 -0.2967  0.4907  0.2862
   50CHL1  H26A 6174   6.226   1.275   8.908 -0.4092 -1.3504 -0.0895
   50CHL1  H26B 6175   6.396   1.215   8.871  0.2510 -1.2939  1.8496
   50CHL1  H26C 6176   6.327   1.198   9.038  0.3009  0.0135 -0.0317
   50CHL1   C27 6177   6.398   1.494   8.863 -0.7320  0.2515 -0.5374
   50CHL1  H27A 6178   6.440   1.593   8.891  1.4538 -1.1786  1.2959
   50CHL1  H27B 6179   6.452   1.439   8.783  0.1843  0.7097 -0.2375
   50CHL1  H27C 6180   6.309   1.513   8.799 -0.8189  1.0276 -0.1912
   51CHL1    C3 6181   0.494   4.183  10.103  0.3006  0.4698 -0.3453
   51CHL1    H3 6182   0.517   4.288  10.076  2.2432  0.2441  0.3269
   51CHL1    O3 6183   0.517   4.164  10.244 -0.4957 -0.4343  0.4625
   51CHL1   H3' 6184   0.475   4.078  10.251 -1.8935  0.2551  0.7527
   51CHL1    C4 6185   0.340   4.155  10.073 -0.0930  0.0196 -0.2997
   51CHL1   H4A 6186   0.326   4.053  10.113  0.8162 -0.0172 -0.0574
   51CHL1   H4B 6187   0.282   4.222  10.140  1.7126 -0.5094  1.8534
   51CHL1    C5 6188   0.306   4.168   9.931  0.9446  0.8998 -0.1802
   51CHL1    C6 6189   0.208   4.252   9.875 -0.3721  0.0557 -0.2992
   51CHL1    H6 6190   0.151   4.313   9.946 -1.3105 -1.0977 -0.0550
   51CHL1    C7 6191   0.174   4.270   9.728  0.1400  0.7083  0.4718
   51CHL1   H7A 6192   0.064   4.274   9.716  0.4000 -1.2178 -3.4429
   51CHL1   H7B 6193   0.208   4.365   9.683 -4.0407  1.7777 -0.5977
   51CHL1    C8 6194   0.220   4.152   9.642  0.0972  0.3802  0.1711
   51CHL1    H8 6195   0.160   4.062   9.664 -0.6202  0.2212 -2.3455
   51CHL1   C14 6196   0.207   4.191   9.496  0.3203  0.1117 -0.5570
   51CHL1   H14 6197   0.272   4.281   9.491  2.0528 -1.2012 -2.2569
   51CHL1   C15 6198   0.069   4.237   9.454 -0.0137  0.3141  0.0033
   51CHL1  H15A 6199  -0.007   4.159   9.478 -0.2015  1.3645  3.0730
   51CHL1  H15B 6200   0.039   4.335   9.496  0.5307  0.7204 -0.5649
   51CHL1   C16 6201   0.088   4.232   9.302  0.1328 -0.7445 -0.1261
   51CHL1  H16A 6202  -0.007   4.192   9.260 -0.7337 -0.2398  1.3157
   51CHL1  H16B 6203   0.109   4.335   9.266 -1.2939 -0.3340  0.1976
   51CHL1   C17 6204   0.221   4.151   9.274  0.3763  0.1602 -1.2406
   51CHL1   H17 6205   0.294   4.233   9.262 -0.7423  1.6078  1.4660
   51CHL1   C13 6206   0.264   4.083   9.402  0.4809 -0.0971  0.7271
   51CHL1   C18 6207   0.177   3.953   9.420  0.4793 -0.1605 -0.4243
   51CHL1  H18A 6208   0.221   3.872   9.358  2.5467  1.3644 -0.9929
   51CHL1  H18B 6209   0.181   3.911   9.523  0.6570 -0.2024 -0.4490
   51CHL1  H18C 6210   0.075   3.982   9.386  1.2829  2.4902 -0.7331
   51CHL1   C12 6211   0.415   4.067   9.429  0.2876 -0.5136  0.1551
   51CHL1  H12A 6212   0.446   3.981   9.365  0.5222 -0.8183  0.6775
   51CHL1  H12B 6213   0.461   4.164   9.398  0.9808 -1.2892 -1.2968
   51CHL1   C11 6214   0.448   4.043   9.575  0.1344  0.3459  1.0155
   51CHL1  H11A 6215   0.403   3.943   9.596  0.4019 -0.2305 -1.0445
   51CHL1  H11B 6216   0.556   4.036   9.601  0.1114 -2.9796  0.4731
   51CHL1    C9 6217   0.371   4.128   9.684 -0.4159  0.1396  0.2172
   51CHL1    H9 6218   0.417   4.229   9.689 -0.1520 -0.0744  3.8297
   51CHL1   C10 6219   0.395   4.084   9.838  0.5980 -0.0218  0.0090
   51CHL1   C19 6220   0.368   3.935   9.852 -0.6323 -0.1936  0.0848
   51CHL1  H19A 6221   0.454   3.876   9.814  0.7842  1.2439  1.0284
   51CHL1  H19B 6222   0.352   3.905   9.958  0.3124 -1.2025 -0.0463
   51CHL1  H19C 6223   0.271   3.904   9.808 -0.7492 -2.5173  1.8652
   51CHL1    C1 6224   0.543   4.108   9.870  0.0641  0.1572 -0.3427
   51CHL1   H1A 6225   0.604   4.032   9.816  1.7766  1.4547 -0.2738
   51CHL1   H1B 6226   0.576   4.205   9.828 -0.3074 -0.0876 -1.2036
   51CHL1    C2 6227   0.584   4.098  10.017  0.0714  0.3967 -0.2896
   51CHL1   H2A 6228   0.691   4.121  10.034  0.0393 -0.4579  1.1829
   51CHL1   H2B 6229   0.584   3.994  10.058 -0.6110  1.1525  1.6749
   51CHL1   C20 6230   0.218   4.078   9.142 -0.1537  0.3295  0.0953
   51CHL1   H20 6231   0.152   3.988   9.144 -0.4137  0.5465  1.7904
   51CHL1   C21 6232   0.354   4.022   9.104  0.1054  0.5225  0.1908
   51CHL1  H21A 6233   0.390   3.936   9.164  1.9279  1.2317  0.1653
   51CHL1  H21B 6234   0.431   4.100   9.123  1.5284 -0.6034 -0.8453
   51CHL1  H21C 6235   0.352   3.998   8.996  0.3821  0.0749  0.2840
   51CHL1   C22 6236   0.136   4.157   9.027 -0.2600  0.1057 -0.6218
   51CHL1  H22A 6237   0.029   4.139   9.052  0.2578 -0.2333  1.4272
   51CHL1  H22B 6238   0.168   4.263   9.024  1.6750 -0.3807  1.6352
   51CHL1   C23 6239   0.150   4.100   8.880 -0.1071 -0.1568 -0.2224
   51CHL1  H23A 6240   0.256   4.094   8.850  0.0710 -2.6303  0.8438
   51CHL1  H23B 6241   0.123   3.993   8.886 -1.0862  0.2404  4.5006
   51CHL1   C24 6242   0.065   4.180   8.772  0.1992 -0.4780  0.3712
   51CHL1  H24A 6243  -0.038   4.188   8.815  0.3122  0.4781  0.4730
   51CHL1  H24B 6244   0.103   4.282   8.749  1.3191 -1.1389 -0.7487
   51CHL1   C25 6245   0.060   4.109   8.636  0.3932  0.3621 -0.0418
   51CHL1   H25 6246   0.021   4.006   8.642  1.7871 -0.3398 -2.3243
   51CHL1   C26 6247  -0.036   4.177   8.542 -0.1962 -0.4198  0.0320
   51CHL1  H26A 6248  -0.143   4.188   8.567 -0.3013  0.4461 -0.7872
   51CHL1  H26B 6249  -0.004   4.283   8.543  1.0745 -0.7638 -2.0496
   51CHL1  H26C 6250  -0.032   4.150   8.434 -0.1832 -0.3452  0.0131
   51CHL1   C27 6251   0.199   4.096   8.571 -0.0475 -0.0810  0.0293
   51CHL1  H27A 6252   0.249   4.013   8.623  1.0445  1.0835  0.8568
   51CHL1  H27B 6253   0.187   4.076   8.462  1.4177 -1.3914  0.0984
   51CHL1  H27C 6254   0.241   4.198   8.584 -0.1420  0.0874 -0.9240
   52CHL1    C3 6255   3.860   3.257  10.211 -0.0000 -0.1140 -0.7999
   52CHL1    H3 6256   3.783   3.321  10.164 -2.1985 -2.4796 -0.5051
   52CHL1    O3 6257   3.852   3.267  10.354 -0.0880 -0.0394  0.0236
   52CHL1   H3' 6258   3.928   3.216  10.385  0.5417  1.6301  1.3024
   52CHL1    C4 6259   3.830   3.117  10.161  0.0966 -0.4779 -0.0465
   52CHL1   H4A 6260   3.898   3.045  10.212  0.9485  0.3146 -0.0681
   52CHL1   H4B 6261   3.727   3.089  10.193 -0.3239  0.0808 -0.8940
   52CHL1    C5 6262   3.844   3.109  10.007  0.5305 -0.2877 -0.0644
   52CHL1    C6 6263   3.755   3.061   9.924  0.6114 -1.0041 -0.2241
   52CHL1    H6 6264   3.665   3.010   9.961 -0.6145  0.3648 -1.2738
   52CHL1    C7 6265   3.762   3.035   9.775  0.1724  0.1568 -0.1838
   52CHL1   H7A 6266   3.717   2.936   9.750 -0.6131 -0.1190  2.1649
   52CHL1   H7B 6267   3.714   3.113   9.713  1.7207 -0.0908 -1.7254
   52CHL1    C8 6268   3.906   3.041   9.728 -0.5599 -0.0082 -0.1847
   52CHL1    H8 6269   3.944   2.939   9.750  0.1786  0.4414  0.6914
   52CHL1   C14 6270   3.916   3.056   9.577 -0.8428  0.1533 -0.0351
   52CHL1   H14 6271   3.888   3.162   9.556  1.5370  1.3147  2.4188
   52CHL1   C15 6272   3.819   2.962   9.500  0.3730 -0.0627 -0.1947
   52CHL1  H15A 6273   3.808   2.857   9.533  1.2276 -0.3720 -0.9037
   52CHL1  H15B 6274   3.716   3.005   9.506  0.7209  0.7788 -0.2458
   52CHL1   C16 6275   3.880   2.980   9.361 -0.4364  0.2597 -0.0526
   52CHL1  H16A 6276   3.900   2.884   9.310  0.9786  1.5117 -1.8843
   52CHL1  H16B 6277   3.811   3.043   9.301 -0.7688 -1.5305 -1.5829
   52CHL1   C17 6278   4.018   3.058   9.372  0.2489  0.4959  0.4046
   52CHL1   H17 6279   3.986   3.163   9.356 -1.6873 -0.4125 -2.1111
   52CHL1   C13 6280   4.055   3.046   9.520 -0.3061 -0.0910  0.0260
   52CHL1   C18 6281   4.123   2.908   9.540  0.3221  0.0602 -0.2685
   52CHL1  H18A 6282   4.137   2.891   9.649 -2.8468  0.9006  0.3150
   52CHL1  H18B 6283   4.066   2.825   9.492  0.9096 -0.3121 -0.3264
   52CHL1  H18C 6284   4.226   2.901   9.498  0.7755 -0.7002  0.9485
   52CHL1   C12 6285   4.141   3.161   9.581 -0.1002 -0.3690 -0.4279
   52CHL1  H12A 6286   4.244   3.134   9.550  0.4258 -1.0043  1.7840
   52CHL1  H12B 6287   4.113   3.262   9.542 -0.7320 -0.5805 -0.5356
   52CHL1   C11 6288   4.130   3.169   9.734 -0.3984  0.4263 -1.2991
   52CHL1  H11A 6289   4.196   3.085   9.764  0.3797  1.6514  0.5605
   52CHL1  H11B 6290   4.186   3.254   9.781  0.3138 -1.8042  2.1144
   52CHL1    C9 6291   3.988   3.157   9.792  0.2319  0.6596 -0.6285
   52CHL1    H9 6292   3.936   3.250   9.762 -0.6538 -0.3241 -2.2089
   52CHL1   C10 6293   3.977   3.159   9.945  0.4467  0.4770  1.1838
   52CHL1   C19 6294   4.085   3.075  10.005  0.3196  0.9876  0.7484
   52CHL1  H19A 6295   4.181   3.131  10.003  0.3574  0.9066  0.3819
   52CHL1  H19B 6296   4.072   3.034  10.108 -1.3042 -1.4028 -0.3691
   52CHL1  H19C 6297   4.099   2.987   9.939  0.7015  1.6703 -0.0787
   52CHL1    C1 6298   3.997   3.298  10.002  0.1497 -0.6687  0.1440
   52CHL1   H1A 6299   4.094   3.339   9.968  0.1105  0.8292  1.7771
   52CHL1   H1B 6300   3.923   3.370   9.961 -0.2110 -1.1704 -0.1045
   52CHL1    C2 6301   3.994   3.304  10.163 -0.3684 -0.2506 -0.2225
   52CHL1   H2A 6302   4.011   3.411  10.188 -1.2468 -0.1537 -0.0061
   52CHL1   H2B 6303   4.078   3.242  10.202  0.7928  1.0093 -0.7180
   52CHL1   C20 6304   4.117   3.025   9.265  0.0851  0.3127  0.7166
   52CHL1   H20 6305   4.150   2.919   9.262  1.0866  0.6363  0.1714
   52CHL1   C21 6306   4.242   3.119   9.285  0.0753  0.9360 -0.1234
   52CHL1  H21A 6307   4.291   3.082   9.377  0.5567  0.4560 -0.5664
   52CHL1  H21B 6308   4.214   3.226   9.290  1.8979  1.4601 -0.7656
   52CHL1  H21C 6309   4.317   3.106   9.204  0.6451  1.3137  0.3448
   52CHL1   C22 6310   4.070   3.063   9.118  0.6022 -0.5780  0.2878
   52CHL1  H22A 6311   3.972   3.011   9.105  0.6282 -0.7037  0.5811
   52CHL1  H22B 6312   4.052   3.173   9.115 -0.2463 -0.7522 -1.4563
   52CHL1   C23 6313   4.164   3.015   9.007 -0.7304 -0.7732  0.0057
   52CHL1  H23A 6314   4.255   3.079   9.005 -1.7240  0.7146  1.0872
   52CHL1  H23B 6315   4.194   2.911   9.028 -0.3762 -0.6148  0.2836
   52CHL1   C24 6316   4.099   3.012   8.862 -0.1197 -0.2847 -0.3186
   52CHL1  H24A 6317   4.008   2.949   8.861 -1.0204  0.9676  1.0099
   52CHL1  H24B 6318   4.058   3.112   8.835 -0.7718 -0.6929 -0.8562
   52CHL1   C25 6319   4.200   2.964   8.759  0.3986  0.1773  0.0954
   52CHL1   H25 6320   4.269   2.893   8.810 -0.9706 -1.0542  0.2533
   52CHL1   C26 6321   4.147   2.906   8.625  0.1814 -0.0095 -0.2716
   52CHL1  H26A 6322   4.055   2.847   8.648 -0.4094  1.1992  0.4835
   52CHL1  H26B 6323   4.110   2.990   8.563  0.8168 -0.1205 -0.8090
   52CHL1  H26C 6324   4.216   2.838   8.569 -0.5781 -1.2101  0.2287
   52CHL1   C27 6325   4.296   3.072   8.717  0.4637 -0.4786  0.3928
   52CHL1  H27A 6326   4.243   3.161   8.677  0.1486 -0.7168  0.2766
   52CHL1  H27B 6327   4.357   3.113   8.800  2.0593  0.0837 -1.0342
   52CHL1  H27C 6328   4.359   3.052   8.628  0.5655 -3.4532  1.0668
   53CHL1    C3 6329   5.003   2.789  10.144 -0.3159  0.1684 -0.1053
   53CHL1    H3 6330   4.992   2.897  10.122  0.3527  0.0678 -0.9277
   53CHL1    O3 6331   5.001   2.789  10.286  0.2299 -0.2729 -0.0141
   53CHL1   H3' 6332   5.077   2.739  10.316  0.8273  1.0273  0.6334
   53CHL1    C4 6333   4.908   2.678  10.080 -0.2699  0.3762 -0.6882
   53CHL1   H4A 6334   4.924   2.580  10.129 -1.1034  1.1961  1.2950
   53CHL1   H4B 6335   4.802   2.696  10.108 -0.1250 -2.8077  2.1521
   53CHL1    C5 6336   4.924   2.675   9.929 -0.3719 -0.0354  0.4507
   53CHL1    C6 6337   4.816   2.690   9.841  0.7240  0.4061 -0.7265
   53CHL1    H6 6338   4.717   2.703   9.887  1.0244  1.7926 -0.4502
   53CHL1    C7 6339   4.829   2.686   9.691  0.0820 -0.0947 -0.4820
   53CHL1   H7A 6340   4.745   2.629   9.645  0.9168 -0.8021 -1.1515
   53CHL1   H7B 6341   4.819   2.791   9.656 -1.0556 -0.0373  0.0075
   53CHL1    C8 6342   4.955   2.615   9.633 -0.4721  0.4055 -0.1380
   53CHL1    H8 6343   4.952   2.505   9.652  0.7644  0.0789 -1.7053
   53CHL1   C14 6344   4.982   2.644   9.485 -0.2019  0.3868 -0.6982
   53CHL1   H14 6345   4.999   2.753   9.479  0.9829  0.1835 -1.3257
   53CHL1   C15 6346   4.863   2.614   9.385  0.0234  0.3854 -0.0831
   53CHL1  H15A 6347   4.817   2.517   9.412  0.0907  0.5985  0.8039
   53CHL1  H15B 6348   4.780   2.684   9.410 -0.6359 -0.3497 -0.2035
   53CHL1   C16 6349   4.927   2.634   9.254 -0.1270  0.7556  0.0780
   53CHL1  H16A 6350   4.900   2.544   9.196 -1.0050  1.6179 -0.8573
   53CHL1  H16B 6351   4.891   2.726   9.204  1.9503  1.7296  0.2906
   53CHL1   C17 6352   5.082   2.647   9.278 -0.1260  0.4882  0.4568
   53CHL1   H17 6353   5.108   2.755   9.276 -0.5014  0.5973  1.5282
   53CHL1   C13 6354   5.107   2.593   9.422 -0.6114 -0.1253 -0.2830
   53CHL1   C18 6355   5.102   2.440   9.422  0.4595 -0.0621  0.4773
   53CHL1  H18A 6356   5.015   2.397   9.366 -0.5412  0.0985  1.8926
   53CHL1  H18B 6357   5.197   2.397   9.384  0.1459 -1.4903  1.2512
   53CHL1  H18C 6358   5.081   2.399   9.523  0.0504  2.5280  1.4802
   53CHL1   C12 6359   5.222   2.652   9.504 -0.1101  0.2867  0.1967
   53CHL1  H12A 6360   5.320   2.618   9.464 -0.0893  0.6741 -0.0757
   53CHL1  H12B 6361   5.221   2.762   9.492  0.3673  0.3239  0.4687
   53CHL1   C11 6362   5.210   2.622   9.650 -0.0009  0.4579  0.7493
   53CHL1  H11A 6363   5.235   2.514   9.659 -0.6015 -0.0190 -2.8274
   53CHL1  H11B 6364   5.286   2.679   9.707 -0.0135  1.2837 -0.0455
   53CHL1    C9 6365   5.070   2.672   9.718 -0.5255 -1.1451  0.7783
   53CHL1    H9 6366   5.085   2.781   9.704  2.4414 -1.6349 -0.3015
   53CHL1   C10 6367   5.068   2.653   9.873 -0.0907  0.8495  0.1372
   53CHL1   C19 6368   5.118   2.503   9.905 -0.4965  0.2267 -0.3302
   53CHL1  H19A 6369   5.217   2.485   9.858  0.1224  2.2745  0.1659
   53CHL1  H19B 6370   5.130   2.486  10.014 -0.4406  0.7602 -0.2528
   53CHL1  H19C 6371   5.029   2.440   9.882 -0.3827  0.2506 -0.8388
   53CHL1    C1 6372   5.158   2.759   9.947 -0.2253  0.3967  0.6208
   53CHL1   H1A 6373   5.264   2.733   9.924 -0.8007 -1.5337  0.0859
   53CHL1   H1B 6374   5.135   2.865   9.922  1.9770  1.3145  2.2148
   53CHL1    C2 6375   5.146   2.752  10.101  0.2258  0.3333  0.4040
   53CHL1   H2A 6376   5.216   2.829  10.139 -1.7322  1.4910  1.7405
   53CHL1   H2B 6377   5.165   2.653  10.149 -2.3719 -0.7038 -0.6240
   53CHL1   C20 6378   5.158   2.580   9.162 -0.1363  0.1223  0.4002
   53CHL1   H20 6379   5.135   2.471   9.159  1.9180 -0.3681  1.0687
   53CHL1   C21 6380   5.306   2.589   9.173  0.4351 -0.4737 -0.2219
   53CHL1  H21A 6381   5.342   2.547   9.269  1.4565 -1.3415 -0.9601
   53CHL1  H21B 6382   5.346   2.692   9.165 -1.1113  0.2011  0.7102
   53CHL1  H21C 6383   5.349   2.530   9.089 -1.3813 -0.7310 -0.9879
   53CHL1   C22 6384   5.123   2.626   9.014 -0.3252 -0.9147 -0.6831
   53CHL1  H22A 6385   5.187   2.576   8.939  0.1171  0.2457 -1.0910
   53CHL1  H22B 6386   5.017   2.595   9.001 -0.7479 -1.2259  2.9507
   53CHL1   C23 6387   5.123   2.778   8.967  0.1640  0.8022 -0.1504
   53CHL1  H23A 6388   5.080   2.849   9.042  0.3289  0.2805  0.4403
   53CHL1  H23B 6389   5.229   2.808   8.954  0.1742  0.8935  0.1317
   53CHL1   C24 6390   5.051   2.808   8.829 -0.0189  0.0342 -0.4683
   53CHL1  H24A 6391   4.942   2.788   8.838  0.1982 -1.3556 -0.7973
   53CHL1  H24B 6392   5.058   2.916   8.803  1.8672 -0.0620 -0.4100
   53CHL1   C25 6393   5.099   2.726   8.708 -0.1486  0.0114 -0.2780
   53CHL1   H25 6394   5.084   2.618   8.730  0.2554 -0.1663 -0.8682
   53CHL1   C26 6395   5.009   2.735   8.578 -0.0242 -0.2662 -0.6344
   53CHL1  H26A 6396   4.908   2.693   8.598  0.2536 -1.2567 -1.2600
   53CHL1  H26B 6397   4.998   2.841   8.546  0.3787 -0.5458 -1.7075
   53CHL1  H26C 6398   5.044   2.666   8.498  0.8614  1.9354 -2.1973
   53CHL1   C27 6399   5.242   2.756   8.666 -0.2445  0.1984  0.4088
   53CHL1  H27A 6400   5.321   2.749   8.744  0.2743 -0.0257 -0.1280
   53CHL1  H27B 6401   5.259   2.688   8.580 -0.1059  2.5071 -1.4366
   53CHL1  H27C 6402   5.253   2.859   8.626 -1.6787  0.1193 -0.2126
   54CHL1    C3 6403   4.880   3.818  10.234 -0.0151  0.3773 -0.0771
   54CHL1    H3 6404   4.825   3.893  10.173 -0.9190  0.7618  1.2010
   54CHL1    O3 6405   4.830   3.829  10.364  0.0339  0.1381 -0.3001
   54CHL1   H3' 6406   4.883   3.773  10.420 -0.9871 -0.5195  0.0295
   54CHL1    C4 6407   4.860   3.675  10.173  0.4006 -0.2063  0.9815
   54CHL1   H4A 6408   4.918   3.602  10.234 -0.2245 -0.3328  1.4324
   54CHL1   H4B 6409   4.753   3.646  10.180 -0.0781  1.5435  1.1138
   54CHL1    C5 6410   4.907   3.674  10.027 -0.5335 -0.5292 -1.0587
   54CHL1    C6 6411   4.825   3.635   9.925  0.0535  0.7817  0.6096
   54CHL1    H6 6412   4.720   3.617   9.953 -0.1890  2.6920  1.0619
   54CHL1    C7 6413   4.865   3.632   9.785 -1.1761 -0.0472  0.1034
   54CHL1   H7A 6414   4.819   3.550   9.726 -1.4288 -1.2388  1.9225
   54CHL1   H7B 6415   4.825   3.724   9.737  0.4222 -0.4500 -2.0676
   54CHL1    C8 6416   5.016   3.646   9.767 -0.3958 -0.5113 -0.4622
   54CHL1    H8 6417   5.056   3.547   9.798  0.5395  0.2179  0.7090
   54CHL1   C14 6418   5.048   3.676   9.623  0.1344 -0.5056  0.0151
   54CHL1   H14 6419   4.991   3.770   9.605  0.7953 -0.2234 -0.6068
   54CHL1   C15 6420   4.989   3.571   9.528  0.0048  0.0370 -0.0203
   54CHL1  H15A 6421   5.012   3.467   9.558 -0.5758  0.5551  2.3704
   54CHL1  H15B 6422   4.884   3.564   9.493  0.3118  0.5715 -1.0776
   54CHL1   C16 6423   5.077   3.596   9.404 -0.3387  0.2568  0.1087
   54CHL1  H16A 6424   5.128   3.509   9.356 -0.0133  1.2733 -1.4341
   54CHL1  H16B 6425   5.024   3.646   9.320  1.2048  0.4682 -0.7633
   54CHL1   C17 6426   5.189   3.699   9.437 -0.4186 -0.3657 -0.1020
   54CHL1   H17 6427   5.144   3.797   9.410 -0.5124 -1.0227 -2.4603
   54CHL1   C13 6428   5.194   3.690   9.584 -0.1118  0.9002 -0.4650
   54CHL1   C18 6429   5.272   3.556   9.626  0.0353 -0.2047 -0.1509
   54CHL1  H18A 6430   5.254   3.474   9.554 -4.2041  0.1751  0.3436
   54CHL1  H18B 6431   5.382   3.575   9.626  0.4079 -2.2558 -0.5283
   54CHL1  H18C 6432   5.239   3.513   9.723 -0.0860  1.9450  0.8024
   54CHL1   C12 6433   5.253   3.810   9.662 -0.0401  0.2904 -0.2089
   54CHL1  H12A 6434   5.360   3.831   9.640 -0.7000  2.2046 -1.7516
   54CHL1  H12B 6435   5.196   3.903   9.639  0.9054  0.3988 -2.2493
   54CHL1   C11 6436   5.232   3.777   9.818 -0.0902 -0.2169  0.0418
   54CHL1  H11A 6437   5.296   3.696   9.859  0.6127  0.7523  0.8729
   54CHL1  H11B 6438   5.267   3.870   9.869 -0.8021  0.0193  0.1070
   54CHL1    C9 6439   5.078   3.753   9.854 -0.3804  0.7054  0.0343
   54CHL1    H9 6440   5.030   3.852   9.839 -0.9892  0.1048 -2.0995
   54CHL1   C10 6441   5.050   3.727  10.010 -0.1009  0.4042 -0.2549
   54CHL1   C19 6442   5.148   3.620  10.060 -0.2269  0.3597  0.6006
   54CHL1  H19A 6443   5.148   3.522  10.006  0.6913  0.9319 -0.4606
   54CHL1  H19B 6444   5.254   3.652  10.055 -0.2094  0.6992  2.9338
   54CHL1  H19C 6445   5.131   3.587  10.164 -2.2234 -0.4136  0.0457
   54CHL1    C1 6446   5.085   3.863  10.085 -0.0731 -0.1853  0.0420
   54CHL1   H1A 6447   5.195   3.874  10.092 -0.1468 -0.9696  3.0129
   54CHL1   H1B 6448   5.038   3.948  10.030 -3.3103 -2.1817 -0.4403
   54CHL1    C2 6449   5.026   3.868  10.222 -0.0306  0.0436  0.2275
   54CHL1   H2A 6450   5.023   3.966  10.275  1.8368  0.8398 -1.1153
   54CHL1   H2B 6451   5.091   3.807  10.289  1.3703  0.7428 -0.4968
   54CHL1   C20 6452   5.310   3.683   9.342  0.7600  0.3905  0.1814
   54CHL1   H20 6453   5.353   3.581   9.350  1.3909  0.8215  2.9254
   54CHL1   C21 6454   5.415   3.786   9.372  0.2131 -0.6359 -0.3554
   54CHL1  H21A 6455   5.488   3.807   9.291 -0.5188  0.0239 -0.8387
   54CHL1  H21B 6456   5.473   3.754   9.462  0.7776  0.2826 -0.3799
   54CHL1  H21C 6457   5.370   3.883   9.404 -1.2082 -2.1122  2.3308
   54CHL1   C22 6458   5.269   3.708   9.194 -0.2117  0.8125 -0.4463
   54CHL1  H22A 6459   5.188   3.635   9.175  0.6074  0.2545 -1.9066
   54CHL1  H22B 6460   5.221   3.805   9.167 -0.0327  0.8100 -0.7799
   54CHL1   C23 6461   5.383   3.668   9.094 -0.4167  0.0124  0.1780
   54CHL1  H23A 6462   5.481   3.690   9.142 -0.1909 -0.5675 -0.0192
   54CHL1  H23B 6463   5.369   3.559   9.080  2.4577 -0.6475  1.9150
   54CHL1   C24 6464   5.362   3.727   8.944 -0.6367 -0.2967 -0.7892
   54CHL1  H24A 6465   5.267   3.682   8.908 -0.6607 -1.2132  0.3980
   54CHL1  H24B 6466   5.359   3.838   8.952 -0.5013 -0.3325 -0.2320
   54CHL1   C25 6467   5.473   3.684   8.850  0.4594 -0.5532  0.0299
   54CHL1   H25 6468   5.460   3.741   8.756 -1.3441  1.4701  1.4691
   54CHL1   C26 6469   5.615   3.713   8.897 -0.3720  0.2270  0.0465
   54CHL1  H26A 6470   5.628   3.808   8.953  1.6113 -1.2467  2.1797
   54CHL1  H26B 6471   5.662   3.639   8.966 -1.6047 -0.7591 -0.1494
   54CHL1  H26C 6472   5.679   3.727   8.807  2.0477  1.6563  1.9636
   54CHL1   C27 6473   5.470   3.533   8.819 -0.3120 -0.2218  0.4653
   54CHL1  H27A 6474   5.555   3.502   8.753 -1.6681  0.8708 -1.8771
   54CHL1  H27B 6475   5.473   3.468   8.909 -0.1674  0.2713  0.8169
   54CHL1  H27C 6476   5.378   3.509   8.761  0.5707  0.1290 -1.1194
   55CHL1    C3 6477   5.245   1.374  10.221  0.6036  0.0315  0.1723
   55CHL1    H3 6478   5.227   1.265  10.235  0.3678  0.0796  0.2445
   55CHL1    O3 6479   5.219   1.446  10.335 -0.1420  0.5808 -0.6496
   55CHL1   H3' 6480   5.252   1.534  10.317  0.2791  0.1986 -1.7764
   55CHL1    C4 6481   5.388   1.403  10.168 -0.2354 -0.0200  0.9730
   55CHL1   H4A 6482   5.403   1.513  10.175  2.5242 -0.0839 -2.5577
   55CHL1   H4B 6483   5.457   1.348  10.235 -0.1549 -1.1850 -0.0458
   55CHL1    C5 6484   5.418   1.368  10.019 -0.5970  0.6641  0.6437
   55CHL1    C6 6485   5.536   1.315   9.985 -0.0817  0.0346  0.4927
   55CHL1    H6 6486   5.608   1.289  10.064  1.0523 -0.5707 -0.7206
   55CHL1    C7 6487   5.564   1.279   9.847 -0.1970  0.0378  0.3364
   55CHL1   H7A 6488   5.668   1.317   9.832  0.4053 -1.1561  1.3613
   55CHL1   H7B 6489   5.558   1.169   9.835  3.5057 -0.2473  0.5920
   55CHL1    C8 6490   5.475   1.356   9.742 -0.3331 -0.0472 -0.1407
   55CHL1    H8 6491   5.499   1.465   9.740 -0.5341 -0.0133 -0.7559
   55CHL1   C14 6492   5.503   1.307   9.601  0.7357 -0.2650  0.0653
   55CHL1   H14 6493   5.479   1.198   9.601  1.0259 -0.3286  0.3402
   55CHL1   C15 6494   5.650   1.328   9.552  0.5108  0.9123 -0.3519
   55CHL1  H15A 6495   5.682   1.429   9.584  3.4195 -1.1340  3.4607
   55CHL1  H15B 6496   5.707   1.251   9.607  1.1971  0.9006 -1.0669
   55CHL1   C16 6497   5.637   1.311   9.409 -0.1836  0.4797 -0.6861
   55CHL1  H16A 6498   5.698   1.393   9.365  1.6318  0.4448  1.6740
   55CHL1  H16B 6499   5.677   1.217   9.364 -1.5199 -0.2720 -0.3131
   55CHL1   C17 6500   5.492   1.326   9.367  0.9809  0.2838  0.1288
   55CHL1   H17 6501   5.453   1.223   9.353  0.1799  0.7634 -1.3154
   55CHL1   C13 6502   5.422   1.381   9.492  0.6489 -0.2359 -0.6501
   55CHL1   C18 6503   5.426   1.540   9.495 -0.3248 -0.0659 -0.3669
   55CHL1  H18A 6504   5.531   1.577   9.495 -0.5642  0.6140  0.0431
   55CHL1  H18B 6505   5.387   1.587   9.402 -1.6148 -0.1532  0.1322
   55CHL1  H18C 6506   5.375   1.591   9.579  0.1505  1.8134 -1.2018
   55CHL1   C12 6507   5.276   1.331   9.516 -0.3598  0.0788  0.7940
   55CHL1  H12A 6508   5.197   1.368   9.447 -2.1805 -1.3080  2.0765
   55CHL1  H12B 6509   5.276   1.220   9.502 -0.5620  0.2921 -0.9691
   55CHL1   C11 6510   5.233   1.360   9.658  0.1628 -0.0741  0.7105
   55CHL1  H11A 6511   5.200   1.467   9.661 -0.5874 -0.2256 -1.0973
   55CHL1  H11B 6512   5.137   1.304   9.661  1.2262 -2.1308 -1.4991
   55CHL1    C9 6513   5.329   1.331   9.779 -0.1347 -0.4485 -0.8457
   55CHL1    H9 6514   5.322   1.221   9.797 -0.1774  0.1025  2.8779
   55CHL1   C10 6515   5.310   1.396   9.918 -0.3161 -0.4826  0.4876
   55CHL1   C19 6516   5.305   1.556   9.900  0.0747  0.0172  0.0410
   55CHL1  H19A 6517   5.285   1.608   9.997  0.2268  0.1598 -0.0037
   55CHL1  H19B 6518   5.391   1.598   9.845 -0.4459  1.0490 -0.0068
   55CHL1  H19C 6519   5.213   1.583   9.844 -0.1675  1.1910  0.9688
   55CHL1    C1 6520   5.173   1.359   9.978  0.3955  0.3864  0.4219
   55CHL1   H1A 6521   5.095   1.388   9.904  0.8533 -0.5862 -0.4644
   55CHL1   H1B 6522   5.172   1.249   9.968 -0.5603  0.5012 -0.9222
   55CHL1    C2 6523   5.137   1.413  10.120 -0.0211 -0.0930  0.9672
   55CHL1   H2A 6524   5.034   1.380  10.146  0.6072 -4.1692 -1.3570
   55CHL1   H2B 6525   5.131   1.523  10.106 -0.7052 -0.3234 -0.7393
   55CHL1   C20 6526   5.457   1.396   9.233  0.4043  0.2550 -0.0382
   55CHL1   H20 6527   5.498   1.499   9.242  2.2707 -0.4644 -0.3063
   55CHL1   C21 6528   5.302   1.399   9.204  0.3418 -0.2311  0.2409
   55CHL1  H21A 6529   5.247   1.456   9.281  0.7173  2.4555 -1.4371
   55CHL1  H21B 6530   5.270   1.294   9.221  0.2837 -0.5061 -1.5004
   55CHL1  H21C 6531   5.282   1.436   9.101  1.5440  0.1978  0.1586
   55CHL1   C22 6532   5.533   1.330   9.115  0.4547  0.3059 -0.1117
   55CHL1  H22A 6533   5.640   1.303   9.127  0.7270  1.0885 -0.7032
   55CHL1  H22B 6534   5.471   1.241   9.089 -0.5370  0.2656  2.3073
   55CHL1   C23 6535   5.538   1.422   8.984  0.1191  0.3501 -0.0496
   55CHL1  H23A 6536   5.566   1.362   8.895 -0.4410  0.6589 -0.4345
   55CHL1  H23B 6537   5.433   1.450   8.963  0.4146  0.8428 -0.9211
   55CHL1   C24 6538   5.641   1.538   8.985  0.4250  0.4567  0.3104
   55CHL1  H24A 6539   5.646   1.599   8.892  0.0359 -3.0017 -2.0511
   55CHL1  H24B 6540   5.609   1.611   9.063 -0.0065 -0.1775  0.7288
   55CHL1   C25 6541   5.793   1.498   8.997 -0.1101 -0.0293 -0.7481
   55CHL1   H25 6542   5.799   1.441   9.092 -0.2510 -0.4539 -0.9942
   55CHL1   C26 6543   5.847   1.400   8.884  0.5061  0.3704  0.5074
   55CHL1  H26A 6544   5.951   1.376   8.914 -0.5129 -3.8085  1.0915
   55CHL1  H26B 6545   5.806   1.297   8.880  1.3287  0.0618 -0.2348
   55CHL1  H26C 6546   5.841   1.452   8.786 -0.0119 -0.2512  0.1979
   55CHL1   C27 6547   5.872   1.633   9.009  0.1214 -0.4873  0.4535
   55CHL1  H27A 6548   5.815   1.698   9.079 -0.0829  0.2730 -0.4159
   55CHL1  H27B 6549   5.978   1.622   9.038 -0.6524 -1.3115  3.1971
   55CHL1  H27C 6550   5.856   1.685   8.913  1.6475  0.8776  0.9232
   56CHL1    C3 6551   3.544   6.445   9.899 -0.5462  0.0527  0.5479
   56CHL1    H3 6552   3.541   6.547   9.854 -2.1589 -0.6326 -0.9313
   56CHL1    O3 6553   3.541   6.449  10.041 -0.4395 -0.1482  0.1768
   56CHL1   H3' 6554   3.481   6.379  10.069  0.3357 -1.0360 -0.3716
   56CHL1    C4 6555   3.420   6.370   9.850 -0.2997 -0.0024 -0.0933
   56CHL1   H4A 6556   3.415   6.274   9.907  1.7068 -0.1659 -0.1631
   56CHL1   H4B 6557   3.330   6.430   9.875 -0.9528 -0.8526 -0.3813
   56CHL1    C5 6558   3.424   6.342   9.705  0.6575 -0.3729  0.0345
   56CHL1    C6 6559   3.317   6.368   9.628 -0.0711  0.8125  0.2213
   56CHL1    H6 6560   3.224   6.404   9.674  1.2231 -0.4314  4.0121
   56CHL1    C7 6561   3.299   6.353   9.483  0.5376 -0.5833  0.1208
   56CHL1   H7A 6562   3.202   6.309   9.453  0.6137 -0.5563 -0.1698
   56CHL1   H7B 6563   3.318   6.450   9.431  0.6850 -0.0854  1.0917
   56CHL1    C8 6564   3.406   6.264   9.420  0.2301 -0.9477 -0.6374
   56CHL1    H8 6565   3.377   6.161   9.448  1.6181 -1.2595 -0.3094
   56CHL1   C14 6566   3.415   6.288   9.262  0.0887  0.1468 -0.3133
   56CHL1   H14 6567   3.450   6.393   9.256 -0.8096  0.5627  1.4178
   56CHL1   C15 6568   3.282   6.272   9.176 -0.0766 -0.4978 -0.3301
   56CHL1  H15A 6569   3.227   6.178   9.198 -1.1397  0.0981 -0.4310
   56CHL1  H15B 6570   3.209   6.356   9.180 -3.2745 -3.1983  0.1616
   56CHL1   C16 6571   3.334   6.275   9.033 -0.8074 -0.0358 -1.0659
   56CHL1  H16A 6572   3.293   6.180   8.992 -1.7251  0.0476 -0.3429
   56CHL1  H16B 6573   3.319   6.364   8.968  0.0316 -0.0041 -1.2294
   56CHL1   C17 6574   3.490   6.261   9.048  0.3332  0.2443 -0.5362
   56CHL1   H17 6575   3.525   6.366   9.052 -0.9101  0.6657 -0.6630
   56CHL1   C13 6576   3.520   6.202   9.188  0.6827  0.3146  0.6911
   56CHL1   C18 6577   3.491   6.051   9.208 -0.1338  0.6958  0.4153
   56CHL1  H18A 6578   3.569   5.993   9.155 -0.0124  1.9804 -0.8260
   56CHL1  H18B 6579   3.489   6.028   9.317  2.0828 -0.9523  0.1362
   56CHL1  H18C 6580   3.393   6.034   9.160 -0.0354  1.9445 -0.2689
   56CHL1   C12 6581   3.657   6.235   9.253  0.1394 -0.0033 -0.2998
   56CHL1  H12A 6582   3.745   6.189   9.204 -0.5287  1.7459 -3.2623
   56CHL1  H12B 6583   3.676   6.343   9.234  2.0301 -0.2693 -0.0415
   56CHL1   C11 6584   3.658   6.213   9.408  0.6932  0.3952  0.1321
   56CHL1  H11A 6585   3.659   6.108   9.443  0.1787  0.4222  0.2330
   56CHL1  H11B 6586   3.757   6.242   9.451  0.5896 -1.1550  1.4445
   56CHL1    C9 6587   3.548   6.294   9.488 -0.4295 -0.2747  0.0465
   56CHL1    H9 6588   3.569   6.401   9.464  2.2482 -0.6650  0.4751
   56CHL1   C10 6589   3.551   6.284   9.641 -0.1448  0.0954 -0.0803
   56CHL1   C19 6590   3.554   6.132   9.678  0.5679 -0.5097  0.6515
   56CHL1  H19A 6591   3.464   6.075   9.648  0.5697 -1.2835  2.0954
   56CHL1  H19B 6592   3.644   6.080   9.637  0.3083 -0.5968  0.1853
   56CHL1  H19C 6593   3.559   6.120   9.788 -0.7261 -3.9349  0.3781
   56CHL1    C1 6594   3.674   6.355   9.697 -0.0505 -0.8556 -0.0909
   56CHL1   H1A 6595   3.774   6.322   9.660  0.2421  1.2971 -1.3180
   56CHL1   H1B 6596   3.655   6.456   9.655 -0.0560 -0.2782  1.2742
   56CHL1    C2 6597   3.680   6.387   9.849 -0.2108 -0.0759  0.0104
   56CHL1   H2A 6598   3.767   6.449   9.880  0.1170 -2.3122  3.8561
   56CHL1   H2B 6599   3.672   6.290   9.902  0.3771 -0.6694 -0.9772
   56CHL1   C20 6600   3.567   6.194   8.931 -0.8550  0.2275 -0.0855
   56CHL1   H20 6601   3.582   6.087   8.956 -0.0264  0.2930 -0.2663
   56CHL1   C21 6602   3.707   6.251   8.906 -0.0159  0.0814  0.1560
   56CHL1  H21A 6603   3.725   6.347   8.854  0.5034 -0.8743 -1.4971
   56CHL1  H21B 6604   3.776   6.176   8.860 -0.4342 -0.3981  0.3051
   56CHL1  H21C 6605   3.759   6.263   9.004  0.1244 -1.5640  0.2996
   56CHL1   C22 6606   3.489   6.198   8.793  0.1173  0.5672  0.1819
   56CHL1  H22A 6607   3.391   6.150   8.815 -0.3810  1.1337 -0.7381
   56CHL1  H22B 6608   3.460   6.302   8.766 -3.3035 -0.5973 -0.9439
   56CHL1   C23 6609   3.552   6.115   8.680  0.4809 -0.6529 -0.3069
   56CHL1  H23A 6610   3.662   6.117   8.667  0.2120  3.9621 -2.6080
   56CHL1  H23B 6611   3.529   6.008   8.702 -2.6142 -0.2520 -1.3629
   56CHL1   C24 6612   3.493   6.140   8.546  0.3329  0.3641 -0.0884
   56CHL1  H24A 6613   3.535   6.063   8.478 -3.4391 -2.0195  0.1028
   56CHL1  H24B 6614   3.384   6.118   8.559  0.3949  0.0246 -0.1294
   56CHL1   C25 6615   3.514   6.276   8.481  0.3139  0.2638 -0.2322
   56CHL1   H25 6616   3.470   6.357   8.543 -1.3613 -0.9753  0.2321
   56CHL1   C26 6617   3.670   6.305   8.474 -0.0558  0.7848  0.1803
   56CHL1  H26A 6618   3.725   6.293   8.570 -0.4403 -1.5889  0.1330
   56CHL1  H26B 6619   3.716   6.230   8.406 -0.1964  0.3238  0.5908
   56CHL1  H26C 6620   3.691   6.409   8.442  0.5637  0.2622 -1.1544
   56CHL1   C27 6621   3.441   6.295   8.352  0.5513 -0.2530  0.0227
   56CHL1  H27A 6622   3.491   6.242   8.268 -0.5436  0.4451 -1.0812
   56CHL1  H27B 6623   3.336   6.261   8.359  0.4118  0.1809  0.0094
   56CHL1  H27C 6624   3.439   6.400   8.318  0.0000 -0.7420 -1.4860
   57CHL1    C3 6625   5.917   2.053  10.317 -0.4047  0.2264  0.0913
   57CHL1    H3 6626   5.915   1.945  10.294 -1.6737  0.5080 -1.1945
   57CHL1    O3 6627   5.905   2.073  10.455  0.3508  0.8089 -0.1062
   57CHL1   H3' 6628   5.995   2.082  10.485  0.8320 -0.4053 -1.1727
   57CHL1    C4 6629   6.048   2.121  10.267 -0.3364  0.7864  0.1153
   57CHL1   H4A 6630   6.043   2.229  10.293 -0.4941  0.6785  0.5343
   57CHL1   H4B 6631   6.140   2.088  10.320  0.6623  0.7015 -1.6385
   57CHL1    C5 6632   6.070   2.112  10.119 -0.0799 -0.0989 -0.4365
   57CHL1    C6 6633   6.185   2.050  10.076 -0.7459  0.6548 -0.2045
   57CHL1    H6 6634   6.260   2.015  10.149 -2.6382  0.5610  1.7726
   57CHL1    C7 6635   6.208   2.034   9.927 -0.8403  0.2751 -0.3649
   57CHL1   H7A 6636   6.315   2.050   9.904 -0.1689 -1.5065  1.3449
   57CHL1   H7B 6637   6.190   1.929   9.896 -0.4476  0.3553 -0.8596
   57CHL1    C8 6638   6.126   2.128   9.834 -0.6290 -0.1267  0.3783
   57CHL1    H8 6639   6.170   2.228   9.849 -1.6325  0.4684 -0.5452
   57CHL1   C14 6640   6.141   2.089   9.686 -0.5258  0.6643  0.4935
   57CHL1   H14 6641   6.088   1.991   9.689  0.6850 -0.0199 -0.2742
   57CHL1   C15 6642   6.284   2.072   9.625  0.1821  0.2186  0.6684
   57CHL1  H15A 6643   6.340   2.159   9.664  0.0017  0.1824  1.0105
   57CHL1  H15B 6644   6.330   1.976   9.658 -0.3325  0.2651  1.5322
   57CHL1   C16 6645   6.253   2.080   9.470 -0.3154  0.5173 -0.1395
   57CHL1  H16A 6646   6.319   2.153   9.418  0.0303  3.5554  4.2200
   57CHL1  H16B 6647   6.276   1.983   9.423 -1.8442 -0.4531  1.0788
   57CHL1   C17 6648   6.098   2.097   9.460 -0.2893  0.2203 -0.3759
   57CHL1   H17 6649   6.050   1.998   9.476 -0.7038  0.4294 -0.3242
   57CHL1   C13 6650   6.059   2.169   9.586 -0.3478 -0.5713  0.4931
   57CHL1   C18 6651   6.106   2.315   9.581 -0.2189 -0.3666  0.2155
   57CHL1  H18A 6652   6.133   2.363   9.677  0.5311  1.8410 -1.0686
   57CHL1  H18B 6653   6.200   2.321   9.523  0.0031 -0.6346  0.5455
   57CHL1  H18C 6654   6.042   2.385   9.523 -0.4025  1.3791  2.4554
   57CHL1   C12 6655   5.905   2.155   9.626  0.2049  0.5538  0.0029
   57CHL1  H12A 6656   5.838   2.220   9.565 -1.9904 -0.6871  1.0645
   57CHL1  H12B 6657   5.870   2.051   9.609 -0.6131  0.7002  0.8033
   57CHL1   C11 6658   5.879   2.198   9.775 -0.0910 -0.4108 -0.1085
   57CHL1  H11A 6659   5.891   2.309   9.781 -1.9235 -0.3656  4.2616
   57CHL1  H11B 6660   5.774   2.168   9.795  0.0131 -1.3696 -0.9503
   57CHL1    C9 6661   5.976   2.125   9.883  0.3692 -0.0761  0.5257
   57CHL1    H9 6662   5.950   2.018   9.873  0.2497  0.1090 -1.4377
   57CHL1   C10 6663   5.952   2.154  10.031  0.1013 -0.0315 -0.4149
   57CHL1   C19 6664   5.933   2.305  10.051 -0.2526 -0.5945  0.7367
   57CHL1  H19A 6665   5.836   2.332  10.004 -0.9248  1.2920  3.1403
   57CHL1  H19B 6666   5.926   2.346  10.154  0.9862 -1.8197  1.3236
   57CHL1  H19C 6667   6.020   2.356  10.004 -0.1416  0.6528  2.2823
   57CHL1    C1 6668   5.824   2.082  10.084  0.3309  0.5587  0.3165
   57CHL1   H1A 6669   5.731   2.123  10.038 -0.0801 -0.4320  0.2479
   57CHL1   H1B 6670   5.821   1.973  10.064 -2.0649  0.7046 -0.3373
   57CHL1    C2 6671   5.798   2.107  10.231 -0.3378 -0.6042 -0.5644
   57CHL1   H2A 6672   5.705   2.053  10.260 -0.7837  0.6894  0.4750
   57CHL1   H2B 6673   5.778   2.214  10.255  0.9153 -0.7931  1.4328
   57CHL1   C20 6674   6.044   2.167   9.327 -0.2331  0.4657 -0.2302
   57CHL1   H20 6675   5.955   2.230   9.349 -1.1171 -0.2785 -1.7066
   57CHL1   C21 6676   5.990   2.052   9.238  0.1683 -0.4902  0.1683
   57CHL1  H21A 6677   5.921   1.985   9.293  1.0833 -1.6232 -0.0305
   57CHL1  H21B 6678   6.072   1.990   9.194 -0.5603  0.0258 -1.9613
   57CHL1  H21C 6679   5.935   2.104   9.157  0.9049  0.7739  0.4719
   57CHL1   C22 6680   6.145   2.251   9.260  0.5858 -0.2006 -0.8423
   57CHL1  H22A 6681   6.202   2.322   9.324  0.7198 -1.4109  0.3940
   57CHL1  H22B 6682   6.214   2.175   9.216  0.7720 -0.4543 -0.1162
   57CHL1   C23 6683   6.092   2.335   9.137 -0.2069  0.0734  0.1077
   57CHL1  H23A 6684   6.050   2.268   9.059 -2.5796  1.1595  0.3989
   57CHL1  H23B 6685   6.020   2.407   9.182  0.4814  0.6310  0.3255
   57CHL1   C24 6686   6.212   2.410   9.076  0.6213 -0.2958  0.0911
   57CHL1  H24A 6687   6.251   2.490   9.142  0.8485  0.1332 -0.5571
   57CHL1  H24B 6688   6.295   2.338   9.059 -0.7141 -1.6720 -0.7326
   57CHL1   C25 6689   6.171   2.477   8.942 -0.0202 -0.3422 -0.8917
   57CHL1   H25 6690   6.102   2.413   8.882 -2.4498  1.6662 -0.3155
   57CHL1   C26 6691   6.093   2.605   8.977  0.4827  0.7680 -0.0803
   57CHL1  H26A 6692   6.034   2.642   8.890  0.0286 -1.1599 -0.6128
   57CHL1  H26B 6693   6.032   2.590   9.068  0.5824 -2.3395 -0.4764
   57CHL1  H26C 6694   6.172   2.681   8.997 -1.3919  3.5650 -2.7427
   57CHL1   C27 6695   6.289   2.513   8.861  0.2873 -0.0137  0.3501
   57CHL1  H27A 6696   6.263   2.562   8.765  2.5419 -0.2912 -0.4264
   57CHL1  H27B 6697   6.360   2.579   8.915  1.2944 -1.5251  0.9121
   57CHL1  H27C 6698   6.347   2.423   8.831  1.4244  0.6810  0.4405
   58CHL1    C3 6699   2.016   0.851  10.225  0.1240  1.1179 -0.5252
   58CHL1    H3 6700   1.913   0.891  10.222  1.4707  4.8841  0.3488
   58CHL1    O3 6701   2.073   0.833  10.350  0.1818  0.3248  0.0216
   58CHL1   H3' 6702   2.000   0.797  10.402 -0.9993  0.9424 -1.1847
   58CHL1    C4 6703   2.011   0.708  10.161  0.4583 -0.0085  0.2362
   58CHL1   H4A 6704   2.112   0.665  10.174  0.1480  0.0888  3.4262
   58CHL1   H4B 6705   1.943   0.655  10.231 -0.8390  1.8762  0.4464
   58CHL1    C5 6706   1.965   0.719  10.021 -0.2553 -0.7520 -0.0693
   58CHL1    C6 6707   1.852   0.661   9.976  0.5021  0.0468  0.5419
   58CHL1    H6 6708   1.789   0.600  10.042  1.3414 -0.1648  1.1433
   58CHL1    C7 6709   1.794   0.663   9.839  0.0973 -0.5984 -0.5150
   58CHL1   H7A 6710   1.751   0.562   9.820 -0.1249 -0.4837 -0.6247
   58CHL1   H7B 6711   1.706   0.732   9.843 -1.3947 -2.4389 -1.0432
   58CHL1    C8 6712   1.902   0.706   9.737  0.1026 -0.1706  0.8973
   58CHL1    H8 6713   1.968   0.616   9.731  1.7373  1.1082 -1.1421
   58CHL1   C14 6714   1.849   0.726   9.600 -0.2474 -0.0305 -0.1397
   58CHL1   H14 6715   1.766   0.798   9.612  0.7641  1.4711 -2.0677
   58CHL1   C15 6716   1.770   0.618   9.531  0.3314 -0.5966 -0.6555
   58CHL1  H15A 6717   1.837   0.530   9.540  0.3508 -0.5590 -0.4107
   58CHL1  H15B 6718   1.670   0.583   9.566  0.7176 -1.4414 -0.4048
   58CHL1   C16 6719   1.778   0.651   9.386 -0.3596  0.8218 -0.2384
   58CHL1  H16A 6720   1.796   0.569   9.313 -2.0646 -1.5485  1.9198
   58CHL1  H16B 6721   1.678   0.682   9.348  0.6891  2.5039 -1.7399
   58CHL1   C17 6722   1.881   0.764   9.365 -0.3793 -0.3178 -0.4905
   58CHL1   H17 6723   1.818   0.856   9.362  1.5711  1.0537 -0.0756
   58CHL1   C13 6724   1.956   0.772   9.501 -0.1345  0.5993  0.4866
   58CHL1   C18 6725   2.067   0.663   9.489  0.0706  0.0224  0.3142
   58CHL1  H18A 6726   2.142   0.693   9.413  1.8309 -2.0794  1.2014
   58CHL1  H18B 6727   2.114   0.655   9.589  2.8419  1.0406 -0.8778
   58CHL1  H18C 6728   2.031   0.567   9.449  0.8574  0.3073 -1.0863
   58CHL1   C12 6729   2.002   0.913   9.546  1.3199  0.2930 -0.1692
   58CHL1  H12A 6730   2.072   0.933   9.462  2.1919  0.3453  0.5614
   58CHL1  H12B 6731   1.912   0.977   9.545  0.6318 -0.6738 -2.1062
   58CHL1   C11 6732   2.072   0.895   9.679 -0.5186 -0.9325  0.2621
   58CHL1  H11A 6733   2.163   0.833   9.663 -0.8656 -1.4715  0.3567
   58CHL1  H11B 6734   2.105   0.996   9.713 -0.5483 -1.6052  2.3484
   58CHL1    C9 6735   1.978   0.828   9.785 -0.4610 -0.0912  0.2307
   58CHL1    H9 6736   1.897   0.903   9.800 -0.3600 -0.0595  0.6472
   58CHL1   C10 6737   2.050   0.816   9.925 -0.7359  0.8752 -0.0799
   58CHL1   C19 6738   2.181   0.745   9.907 -0.0398 -0.4460 -1.1844
   58CHL1  H19A 6739   2.246   0.796   9.833  1.5938 -1.7900 -0.7112
   58CHL1  H19B 6740   2.249   0.740   9.995 -0.6752 -0.3693 -0.6897
   58CHL1  H19C 6741   2.165   0.639   9.877 -0.6482 -0.6211 -0.2622
   58CHL1    C1 6742   2.056   0.952   9.999  0.2801  0.2953 -0.4643
   58CHL1   H1A 6743   2.126   1.023   9.950  0.5167 -0.2961 -0.9861
   58CHL1   H1B 6744   1.950   0.982   9.983 -0.4695 -2.2108 -0.3430
   58CHL1    C2 6745   2.100   0.949  10.145 -0.8961  0.2196 -0.5165
   58CHL1   H2A 6746   2.090   1.049  10.193 -1.0716 -1.1624  2.4367
   58CHL1   H2B 6747   2.207   0.919  10.144 -1.1036 -0.5685  0.0881
   58CHL1   C20 6748   1.951   0.760   9.229 -0.8666 -0.5873 -0.2333
   58CHL1   H20 6749   2.017   0.673   9.208  2.3824  2.4317 -3.2364
   58CHL1   C21 6750   2.041   0.891   9.205 -0.0813 -0.6363  0.3377
   58CHL1  H21A 6751   1.976   0.979   9.222  2.0449  1.3969 -1.7056
   58CHL1  H21B 6752   2.073   0.884   9.099  1.3896  3.5929  0.4154
   58CHL1  H21C 6753   2.126   0.896   9.277 -1.4783 -1.1665  2.0702
   58CHL1   C22 6754   1.849   0.762   9.109  0.1435 -0.0577  0.2679
   58CHL1  H22A 6755   1.753   0.715   9.139 -0.4294  1.0029  0.1441
   58CHL1  H22B 6756   1.818   0.863   9.075  1.1799  0.6457  1.3485
   58CHL1   C23 6757   1.908   0.674   8.994 -0.3504  0.2045  0.1369
   58CHL1  H23A 6758   2.018   0.691   8.986 -0.6405  2.0716 -0.1229
   58CHL1  H23B 6759   1.889   0.568   9.019 -1.8774 -0.1027 -2.1969
   58CHL1   C24 6760   1.849   0.720   8.860 -0.4332 -0.2487 -0.2173
   58CHL1  H24A 6761   1.739   0.724   8.878 -0.4665  0.0309 -0.4731
   58CHL1  H24B 6762   1.886   0.822   8.835 -0.2954  0.0146  1.0449
   58CHL1   C25 6763   1.888   0.631   8.735  0.5368  0.2233 -0.1959
   58CHL1   H25 6764   1.873   0.522   8.751 -0.7194  0.6947  2.1103
   58CHL1   C26 6765   1.811   0.662   8.605  0.1027  0.2287 -0.1583
   58CHL1  H26A 6766   1.803   0.771   8.585  0.5470  0.1904 -0.5403
   58CHL1  H26B 6767   1.857   0.607   8.520  0.5252 -0.7429  0.6902
   58CHL1  H26C 6768   1.708   0.621   8.617  0.0776  0.6100  0.9490
   58CHL1   C27 6769   2.037   0.651   8.702  0.6223  0.0280  0.5353
   58CHL1  H27A 6770   2.104   0.637   8.790  1.1710  0.7071  0.2278
   58CHL1  H27B 6771   2.064   0.585   8.616 -0.0174 -0.3393  0.6052
   58CHL1  H27C 6772   2.051   0.750   8.653 -0.4339 -0.6252 -1.1456
   59CHL1    C3 6773   1.026   6.568  10.352  0.1656  0.4312  0.4008
   59CHL1    H3 6774   0.996   6.461  10.344  1.4240 -0.0190  1.5712
   59CHL1    O3 6775   1.057   6.608  10.485  0.4360  0.5224  0.2397
   59CHL1   H3' 6776   1.092   6.697  10.488  2.4432 -0.2647  1.2032
   59CHL1    C4 6777   1.156   6.573  10.266  0.8679 -0.0268 -0.4345
   59CHL1   H4A 6778   1.195   6.677  10.267  0.1858  0.2341 -0.4838
   59CHL1   H4B 6779   1.226   6.506  10.320 -0.9261 -1.0227  0.7091
   59CHL1    C5 6780   1.133   6.543  10.119 -0.1034  0.5371  0.9695
   59CHL1    C6 6781   1.204   6.452  10.059  0.6822 -0.4534 -0.6284
   59CHL1    H6 6782   1.269   6.396  10.129 -1.0710 -2.8805 -0.8617
   59CHL1    C7 6783   1.194   6.400   9.920 -0.1288  0.1256  0.5271
   59CHL1   H7A 6784   1.293   6.410   9.872 -0.1182  2.2924  0.9533
   59CHL1   H7B 6785   1.177   6.290   9.924  2.7562 -0.4340 -1.2569
   59CHL1    C8 6786   1.097   6.493   9.838  0.3189 -0.5432  0.0643
   59CHL1    H8 6787   1.156   6.581   9.805 -2.1421  1.4270  0.7202
   59CHL1   C14 6788   1.056   6.422   9.707  0.4237 -0.7609 -0.9701
   59CHL1   H14 6789   0.979   6.346   9.733  0.2198 -0.1534  0.2466
   59CHL1   C15 6790   1.158   6.341   9.616  0.9910  0.2495 -0.1031
   59CHL1  H15A 6791   1.254   6.399   9.616  0.8266  0.5253 -0.3001
   59CHL1  H15B 6792   1.175   6.242   9.664  1.4104 -0.3057 -1.3670
   59CHL1   C16 6793   1.080   6.323   9.487 -0.1182 -0.7068  0.1651
   59CHL1  H16A 6794   1.141   6.354   9.400  1.6010  0.2569  1.6745
   59CHL1  H16B 6795   1.033   6.225   9.465 -1.4120  0.1710 -1.0903
   59CHL1   C17 6796   0.958   6.409   9.492 -0.3974  0.1245 -0.2624
   59CHL1   H17 6797   0.873   6.341   9.515  0.8280 -1.4334 -0.2473
   59CHL1   C13 6798   0.977   6.508   9.609 -0.2795  0.2057 -0.6119
   59CHL1   C18 6799   1.061   6.637   9.553  0.1647  0.0170  0.3287
   59CHL1  H18A 6800   1.113   6.686   9.639  0.2909 -0.4119  0.5008
   59CHL1  H18B 6801   1.139   6.595   9.486 -2.5719  0.1020 -3.0338
   59CHL1  H18C 6802   0.999   6.709   9.496 -1.4464 -0.4277  1.4587
   59CHL1   C12 6803   0.849   6.546   9.689  0.5343  0.1237  0.2791
   59CHL1  H12A 6804   0.785   6.612   9.626  0.4513 -1.3069 -1.1491
   59CHL1  H12B 6805   0.799   6.449   9.710  2.5394 -0.8248  0.7390
   59CHL1   C11 6806   0.878   6.614   9.821 -0.1554  0.2098 -0.0952
   59CHL1  H11A 6807   0.938   6.702   9.788 -1.5241  1.1839 -0.0443
   59CHL1  H11B 6808   0.787   6.652   9.871  0.4174  1.8751 -0.2594
   59CHL1    C9 6809   0.979   6.538   9.915  0.6208  0.7600 -0.3213
   59CHL1    H9 6810   0.923   6.449   9.950 -0.9351  1.4426 -1.0121
   59CHL1   C10 6811   1.019   6.621  10.042  0.6469  0.5285  0.2866
   59CHL1   C19 6812   1.073   6.752  10.011  0.5934 -0.0843  0.4979
   59CHL1  H19A 6813   1.090   6.811  10.104 -0.4544  0.5569  0.2928
   59CHL1  H19B 6814   1.159   6.740   9.942 -0.3530  4.2523 -1.6229
   59CHL1  H19C 6815   1.002   6.812   9.950  0.4905  0.5459  1.2321
   59CHL1    C1 6816   0.892   6.616  10.133 -0.3364 -0.2361 -0.3487
   59CHL1   H1A 6817   0.822   6.678  10.073  1.1245  0.9331 -0.8922
   59CHL1   H1B 6818   0.851   6.514  10.148  0.2740 -0.0936  2.4206
   59CHL1    C2 6819   0.919   6.656  10.282 -0.2334 -0.5003 -0.1356
   59CHL1   H2A 6820   0.823   6.650  10.338 -0.2551 -0.7337 -0.1999
   59CHL1   H2B 6821   0.946   6.763  10.294 -1.2125 -0.1764 -0.7975
   59CHL1   C20 6822   0.911   6.470   9.358  0.2394 -0.1998 -0.0285
   59CHL1   H20 6823   0.983   6.546   9.321  0.4768 -0.2582  0.3100
   59CHL1   C21 6824   0.778   6.545   9.381 -0.2097 -0.0831  0.1900
   59CHL1  H21A 6825   0.796   6.646   9.421 -1.2845  0.4839 -0.7075
   59CHL1  H21B 6826   0.707   6.490   9.446 -0.6646 -0.9284 -0.9940
   59CHL1  H21C 6827   0.725   6.560   9.284  0.5204 -1.0344 -0.3609
   59CHL1   C22 6828   0.882   6.350   9.255  0.1091  0.4248 -0.3888
   59CHL1  H22A 6829   0.969   6.280   9.252  0.4983  0.8172  1.2049
   59CHL1  H22B 6830   0.788   6.297   9.280  1.3643 -1.4292  0.5472
   59CHL1   C23 6831   0.871   6.397   9.111  0.6144  0.2516 -0.6205
   59CHL1  H23A 6832   0.785   6.466   9.096  0.2809 -0.3427 -1.4962
   59CHL1  H23B 6833   0.960   6.461   9.095  1.5194 -0.6413  0.6950
   59CHL1   C24 6834   0.866   6.285   9.009 -0.0258  0.3645 -0.7991
   59CHL1  H24A 6835   0.961   6.229   9.018  0.6508  1.6163  0.0897
   59CHL1  H24B 6836   0.778   6.225   9.043  2.2460 -2.0391  1.0059
   59CHL1   C25 6837   0.863   6.335   8.860 -0.1177  1.4300 -0.0950
   59CHL1   H25 6838   0.958   6.386   8.833  0.6858 -0.1462 -0.3032
   59CHL1   C26 6839   0.835   6.207   8.778  0.7937  0.1872  0.2008
   59CHL1  H26A 6840   0.887   6.120   8.823  1.2985 -0.7857 -2.2084
   59CHL1  H26B 6841   0.728   6.176   8.776  0.6571  0.6082  0.8603
   59CHL1  H26C 6842   0.858   6.220   8.670  0.0727  0.5188  0.0804
   59CHL1   C27 6843   0.753   6.440   8.819 -0.1207 -0.0626 -0.1663
   59CHL1  H27A 6844   0.752   6.454   8.708  4.5839 -1.7753 -0.5153
   59CHL1  H27B 6845   0.661   6.387   8.853  1.4941 -0.4191  3.8474
   59CHL1  H27C 6846   0.766   6.533   8.878  0.5489 -1.7799  2.4721
   60CHL1    C3 6847   1.566   5.482  10.172  1.0215  0.1865  0.2768
   60CHL1    H3 6848   1.630   5.407  10.122 -0.0535 -1.8965  1.9297
   60CHL1    O3 6849   1.603   5.503  10.308 -0.0384  0.1651  0.1041
   60CHL1   H3' 6850   1.573   5.590  10.335  0.6306  0.2073  0.7367
   60CHL1    C4 6851   1.564   5.611  10.093 -0.4320  0.1016  0.0313
   60CHL1   H4A 6852   1.509   5.700  10.130  1.5888  2.2822 -2.0290
   60CHL1   H4B 6853   1.670   5.642  10.092  0.5247 -2.9674  1.1484
   60CHL1    C5 6854   1.506   5.586   9.948  0.3642 -0.3662  0.0770
   60CHL1    C6 6855   1.576   5.623   9.843 -0.3083 -0.7773  0.7618
   60CHL1    H6 6856   1.670   5.680   9.855 -0.5926  0.1139 -1.1215
   60CHL1    C7 6857   1.524   5.612   9.701 -0.7237 -0.0479 -0.2868
   60CHL1   H7A 6858   1.556   5.701   9.642  0.0739 -1.6287 -2.2838
   60CHL1   H7B 6859   1.568   5.521   9.656 -0.6589 -0.7934  1.2681
   60CHL1    C8 6860   1.369   5.589   9.697 -0.0601  0.6489 -0.5181
   60CHL1    H8 6861   1.318   5.682   9.730  2.1732  1.2627  1.3375
   60CHL1   C14 6862   1.349   5.543   9.553  0.6722  0.2662  0.2439
   60CHL1   H14 6863   1.403   5.448   9.530  1.5803  1.1177 -1.2518
   60CHL1   C15 6864   1.386   5.641   9.447  1.2948 -0.0976  0.0802
   60CHL1  H15A 6865   1.367   5.748   9.472 -1.0882 -0.3261 -0.6698
   60CHL1  H15B 6866   1.495   5.626   9.432  1.3802 -4.3408  3.9532
   60CHL1   C16 6867   1.301   5.602   9.325 -0.4255  0.1872  0.3524
   60CHL1  H16A 6868   1.245   5.693   9.292  0.5117  1.6728  2.6931
   60CHL1  H16B 6869   1.372   5.579   9.244  0.5309 -0.0507  1.2430
   60CHL1   C17 6870   1.204   5.489   9.376 -0.4200 -0.1672  1.1282
   60CHL1   H17 6871   1.258   5.392   9.372 -1.6333 -0.7943 -1.1646
   60CHL1   C13 6872   1.202   5.512   9.530 -0.3696  0.3921 -0.2798
   60CHL1   C18 6873   1.112   5.630   9.556  0.7160 -0.0908 -0.0706
   60CHL1  H18A 6874   1.147   5.724   9.509  1.6540 -0.9343 -1.0814
   60CHL1  H18B 6875   1.008   5.622   9.519 -0.0704  2.2032  1.5584
   60CHL1  H18C 6876   1.104   5.662   9.662 -2.9771 -0.4472 -0.1882
   60CHL1   C12 6877   1.168   5.393   9.623 -0.3058  0.3040  0.1514
   60CHL1  H12A 6878   1.060   5.371   9.611 -0.0483 -1.8659  1.6839
   60CHL1  H12B 6879   1.236   5.313   9.586 -0.6719  0.4232 -0.8084
   60CHL1   C11 6880   1.191   5.427   9.766  0.3680  0.5654 -0.0239
   60CHL1  H11A 6881   1.107   5.480   9.814  0.4025  0.2808  0.3430
   60CHL1  H11B 6882   1.184   5.329   9.817 -0.2339  0.2826 -0.6424
   60CHL1    C9 6883   1.335   5.475   9.794  0.1322  0.7432 -0.3218
   60CHL1    H9 6884   1.396   5.385   9.775 -0.7097 -0.1718  1.2444
   60CHL1   C10 6885   1.365   5.516   9.941  0.2972  0.8647  0.4768
   60CHL1   C19 6886   1.256   5.605   9.988  0.4090 -0.0660 -0.7419
   60CHL1  H19A 6887   1.275   5.651  10.087 -0.7530 -0.3589 -0.3760
   60CHL1  H19B 6888   1.227   5.688   9.920 -1.5015 -0.1111  0.0090
   60CHL1  H19C 6889   1.169   5.539  10.007  0.1602 -0.0352 -1.7302
   60CHL1    C1 6890   1.377   5.388  10.032  0.1450 -0.7341  0.1080
   60CHL1   H1A 6891   1.280   5.337  10.052 -0.9354  0.9073 -0.8067
   60CHL1   H1B 6892   1.447   5.315   9.985 -0.0744 -1.4720  0.9183
   60CHL1    C2 6893   1.428   5.417  10.175 -0.1548 -0.0952  0.4765
   60CHL1   H2A 6894   1.426   5.322  10.232 -1.5742 -0.9105 -0.8918
   60CHL1   H2B 6895   1.363   5.487  10.231  1.9779  0.7203  1.9621
   60CHL1   C20 6896   1.081   5.471   9.283 -0.7009 -0.5745 -0.8490
   60CHL1   H20 6897   1.002   5.538   9.323 -0.4872  0.0404 -1.4559
   60CHL1   C21 6898   1.019   5.328   9.307  0.5226  0.3781  0.8913
   60CHL1  H21A 6899   0.911   5.319   9.282  1.3262 -2.1545 -1.9368
   60CHL1  H21B 6900   1.023   5.292   9.413 -1.3165 -0.8916  0.5586
   60CHL1  H21C 6901   1.079   5.245   9.263 -1.6599 -1.4089  1.1908
   60CHL1   C22 6902   1.107   5.502   9.136  0.1907 -0.3284  0.3461
   60CHL1  H22A 6903   1.142   5.605   9.111  0.5703 -0.4910  0.2106
   60CHL1  H22B 6904   1.182   5.431   9.096  0.0256 -1.1435  1.4615
   60CHL1   C23 6905   0.980   5.493   9.044  0.1748  0.2710 -0.6334
   60CHL1  H23A 6906   0.969   5.385   9.023 -1.1868 -0.4474  3.3409
   60CHL1  H23B 6907   0.895   5.528   9.107  1.2945  0.8269  0.6076
   60CHL1   C24 6908   0.982   5.568   8.910 -0.7563  0.3239  0.5140
   60CHL1  H24A 6909   1.021   5.668   8.938 -1.3312  0.8430 -0.5166
   60CHL1  H24B 6910   1.055   5.518   8.843  0.3690 -2.1533  3.4181
   60CHL1   C25 6911   0.852   5.594   8.834 -0.6449  0.3954  0.1535
   60CHL1   H25 6912   0.889   5.643   8.741  1.0271  0.2614  0.7269
   60CHL1   C26 6913   0.774   5.463   8.809 -0.6116  0.0277 -0.1090
   60CHL1  H26A 6914   0.845   5.402   8.749  2.3442  1.7574  1.4703
   60CHL1  H26B 6915   0.742   5.403   8.897  0.4165 -2.7077 -1.5424
   60CHL1  H26C 6916   0.680   5.485   8.754 -0.2929  1.2710 -0.1693
   60CHL1   C27 6917   0.768   5.697   8.902  0.4989 -0.0251 -0.3007
   60CHL1  H27A 6918   0.689   5.742   8.839 -0.0180  1.4775  1.3764
   60CHL1  H27B 6919   0.720   5.651   8.991  1.8410 -0.5751  0.1499
   60CHL1  H27C 6920   0.826   5.782   8.944  1.8833 -1.2025  0.2284
   61CHL1    C3 6921   4.814   5.616  10.250 -0.4600 -0.2005 -0.6282
   61CHL1    H3 6922   4.713   5.595  10.208 -1.6958 -3.4748  3.6675
   61CHL1    O3 6923   4.804   5.630  10.392  0.1238 -0.0758  0.6006
   61CHL1   H3' 6924   4.886   5.669  10.423  0.1232  1.9062 -1.7293
   61CHL1    C4 6925   4.907   5.503  10.205 -1.1190  0.2799 -0.1545
   61CHL1   H4A 6926   5.008   5.536  10.235 -0.9697  0.2556 -0.6430
   61CHL1   H4B 6927   4.879   5.416  10.269  0.1002  0.3250  0.4388
   61CHL1    C5 6928   4.906   5.477  10.060  0.0907  0.0610 -0.0363
   61CHL1    C6 6929   4.862   5.360  10.006 -0.4268 -0.2620  0.1833
   61CHL1    H6 6930   4.819   5.285  10.074 -1.5273  0.8652  0.7412
   61CHL1    C7 6931   4.855   5.338   9.855  0.5950 -0.1794  0.5327
   61CHL1   H7A 6932   4.907   5.242   9.836  0.4475 -0.1898  0.1784
   61CHL1   H7B 6933   4.753   5.315   9.820 -0.6889  3.1915  1.8868
   61CHL1    C8 6934   4.931   5.446   9.773  0.2335 -0.6675 -0.9237
   61CHL1    H8 6935   5.042   5.437   9.782 -0.0545 -2.6694  1.1197
   61CHL1   C14 6936   4.878   5.443   9.628 -0.5514  0.5504 -0.1380
   61CHL1   H14 6937   4.773   5.477   9.638 -1.5069 -2.1950 -0.3810
   61CHL1   C15 6938   4.869   5.303   9.546 -0.5727 -0.3408  0.1256
   61CHL1  H15A 6939   4.967   5.252   9.558 -0.7234 -0.8663 -0.8273
   61CHL1  H15B 6940   4.792   5.231   9.582  0.0968 -0.5589  1.1554
   61CHL1   C16 6941   4.852   5.345   9.401 -0.1200 -0.2323 -0.1291
   61CHL1  H16A 6942   4.921   5.287   9.335  0.1765 -0.4934  0.4128
   61CHL1  H16B 6943   4.748   5.319   9.370 -0.4799  0.7893  0.2302
   61CHL1   C17 6944   4.875   5.501   9.395  0.4739  0.4065 -0.6049
   61CHL1   H17 6945   4.771   5.540   9.403  0.1435 -0.8112  1.3400
   61CHL1   C13 6946   4.951   5.537   9.529 -0.2078  0.0243  1.1053
   61CHL1   C18 6947   5.094   5.490   9.517 -0.4700  0.2617 -0.6934
   61CHL1  H18A 6948   5.112   5.384   9.490  1.2816  0.7894 -1.6836
   61CHL1  H18B 6949   5.143   5.548   9.436 -0.3079  0.0381 -0.7545
   61CHL1  H18C 6950   5.137   5.512   9.617 -0.8880  0.9334 -0.6566
   61CHL1   C12 6951   4.926   5.678   9.585  0.1734  0.1100 -0.0078
   61CHL1  H12A 6952   5.001   5.744   9.537  2.2092 -0.5867  2.0978
   61CHL1  H12B 6953   4.819   5.707   9.576 -0.0257 -0.1203  1.4249
   61CHL1   C11 6954   4.975   5.689   9.737  0.3377 -0.2352  0.3060
   61CHL1  H11A 6955   5.086   5.685   9.725  0.2845  1.8030 -1.1604
   61CHL1  H11B 6956   4.954   5.795   9.764 -0.1329 -0.8921  2.6484
   61CHL1    C9 6957   4.904   5.592   9.828 -0.3221 -0.0446 -0.0070
   61CHL1    H9 6958   4.794   5.607   9.819 -0.0659  1.9519 -0.0304
   61CHL1   C10 6959   4.949   5.602   9.977  0.4587  0.1991  0.2507
   61CHL1   C19 6960   5.095   5.624   9.989 -0.3364  0.2586 -0.1317
   61CHL1  H19A 6961   5.127   5.728   9.968 -0.3538  0.6793  1.7948
   61CHL1  H19B 6962   5.132   5.618  10.094  1.8659 -0.5086 -0.9089
   61CHL1  H19C 6963   5.145   5.552   9.920 -1.1630  0.4367 -0.9246
   61CHL1    C1 6964   4.869   5.720  10.026  0.2786 -0.0656  0.2625
   61CHL1   H1A 6965   4.923   5.809   9.987  0.5659  0.3371  1.5497
   61CHL1   H1B 6966   4.766   5.720   9.984 -0.5907 -2.2789  2.3040
   61CHL1    C2 6967   4.868   5.739  10.183 -0.6348  0.0670  0.2770
   61CHL1   H2A 6968   4.809   5.830  10.207 -1.6221 -0.4144 -0.2567
   61CHL1   H2B 6969   4.971   5.753  10.220  0.2761  1.8606 -2.8274
   61CHL1   C20 6970   4.927   5.556   9.259 -0.0034  0.4377 -0.4034
   61CHL1   H20 6971   5.030   5.516   9.252 -1.5822 -3.5832 -1.9587
   61CHL1   C21 6972   4.934   5.707   9.254 -0.2814 -0.3176 -0.4255
   61CHL1  H21A 6973   5.004   5.747   9.331 -0.0459 -1.9030  0.2114
   61CHL1  H21B 6974   4.833   5.750   9.268 -0.5687 -1.3953  0.9169
   61CHL1  H21C 6975   4.983   5.747   9.163  1.7046  0.5041  0.9701
   61CHL1   C22 6976   4.856   5.502   9.133 -0.5062  0.6561 -0.4275
   61CHL1  H22A 6977   4.852   5.393   9.149  0.2119  0.9544  1.9829
   61CHL1  H22B 6978   4.757   5.551   9.120 -0.7072 -0.0797 -1.7530
   61CHL1   C23 6979   4.939   5.526   9.007 -0.9118  0.0175 -0.5022
   61CHL1  H23A 6980   4.952   5.633   8.980  0.8556  0.4057  1.6981
   61CHL1  H23B 6981   5.040   5.485   9.027 -0.9480  0.2157  0.1111
   61CHL1   C24 6982   4.880   5.448   8.887  0.2178  0.2477 -0.3243
   61CHL1  H24A 6983   4.897   5.340   8.909  0.2811 -0.0009 -1.5652
   61CHL1  H24B 6984   4.773   5.470   8.867 -0.1805 -0.5684  0.8326
   61CHL1   C25 6985   4.950   5.494   8.749 -0.0127 -0.4014 -0.2227
   61CHL1   H25 6986   5.056   5.519   8.771 -0.6115  0.1834  2.1146
   61CHL1   C26 6987   4.947   5.385   8.638 -0.1559 -0.0958  0.0247
   61CHL1  H26A 6988   4.988   5.289   8.676  0.0672  1.0588  2.8587
   61CHL1  H26B 6989   4.840   5.371   8.609  0.0120 -2.0852  0.3185
   61CHL1  H26C 6990   4.988   5.403   8.537 -1.3023 -1.5869 -0.7302
   61CHL1   C27 6991   4.872   5.620   8.701 -0.7815  0.4478  0.2617
   61CHL1  H27A 6992   4.918   5.648   8.604  0.0211 -1.8163 -0.0344
   61CHL1  H27B 6993   4.762   5.605   8.696 -0.3740 -2.3337 -0.7615
   61CHL1  H27C 6994   4.893   5.701   8.775  0.0665 -0.1079  0.6297
   62CHL1    C3 6995   5.275   1.964  10.058  0.0997  0.9277  0.5985
   62CHL1    H3 6996   5.296   1.855  10.055 -1.6748  0.6021 -1.2824
   62CHL1    O3 6997   5.250   2.008  10.189 -0.1101  0.2213 -0.1098
   62CHL1   H3' 6998   5.234   2.102  10.182  1.8671  0.6083  0.2236
   62CHL1    C4 6999   5.392   2.042   9.999 -0.3183  0.0748  0.7363
   62CHL1   H4A 7000   5.366   2.148  10.019 -0.6353  0.4211 -1.3916
   62CHL1   H4B 7001   5.476   2.022  10.068  0.4136 -0.6646 -0.3527
   62CHL1    C5 7002   5.415   2.033   9.851  0.1398 -0.3811  0.1669
   62CHL1    C6 7003   5.535   2.006   9.795  1.0972  0.1341  0.2433
   62CHL1    H6 7004   5.625   1.999   9.858  2.2391 -1.4394 -1.5404
   62CHL1    C7 7005   5.552   1.993   9.647  0.3213 -0.2265 -0.2624
   62CHL1   H7A 7006   5.628   2.065   9.609  0.5479 -0.2362  0.1688
   62CHL1   H7B 7007   5.592   1.894   9.616 -0.7850 -0.0936 -2.1670
   62CHL1    C8 7008   5.431   2.019   9.550  0.1402  0.2043 -0.1713
   62CHL1    H8 7009   5.413   2.127   9.530 -1.5708 -0.1522 -0.6263
   62CHL1   C14 7010   5.449   1.942   9.421  0.1753  0.4166  0.0463
   62CHL1   H14 7011   5.439   1.833   9.442 -0.1733 -0.1646 -2.9676
   62CHL1   C15 7012   5.575   1.961   9.342  0.3383 -0.1474 -0.1046
   62CHL1  H15A 7013   5.621   2.062   9.337  0.9344 -0.4046  0.1719
   62CHL1  H15B 7014   5.652   1.890   9.379 -0.1296 -0.5800  0.0378
   62CHL1   C16 7015   5.535   1.915   9.199 -0.7918  0.8550 -0.8196
   62CHL1  H16A 7016   5.558   1.999   9.131 -3.0846  2.2417  0.0664
   62CHL1  H16B 7017   5.593   1.824   9.170 -1.6595  0.0956 -0.1961
   62CHL1   C17 7018   5.388   1.880   9.203  0.3115  0.1202  0.0675
   62CHL1   H17 7019   5.386   1.773   9.230  1.2769 -0.0443 -0.5138
   62CHL1   C13 7020   5.331   1.958   9.323 -0.4883 -0.4254 -0.0704
   62CHL1   C18 7021   5.289   2.101   9.283  0.4201 -0.9938  0.1017
   62CHL1  H18A 7022   5.381   2.141   9.236  0.5986  0.5703  1.7321
   62CHL1  H18B 7023   5.202   2.099   9.214 -0.0823  0.0012  0.6898
   62CHL1  H18C 7024   5.264   2.176   9.362  1.7089  3.0861 -3.1842
   62CHL1   C12 7025   5.210   1.895   9.389 -0.0905 -0.2282  0.5612
   62CHL1  H12A 7026   5.116   1.905   9.329 -1.3197  2.0676  2.7913
   62CHL1  H12B 7027   5.226   1.786   9.402 -1.3013 -0.3802  0.9037
   62CHL1   C11 7028   5.184   1.959   9.526 -0.5177  0.1691 -0.5561
   62CHL1  H11A 7029   5.132   2.056   9.515 -1.4758 -0.0395  1.8291
   62CHL1  H11B 7030   5.105   1.901   9.576  0.7519 -0.1061  1.1707
   62CHL1    C9 7031   5.309   1.967   9.620 -0.0506  0.1954 -0.0632
   62CHL1    H9 7032   5.329   1.860   9.644  2.5223  0.6722  0.0731
   62CHL1   C10 7033   5.289   2.032   9.763  0.8501  0.2833  0.5679
   62CHL1   C19 7034   5.236   2.176   9.740 -0.4571  0.0247  0.1138
   62CHL1  H19A 7035   5.203   2.211   9.840  0.0678 -0.0065  0.3027
   62CHL1  H19B 7036   5.316   2.245   9.705  0.2687 -0.9954 -0.2617
   62CHL1  H19C 7037   5.147   2.186   9.674 -0.7288  0.5378  0.5498
   62CHL1    C1 7038   5.173   1.943   9.834 -0.2621  0.1319  1.1551
   62CHL1   H1A 7039   5.078   1.965   9.780  1.0055  0.5925 -0.9656
   62CHL1   H1B 7040   5.203   1.838   9.814  1.0727  1.2642 -3.4762
   62CHL1    C2 7041   5.146   1.983   9.979  0.4311 -0.3611  0.0411
   62CHL1   H2A 7042   5.064   1.916  10.012  0.6278  0.7804  2.9455
   62CHL1   H2B 7043   5.109   2.087   9.990 -2.0600 -1.1715 -0.2290
   62CHL1   C20 7044   5.300   1.884   9.078  0.9627  0.1161  0.2287
   62CHL1   H20 7045   5.193   1.890   9.110 -0.3128 -1.3028 -3.4553
   62CHL1   C21 7046   5.319   1.745   9.002  0.4130 -0.6166 -0.0501
   62CHL1  H21A 7047   5.427   1.733   8.979  0.5547  0.5137 -0.0258
   62CHL1  H21B 7048   5.259   1.753   8.908  1.8523 -1.4106 -1.0568
   62CHL1  H21C 7049   5.290   1.660   9.067  0.6586 -1.0106 -0.4580
   62CHL1   C22 7050   5.344   1.996   8.978  0.5445 -0.2357 -0.1937
   62CHL1  H22A 7051   5.389   2.086   9.023  0.3400 -0.9382  1.4438
   62CHL1  H22B 7052   5.427   1.951   8.918 -2.0291 -1.0414 -3.3026
   62CHL1   C23 7053   5.236   2.033   8.874 -0.5226  0.3161 -0.5557
   62CHL1  H23A 7054   5.167   1.949   8.852  0.6017 -0.4766 -1.0842
   62CHL1  H23B 7055   5.168   2.108   8.919  0.5958 -0.0330  1.8435
   62CHL1   C24 7056   5.286   2.066   8.741  0.3522  0.2113 -0.0430
   62CHL1  H24A 7057   5.337   1.980   8.693 -1.0371 -1.6781  1.7349
   62CHL1  H24B 7058   5.200   2.106   8.684  0.9339 -1.5326 -2.1852
   62CHL1   C25 7059   5.398   2.177   8.738 -0.4972 -0.1241  0.0617
   62CHL1   H25 7060   5.483   2.167   8.808  0.7870  2.8568 -1.0073
   62CHL1   C26 7061   5.451   2.177   8.593  0.4931  0.7546  0.3088
   62CHL1  H26A 7062   5.519   2.090   8.578 -0.7125  0.1942 -2.0914
   62CHL1  H26B 7063   5.370   2.192   8.518  1.6013  1.2621 -0.8206
   62CHL1  H26C 7064   5.507   2.272   8.573  2.5423 -0.2272  1.2349
   62CHL1   C27 7065   5.337   2.316   8.763 -0.4774  0.3120 -0.3045
   62CHL1  H27A 7066   5.418   2.391   8.750  0.9547 -0.8226  1.8793
   62CHL1  H27B 7067   5.256   2.337   8.690 -1.4233 -1.6312  0.1517
   62CHL1  H27C 7068   5.290   2.321   8.863  0.3014  1.2441  0.0262
   63CHL1    C3 7069   0.145   3.304  10.420  0.7259 -0.7748 -0.5727
   63CHL1    H3 7070   0.252   3.284  10.444  0.5794  1.2044  2.0172
   63CHL1    O3 7071   0.065   3.339  10.536 -0.6428 -0.0750  0.8125
   63CHL1   H3' 7072  -0.023   3.354  10.502 -0.0417 -2.0039 -1.8817
   63CHL1    C4 7073   0.146   3.421  10.317 -0.3938  0.3808  0.1686
   63CHL1   H4A 7074   0.041   3.442  10.285 -0.6966 -0.8794  0.3319
   63CHL1   H4B 7075   0.181   3.509  10.375  3.1597  0.1291 -1.4740
   63CHL1    C5 7076   0.225   3.382  10.190  0.3274  0.3888 -0.0403
   63CHL1    C6 7077   0.335   3.454  10.157 -0.2251  0.3618  0.4736
   63CHL1    H6 7078   0.353   3.552  10.204  1.2215  0.8135 -0.9833
   63CHL1    C7 7079   0.419   3.434  10.041  0.3703  0.2657  0.2046
   63CHL1   H7A 7080   0.422   3.531   9.987  3.1943 -1.2449 -2.5095
   63CHL1   H7B 7081   0.522   3.404  10.069 -0.0569 -0.9027  0.5790
   63CHL1    C8 7082   0.364   3.320   9.947  0.4964 -0.0534 -0.6823
   63CHL1    H8 7083   0.286   3.370   9.886  0.7480 -0.2333 -1.1452
   63CHL1   C14 7084   0.462   3.258   9.837 -0.4621 -0.1971  0.0797
   63CHL1   H14 7085   0.527   3.197   9.903 -0.2144 -1.1525 -1.0128
   63CHL1   C15 7086   0.545   3.362   9.762  0.6051 -0.0730  0.5175
   63CHL1  H15A 7087   0.487   3.448   9.722  1.9782  0.9761  0.7447
   63CHL1  H15B 7088   0.611   3.418   9.831 -0.3146  0.8284  0.6756
   63CHL1   C16 7089   0.609   3.277   9.656  0.2481 -0.4986 -0.0586
   63CHL1  H16A 7090   0.591   3.323   9.557 -0.5014  0.5748  0.5605
   63CHL1  H16B 7091   0.717   3.269   9.679  0.0969 -0.1382  0.8342
   63CHL1   C17 7092   0.545   3.130   9.667  0.1232  0.1141  0.1912
   63CHL1   H17 7093   0.610   3.078   9.740  1.0234  2.1188  0.8333
   63CHL1   C13 7094   0.409   3.152   9.742  0.3411 -0.0936  0.5371
   63CHL1   C18 7095   0.303   3.219   9.639 -0.1832  0.3328  0.0258
   63CHL1  H18A 7096   0.231   3.273   9.704  0.5003 -0.3640  1.4008
   63CHL1  H18B 7097   0.349   3.295   9.573  0.1236  0.5756  0.5179
   63CHL1  H18C 7098   0.256   3.143   9.573 -2.0908  2.6540 -1.3504
   63CHL1   C12 7099   0.355   3.041   9.830  0.7136  0.6250  0.3344
   63CHL1  H12A 7100   0.306   2.968   9.762  1.7602 -0.4799  0.7483
   63CHL1  H12B 7101   0.437   2.991   9.886 -1.5509 -0.1624  3.0133
   63CHL1   C11 7102   0.249   3.094   9.924 -0.7604 -0.2555  0.0019
   63CHL1  H11A 7103   0.167   3.129   9.858 -1.1826 -1.2771 -0.0189
   63CHL1  H11B 7104   0.211   3.005   9.979  1.2909 -2.6814 -2.3353
   63CHL1    C9 7105   0.298   3.204  10.020  0.0021  0.3826 -0.4213
   63CHL1    H9 7106   0.372   3.156  10.087 -0.8322  1.0922  1.0222
   63CHL1   C10 7107   0.186   3.252  10.119 -0.0839  0.4650  0.3178
   63CHL1   C19 7108   0.052   3.283  10.041  0.5456  0.0737 -0.0849
   63CHL1  H19A 7109   0.011   3.195   9.988  0.0543  1.5111 -2.1342
   63CHL1  H19B 7110  -0.028   3.335  10.099  1.8583  0.1915  1.6816
   63CHL1  H19C 7111   0.080   3.343   9.952 -3.6148  0.1827 -1.4441
   63CHL1    C1 7112   0.159   3.143  10.226  0.6245  0.8858  0.6262
   63CHL1   H1A 7113   0.116   3.048  10.188  0.2121  1.2015  0.2969
   63CHL1   H1B 7114   0.259   3.106  10.256  0.6915  0.0977 -0.5278
   63CHL1    C2 7115   0.080   3.182  10.355 -0.3817  0.1886  0.0948
   63CHL1   H2A 7116   0.082   3.091  10.418 -0.0245  1.4711  1.9665
   63CHL1   H2B 7117  -0.026   3.200  10.326 -0.6829 -0.8591  0.5558
   63CHL1   C20 7118   0.530   3.056   9.528  0.3691  0.0698 -1.0432
   63CHL1   H20 7119   0.454   3.108   9.467 -0.9561  0.3227  0.7957
   63CHL1   C21 7120   0.483   2.913   9.550  0.2600  0.2872  0.1813
   63CHL1  H21A 7121   0.550   2.870   9.627 -0.0425  0.7692  0.7111
   63CHL1  H21B 7122   0.505   2.852   9.459  1.0908 -0.1833  0.6881
   63CHL1  H21C 7123   0.374   2.903   9.571  0.1994 -0.1358 -0.3033
   63CHL1   C22 7124   0.656   3.054   9.440  0.2489  0.2400 -0.1531
   63CHL1  H22A 7125   0.709   3.151   9.455  0.2026  0.3515 -0.7297
   63CHL1  H22B 7126   0.718   2.966   9.469  1.1663 -0.4199 -3.9089
   63CHL1   C23 7127   0.621   3.036   9.294  0.1608  0.0761  0.1397
   63CHL1  H23A 7128   0.566   2.942   9.278 -0.2894 -0.0691  2.4367
   63CHL1  H23B 7129   0.570   3.129   9.262 -0.4449  0.1906  1.4091
   63CHL1   C24 7130   0.750   3.013   9.205 -0.2195 -0.4580 -0.2979
   63CHL1  H24A 7131   0.800   3.110   9.223 -0.5029 -0.4281  0.3253
   63CHL1  H24B 7132   0.804   2.927   9.249 -1.0712 -1.0130 -0.3169
   63CHL1   C25 7133   0.718   2.984   9.065  1.0459 -0.0250 -0.2810
   63CHL1   H25 7134   0.663   2.888   9.056 -0.2582  0.6715  0.0156
   63CHL1   C26 7135   0.648   3.091   8.998  0.0794 -0.2349 -0.5867
   63CHL1  H26A 7136   0.678   3.189   9.040  0.0635 -1.3888  2.1741
   63CHL1  H26B 7137   0.647   3.090   8.887  1.7133 -1.6598 -0.6177
   63CHL1  H26C 7138   0.539   3.090   9.020  0.0230  2.0844 -0.5924
   63CHL1   C27 7139   0.847   2.965   8.984 -0.5941 -0.4335  0.5834
   63CHL1  H27A 7140   0.910   2.883   9.026  0.5038 -0.8154 -1.6919
   63CHL1  H27B 7141   0.829   2.943   8.876  0.1401 -1.8021  0.7264
   63CHL1  H27C 7142   0.902   3.061   8.982  0.6022 -1.1151 -0.9588
   64CHL1    C3 7143   5.868   2.848  10.038  0.2302  0.2651  0.0164
   64CHL1    H3 7144   5.853   2.958  10.036 -3.4877 -0.2230 -1.5903
   64CHL1    O3 7145   5.806   2.804  10.161 -0.2731  0.2570  0.3289
   64CHL1   H3' 7146   5.879   2.801  10.224  0.5724 -1.4854 -0.6870
   64CHL1    C4 7147   5.790   2.788   9.925 -0.3979  0.0326  0.0730
   64CHL1   H4A 7148   5.800   2.680   9.948 -0.0228 -0.5141 -2.4683
   64CHL1   H4B 7149   5.683   2.817   9.929 -0.2541  0.4147  1.1175
   64CHL1    C5 7150   5.857   2.828   9.794  0.1343 -0.0025  0.0644
   64CHL1    C6 7151   5.780   2.879   9.698 -0.4771  0.0510 -0.5885
   64CHL1    H6 7152   5.674   2.898   9.717 -0.4602  0.8261 -1.2664
   64CHL1    C7 7153   5.833   2.927   9.568 -0.2748 -0.2926  0.7680
   64CHL1   H7A 7154   5.764   2.907   9.484  1.6686  1.9363 -1.4356
   64CHL1   H7B 7155   5.838   3.038   9.576 -2.5115 -0.1153  0.0198
   64CHL1    C8 7156   5.970   2.863   9.528 -1.1312  0.5345  0.2512
   64CHL1    H8 7157   5.952   2.759   9.494  0.7494  0.0130  0.7788
   64CHL1   C14 7158   6.033   2.932   9.412 -1.3455 -0.0607 -0.1734
   64CHL1   H14 7159   6.042   3.040   9.436  0.0943  0.3760 -2.5961
   64CHL1   C15 7160   5.955   2.931   9.279  0.8769  0.4234  0.7701
   64CHL1  H15A 7161   5.889   2.847   9.251 -1.4776  2.8056 -1.0731
   64CHL1  H15B 7162   5.888   3.020   9.281  1.3167  0.7567  0.6188
   64CHL1   C16 7163   6.056   2.947   9.163  0.3925 -0.2752 -0.5371
   64CHL1  H16A 7164   6.065   2.859   9.097 -1.0083 -0.3608 -0.6280
   64CHL1  H16B 7165   6.029   3.032   9.097 -0.3553  1.0180  1.3968
   64CHL1   C17 7166   6.188   2.962   9.244  0.7070 -0.1313 -0.1238
   64CHL1   H17 7167   6.190   3.057   9.301 -0.1540  0.2924 -0.7838
   64CHL1   C13 7168   6.168   2.874   9.366  0.3232 -0.5030  0.2984
   64CHL1   C18 7169   6.166   2.723   9.320  0.4592 -0.4452 -0.3445
   64CHL1  H18A 7170   6.103   2.710   9.230  2.4131  0.7032 -1.9181
   64CHL1  H18B 7171   6.274   2.703   9.302  0.2258 -0.7746 -1.3860
   64CHL1  H18C 7172   6.132   2.651   9.397 -0.2532  0.5718  0.3113
   64CHL1   C12 7173   6.258   2.900   9.490  1.0944  0.0689 -0.1252
   64CHL1  H12A 7174   6.363   2.866   9.477  1.3350  0.0731  1.6649
   64CHL1  H12B 7175   6.257   3.010   9.504  0.6913  0.0689 -0.1621
   64CHL1   C11 7176   6.206   2.831   9.615  0.3117 -0.3751 -0.1603
   64CHL1  H11A 7177   6.209   2.722   9.593 -3.8584  0.0342 -3.1075
   64CHL1  H11B 7178   6.279   2.845   9.698  1.6236 -0.7395 -1.2384
   64CHL1    C9 7179   6.066   2.871   9.647 -1.3678  0.1394 -0.9891
   64CHL1    H9 7180   6.078   2.979   9.668 -0.8106 -0.0271 -0.4354
   64CHL1   C10 7181   6.013   2.803   9.772 -0.5043  0.1164 -0.4610
   64CHL1   C19 7182   6.009   2.654   9.751  0.1849 -0.2855  0.6788
   64CHL1  H19A 7183   6.111   2.609   9.744  0.2938  0.1042 -0.4239
   64CHL1  H19B 7184   5.970   2.603   9.841 -0.5051  2.5339  2.0029
   64CHL1  H19C 7185   5.949   2.626   9.662  1.4603  1.2913 -0.7221
   64CHL1    C1 7186   6.085   2.850   9.894 -0.2251 -0.5169 -0.9047
   64CHL1   H1A 7187   6.189   2.812   9.903  0.9007  3.1561  3.1002
   64CHL1   H1B 7188   6.098   2.960   9.893  0.5989 -0.6151 -1.6872
   64CHL1    C2 7189   6.017   2.809  10.027  0.3915 -0.2221  0.4407
   64CHL1   H2A 7190   6.082   2.857  10.103 -1.0886  0.7811  1.0827
   64CHL1   H2B 7191   6.025   2.699  10.044 -1.0603  0.1301  3.6364
   64CHL1   C20 7192   6.310   2.958   9.165  0.2983  0.1993 -0.0517
   64CHL1   H20 7193   6.332   2.851   9.141 -2.3775  0.0996 -2.3088
   64CHL1   C21 7194   6.430   3.027   9.241 -0.1099 -0.7318 -0.3125
   64CHL1  H21A 7195   6.450   2.975   9.337 -2.0380  1.2000  1.1711
   64CHL1  H21B 7196   6.418   3.134   9.266  1.9418 -1.0416  2.0887
   64CHL1  H21C 7197   6.521   3.004   9.182 -2.2380 -0.7348 -3.7610
   64CHL1   C22 7198   6.284   3.038   9.030  0.0067 -0.2967 -0.1272
   64CHL1  H22A 7199   6.204   2.980   8.979 -0.7238 -0.9156  1.6733
   64CHL1  H22B 7200   6.260   3.143   9.055  0.6375 -0.0466 -0.5923
   64CHL1   C23 7201   6.400   3.017   8.937  0.1792 -0.7401  0.0169
   64CHL1  H23A 7202   6.493   3.067   8.973 -0.4628 -1.3264  2.5819
   64CHL1  H23B 7203   6.417   2.908   8.926 -3.1817 -1.3132  0.0392
   64CHL1   C24 7204   6.383   3.081   8.801  0.0693  0.1805  0.4053
   64CHL1  H24A 7205   6.376   3.192   8.802  0.4408  0.2327 -0.9949
   64CHL1  H24B 7206   6.481   3.060   8.754 -0.3604 -1.1751  0.0874
   64CHL1   C25 7207   6.271   3.018   8.705  0.2995 -0.5383 -0.5815
   64CHL1   H25 7208   6.182   3.030   8.770  1.0545 -0.3554  0.4257
   64CHL1   C26 7209   6.256   3.106   8.585 -0.3307  0.6711  1.0701
   64CHL1  H26A 7210   6.349   3.111   8.525 -0.3450  0.6732  1.0488
   64CHL1  H26B 7211   6.180   3.061   8.518  1.0395  0.3165 -0.2584
   64CHL1  H26C 7212   6.230   3.210   8.617  1.9351  0.6493  3.1236
   64CHL1   C27 7213   6.297   2.874   8.666  0.2015  0.6320  0.4256
   64CHL1  H27A 7214   6.213   2.830   8.610 -0.1044  1.2482  0.3930
   64CHL1  H27B 7215   6.392   2.863   8.609 -1.2390 -2.2251 -1.5355
   64CHL1  H27C 7216   6.316   2.816   8.759  0.3388  1.7310  1.1026
   65CHL1    C3 7217   1.620   0.019  10.287 -0.1468  0.2005  0.7306
   65CHL1    H3 7218   1.710  -0.041  10.263 -0.3162  0.6926 -1.1772
   65CHL1    O3 7219   1.628   0.036  10.429  0.1798 -0.3464  0.3904
   65CHL1   H3' 7220   1.686   0.111  10.439 -0.0373 -0.4042  2.2444
   65CHL1    C4 7221   1.629   0.149  10.212  0.2547  0.1757  0.2920
   65CHL1   H4A 7222   1.554   0.213  10.262  0.6514  2.2957 -1.7461
   65CHL1   H4B 7223   1.723   0.207  10.226  1.8166 -2.2886  0.3748
   65CHL1    C5 7224   1.618   0.150  10.057  0.0788  0.0228 -0.1614
   65CHL1    C6 7225   1.709   0.207   9.979 -0.0490 -0.6687  0.3566
   65CHL1    H6 7226   1.793   0.260  10.027  0.0705 -0.2783 -0.2756
   65CHL1    C7 7227   1.699   0.223   9.832 -0.3408 -1.0896  0.2535
   65CHL1   H7A 7228   1.719   0.323   9.787 -1.1346 -0.7211  0.7248
   65CHL1   H7B 7229   1.786   0.163   9.799 -0.3106 -0.8736 -0.0660
   65CHL1    C8 7230   1.569   0.170   9.772  0.1723  0.3981  0.0771
   65CHL1    H8 7231   1.490   0.248   9.775 -1.9448 -1.6836  0.1210
   65CHL1   C14 7232   1.593   0.133   9.623 -0.6358 -0.0001  0.4529
   65CHL1   H14 7233   1.661   0.045   9.622  0.8778  1.1166 -1.9985
   65CHL1   C15 7234   1.669   0.227   9.533  0.2297 -0.0324  0.1687
   65CHL1  H15A 7235   1.631   0.330   9.547 -0.9462 -0.5978  1.2354
   65CHL1  H15B 7236   1.779   0.233   9.549  0.0385 -1.9640  2.4632
   65CHL1   C16 7237   1.629   0.179   9.391 -0.1464  0.4198  0.1350
   65CHL1  H16A 7238   1.605   0.271   9.332 -1.6964 -1.1399 -1.7466
   65CHL1  H16B 7239   1.707   0.113   9.347 -0.8722  1.3660 -2.7180
   65CHL1   C17 7240   1.512   0.073   9.403  0.1181 -0.3716  0.1689
   65CHL1   H17 7241   1.559  -0.028   9.397 -0.9464 -0.7301 -3.5715
   65CHL1   C13 7242   1.468   0.094   9.553 -0.3352 -0.3873  0.2377
   65CHL1   C18 7243   1.366   0.209   9.555  0.3046 -0.1683  0.0734
   65CHL1  H18A 7244   1.268   0.180   9.511 -0.0132  0.1400  0.5701
   65CHL1  H18B 7245   1.339   0.235   9.660 -0.6207  0.8001 -0.3880
   65CHL1  H18C 7246   1.392   0.301   9.498 -0.7690  1.0875  1.5411
   65CHL1   C12 7247   1.408  -0.030   9.625  0.5741 -0.0189  0.1686
   65CHL1  H12A 7248   1.313  -0.069   9.582  0.4881  0.5299 -0.1376
   65CHL1  H12B 7249   1.478  -0.116   9.621 -0.5739 -0.9801  0.4783
   65CHL1   C11 7250   1.388  -0.006   9.777  0.8243  0.0926  0.0575
   65CHL1  H11A 7251   1.299   0.056   9.800  0.0764 -1.6068  1.8213
   65CHL1  H11B 7252   1.358  -0.103   9.823 -1.1762  0.4047 -0.5145
   65CHL1    C9 7253   1.512   0.047   9.847  0.2644 -1.0946 -0.4448
   65CHL1    H9 7254   1.597  -0.022   9.829  1.2332 -1.1008  3.5630
   65CHL1   C10 7255   1.502   0.074  10.002  0.0246  0.4103  0.0428
   65CHL1   C19 7256   1.374   0.169  10.020 -0.0586  1.0756  0.1577
   65CHL1  H19A 7257   1.365   0.228  10.114  1.4146  0.8693  0.4303
   65CHL1  H19B 7258   1.366   0.239   9.935 -0.8076  2.2275  1.1646
   65CHL1  H19C 7259   1.282   0.106  10.028  1.7492 -1.4531  1.7335
   65CHL1    C1 7260   1.477  -0.056  10.095  0.1535 -0.0673 -0.1361
   65CHL1   H1A 7261   1.375  -0.099  10.084  0.4120 -0.5536 -0.5990
   65CHL1   H1B 7262   1.553  -0.129  10.060 -1.6365 -1.4171 -1.2540
   65CHL1    C2 7263   1.490  -0.045  10.246 -0.9111 -0.7549 -0.1740
   65CHL1   H2A 7264   1.484  -0.148  10.288 -0.8520  0.1696  2.2320
   65CHL1   H2B 7265   1.411   0.018  10.292 -0.8322 -0.0515 -0.9829
   65CHL1   C20 7266   1.409   0.088   9.287 -0.2072  0.0166  0.3570
   65CHL1   H20 7267   1.349   0.180   9.297 -2.5727 -1.3848 -0.3882
   65CHL1   C21 7268   1.311  -0.035   9.300  0.7288  0.4234 -0.3731
   65CHL1  H21A 7269   1.369  -0.129   9.289 -0.9914 -0.5143 -1.7069
   65CHL1  H21B 7270   1.229  -0.035   9.224 -0.3486 -1.9783  0.7347
   65CHL1  H21C 7271   1.257  -0.035   9.397 -0.0179 -0.6224 -0.7814
   65CHL1   C22 7272   1.477   0.080   9.145  0.1141 -0.9793 -0.1995
   65CHL1  H22A 7273   1.550   0.161   9.127 -0.9170 -0.1629 -0.7653
   65CHL1  H22B 7274   1.522  -0.020   9.127 -0.5919 -1.3793  0.2153
   65CHL1   C23 7275   1.371   0.091   9.034  0.5226  0.9821  0.2150
   65CHL1  H23A 7276   1.317  -0.003   9.011  2.6075  0.2841 -1.9784
   65CHL1  H23B 7277   1.294   0.170   9.047 -1.4484 -0.9506  0.4018
   65CHL1   C24 7278   1.447   0.125   8.902  0.4824 -0.2120 -0.0723
   65CHL1  H24A 7279   1.505   0.218   8.921 -0.9709  0.6079  0.4017
   65CHL1  H24B 7280   1.515   0.042   8.874  1.2701 -0.5694  2.8201
   65CHL1   C25 7281   1.357   0.152   8.781  0.2103 -0.2359 -1.0540
   65CHL1   H25 7282   1.268   0.210   8.814  0.0216 -0.1531 -1.7044
   65CHL1   C26 7283   1.431   0.239   8.683  0.0407  0.1401 -0.0681
   65CHL1  H26A 7284   1.527   0.195   8.647 -0.1993 -1.5592  1.3212
   65CHL1  H26B 7285   1.371   0.257   8.591  2.2045  1.8606 -1.1792
   65CHL1  H26C 7286   1.470   0.329   8.733  0.1581  1.2989 -2.1780
   65CHL1   C27 7287   1.304   0.025   8.727 -0.2472  0.1033 -0.1137
   65CHL1  H27A 7288   1.233  -0.025   8.795 -2.3433  1.6107 -1.1516
   65CHL1  H27B 7289   1.253   0.052   8.632 -2.3351  2.0085  1.5171
   65CHL1  H27C 7290   1.382  -0.048   8.694 -0.6935  0.4431 -2.0121
   66CHL1    C3 7291   6.386   4.948  10.521  0.3102  0.8572  0.3027
   66CHL1    H3 7292   6.277   4.965  10.509  0.1312  0.5500  1.3726
   66CHL1    O3 7293   6.400   4.866  10.641 -0.6553  0.4036  0.6490
   66CHL1   H3' 7294   6.370   4.916  10.717  0.6806  1.6173  0.3954
   66CHL1    C4 7295   6.450   4.874  10.406  0.6294 -0.4178  0.4815
   66CHL1   H4A 7296   6.556   4.865  10.439  0.8777  0.3661 -0.0995
   66CHL1   H4B 7297   6.411   4.770  10.402  0.3779 -0.2966 -0.2099
   66CHL1    C5 7298   6.450   4.954  10.279 -0.2136  0.0035 -0.3897
   66CHL1    C6 7299   6.397   4.898  10.173  0.0592  0.4159  0.4001
   66CHL1    H6 7300   6.340   4.804  10.185  0.9901 -0.3216 -0.9182
   66CHL1    C7 7301   6.385   4.969  10.040  0.1046  0.1009 -0.3359
   66CHL1   H7A 7302   6.412   4.894   9.963 -0.4417 -0.4683  0.0211
   66CHL1   H7B 7303   6.286   5.011  10.014 -0.5481 -0.8982  0.4747
   66CHL1    C8 7304   6.494   5.075  10.034  0.5413  0.3822 -0.2820
   66CHL1    H8 7305   6.593   5.024  10.034 -0.8765 -2.4943 -1.9737
   66CHL1   C14 7306   6.471   5.156   9.905 -0.5554  0.2056 -0.3567
   66CHL1   H14 7307   6.368   5.196   9.919 -0.1964  1.0433 -0.0854
   66CHL1   C15 7308   6.467   5.092   9.767 -0.6877 -0.2300 -0.2153
   66CHL1  H15A 7309   6.549   5.019   9.746 -0.6001 -1.3321  3.5960
   66CHL1  H15B 7310   6.375   5.031   9.755 -0.5718 -0.2990 -0.7651
   66CHL1   C16 7311   6.475   5.215   9.666 -0.6978 -0.6622 -0.5089
   66CHL1  H16A 7312   6.556   5.180   9.599  0.9418 -2.4236  2.2643
   66CHL1  H16B 7313   6.387   5.225   9.600 -0.1604  1.3699 -0.9669
   66CHL1   C17 7314   6.506   5.341   9.749  0.1606 -0.3131 -0.0994
   66CHL1   H17 7315   6.411   5.383   9.786 -0.9672 -2.3280 -0.6345
   66CHL1   C13 7316   6.557   5.284   9.885 -0.7878 -0.6032  0.5440
   66CHL1   C18 7317   6.709   5.241   9.879  0.1859 -0.2859  0.2060
   66CHL1  H18A 7318   6.742   5.185   9.969 -0.7612 -0.4140  0.4810
   66CHL1  H18B 7319   6.735   5.179   9.790  2.3154  0.3589  0.3558
   66CHL1  H18C 7320   6.770   5.332   9.862 -0.7341  1.0599  3.8570
   66CHL1   C12 7321   6.523   5.371  10.011  0.7404 -0.0735  0.5213
   66CHL1  H12A 7322   6.572   5.470  10.004 -0.5604  0.6110  0.9315
   66CHL1  H12B 7323   6.414   5.394  10.008  0.3902 -1.7112 -0.3606
   66CHL1   C11 7324   6.570   5.299  10.136 -0.4177  0.9301  0.4669
   66CHL1  H11A 7325   6.677   5.272  10.127 -1.7855 -4.0955 -3.5081
   66CHL1  H11B 7326   6.563   5.359  10.229  1.5697  0.8648  0.6668
   66CHL1    C9 7327   6.491   5.169  10.157 -0.1079 -0.0020  0.2320
   66CHL1    H9 7328   6.384   5.200  10.166 -0.1054 -0.5498  2.4445
   66CHL1   C10 7329   6.514   5.092  10.286  0.1755  0.8117 -0.5102
   66CHL1   C19 7330   6.672   5.087  10.313  0.0398 -0.0902 -0.0991
   66CHL1  H19A 7331   6.722   5.066  10.216 -1.8985 -1.1642 -0.9056
   66CHL1  H19B 7332   6.699   5.191  10.341  0.4896  0.2649 -1.7512
   66CHL1  H19C 7333   6.704   5.018  10.394 -0.8304  0.5392  0.7874
   66CHL1    C1 7334   6.445   5.159  10.403 -0.4070 -0.7122  0.6219
   66CHL1   H1A 7335   6.500   5.254  10.420  0.7482 -1.3262  0.3792
   66CHL1   H1B 7336   6.339   5.184  10.381 -0.3769 -1.1157  0.0112
   66CHL1    C2 7337   6.456   5.084  10.534 -0.6882 -0.5150 -0.5122
   66CHL1   H2A 7338   6.422   5.152  10.615 -0.5828 -1.6863  0.5268
   66CHL1   H2B 7339   6.564   5.069  10.556 -0.6247  0.8464  0.1610
   66CHL1   C20 7340   6.583   5.450   9.683  0.4539  0.0939 -0.3784
   66CHL1   H20 7341   6.682   5.421   9.644  0.6696 -0.6443  0.6876
   66CHL1   C21 7342   6.618   5.567   9.777 -0.1797  0.4970  0.4328
   66CHL1  H21A 7343   6.537   5.593   9.849 -0.6191 -3.0978  1.3261
   66CHL1  H21B 7344   6.636   5.657   9.715 -2.4952 -2.1109 -4.2723
   66CHL1  H21C 7345   6.703   5.541   9.844  0.8604  0.9211 -0.7010
   66CHL1   C22 7346   6.498   5.504   9.556 -0.3322 -0.6914 -0.0377
   66CHL1  H22A 7347   6.475   5.433   9.474 -0.7868 -0.2244 -0.3129
   66CHL1  H22B 7348   6.395   5.520   9.594 -0.5630  0.5090 -1.1650
   66CHL1   C23 7349   6.570   5.618   9.477 -0.1186 -0.1766 -0.6928
   66CHL1  H23A 7350   6.571   5.721   9.520 -0.5901 -0.6779  0.5201
   66CHL1  H23B 7351   6.678   5.597   9.460  0.5306  0.6749  2.1761
   66CHL1   C24 7352   6.500   5.648   9.338  0.2833 -0.0034 -0.0976
   66CHL1  H24A 7353   6.547   5.745   9.310 -0.3978  0.5795  0.7678
   66CHL1  H24B 7354   6.536   5.571   9.266  0.5078 -0.3676  0.4014
   66CHL1   C25 7355   6.350   5.665   9.338 -0.1723  0.0306 -0.4634
   66CHL1   H25 7356   6.310   5.574   9.387  0.7364 -0.0987  0.0497
   66CHL1   C26 7357   6.309   5.786   9.424  0.2457 -0.3388 -0.0906
   66CHL1  H26A 7358   6.199   5.796   9.433  0.2075  0.9076 -1.7926
   66CHL1  H26B 7359   6.348   5.772   9.527 -0.3929 -0.0146  0.1989
   66CHL1  H26C 7360   6.353   5.882   9.390  0.7167 -0.6868 -0.4589
   66CHL1   C27 7361   6.305   5.686   9.207  0.8833  0.6813  0.9979
   66CHL1  H27A 7362   6.196   5.705   9.199  0.8497  0.0169 -0.3207
   66CHL1  H27B 7363   6.352   5.780   9.169  1.1512 -0.2331 -1.0274
   66CHL1  H27C 7364   6.332   5.603   9.138 -2.0732  0.0267  0.5427
   67CHL1    C3 7365   4.000   5.697  10.223  0.1045 -0.6605 -0.3778
   67CHL1    H3 7366   3.927   5.776  10.194  1.4024  0.4296 -0.6941
   67CHL1    O3 7367   4.042   5.724  10.359 -0.2190 -0.4604  0.2379
   67CHL1   H3' 7368   4.075   5.814  10.360  0.8798 -0.8614  0.5119
   67CHL1    C4 7369   3.940   5.554  10.226 -0.1151  0.2431  0.0232
   67CHL1   H4A 7370   4.004   5.481  10.281  0.9783 -0.3016 -1.9305
   67CHL1   H4B 7371   3.848   5.567  10.287 -2.6511 -0.9636 -3.4598
   67CHL1    C5 7372   3.892   5.505  10.090  0.5612  0.2113 -0.2987
   67CHL1    C6 7373   3.768   5.469  10.061  0.8129  0.5338 -0.1154
   67CHL1    H6 7374   3.691   5.475  10.139  0.4774 -0.1513 -0.3880
   67CHL1    C7 7375   3.717   5.427   9.921  0.3868  0.6773  0.4269
   67CHL1   H7A 7376   3.661   5.331   9.921  1.9940 -0.3453 -3.3695
   67CHL1   H7B 7377   3.646   5.501   9.877  0.7105 -0.1527 -1.5368
   67CHL1    C8 7378   3.836   5.394   9.824 -0.4164  0.3758 -0.1334
   67CHL1    H8 7379   3.880   5.297   9.853 -0.8386 -0.3166 -1.7066
   67CHL1   C14 7380   3.786   5.391   9.686 -0.3391 -0.5468  0.2292
   67CHL1   H14 7381   3.740   5.490   9.663 -2.0626 -1.1228  1.1275
   67CHL1   C15 7382   3.670   5.301   9.648  0.0645  0.6784 -0.6143
   67CHL1  H15A 7383   3.693   5.200   9.687 -2.5646 -0.8759 -2.8847
   67CHL1  H15B 7384   3.576   5.335   9.697  0.6869  3.0906 -1.0103
   67CHL1   C16 7385   3.669   5.287   9.493 -0.0199 -0.1951  0.1832
   67CHL1  H16A 7386   3.655   5.178   9.474  1.7124 -0.5796  0.9797
   67CHL1  H16B 7387   3.576   5.344   9.472 -0.4065 -0.2758  1.6270
   67CHL1   C17 7388   3.803   5.348   9.444 -0.6435 -0.0310  0.1968
   67CHL1   H17 7389   3.777   5.453   9.416 -0.6485 -0.2852 -0.7930
   67CHL1   C13 7390   3.890   5.364   9.576 -0.3657  0.6716 -0.0621
   67CHL1   C18 7391   3.965   5.232   9.601  0.2460 -0.1659 -0.6235
   67CHL1  H18A 7392   3.890   5.151   9.616 -1.5298  0.8037 -3.7419
   67CHL1  H18B 7393   4.041   5.208   9.523  0.9104  3.2440 -1.0805
   67CHL1  H18C 7394   4.014   5.236   9.700  1.1125  1.5150 -1.1035
   67CHL1   C12 7395   3.984   5.485   9.575  0.7937  0.3215  0.4164
   67CHL1  H12A 7396   4.059   5.472   9.493 -0.4497 -2.2445 -0.3610
   67CHL1  H12B 7397   3.933   5.581   9.551  0.1745 -0.2969 -0.7563
   67CHL1   C11 7398   4.044   5.497   9.714  0.0336 -0.4254 -0.8462
   67CHL1  H11A 7399   4.128   5.429   9.738  1.1168  0.5532 -1.7776
   67CHL1  H11B 7400   4.090   5.598   9.723 -0.8800  0.0756 -1.6698
   67CHL1    C9 7401   3.941   5.502   9.834 -0.2317  0.2126 -0.2539
   67CHL1    H9 7402   3.886   5.597   9.821 -0.6372  0.0348  0.1541
   67CHL1   C10 7403   4.008   5.512   9.977 -0.4001  0.0670  0.2145
   67CHL1   C19 7404   4.099   5.394  10.007  0.5053  0.6411 -0.0024
   67CHL1  H19A 7405   4.123   5.380  10.115  3.5583  0.4251 -0.6711
   67CHL1  H19B 7406   4.057   5.297   9.971 -1.2434  2.4341 -2.9269
   67CHL1  H19C 7407   4.196   5.412   9.957 -1.2862 -0.2082 -3.9455
   67CHL1    C1 7408   4.096   5.646   9.995 -0.0615 -0.2486 -0.6671
   67CHL1   H1A 7409   4.189   5.631   9.935  0.9667  0.5091  0.7126
   67CHL1   H1B 7410   4.029   5.722   9.950  0.8777  0.7022 -0.4688
   67CHL1    C2 7411   4.129   5.692  10.141 -0.4803  0.4434  0.1459
   67CHL1   H2A 7412   4.180   5.790  10.129 -1.4345  0.7998 -1.0258
   67CHL1   H2B 7413   4.199   5.627  10.199  2.3292  1.7133 -1.7374
   67CHL1   C20 7414   3.860   5.283   9.318 -0.6535 -0.4307  0.0891
   67CHL1   H20 7415   3.872   5.176   9.343  0.1578 -0.3884 -0.1009
   67CHL1   C21 7416   4.006   5.333   9.285  0.7733  0.0529 -0.2914
   67CHL1  H21A 7417   4.084   5.309   9.360  0.1512 -0.9936  0.0380
   67CHL1  H21B 7418   4.009   5.444   9.290  0.5432  0.0498 -0.1006
   67CHL1  H21C 7419   4.040   5.296   9.186 -0.3705  1.5780 -1.2634
   67CHL1   C22 7420   3.759   5.290   9.201 -0.0726 -0.2753  0.2522
   67CHL1  H22A 7421   3.663   5.242   9.231  0.0047 -1.0567 -0.7265
   67CHL1  H22B 7422   3.740   5.398   9.179  2.8877  0.5866  1.7176
   67CHL1   C23 7423   3.798   5.212   9.078  0.3131  0.1497 -0.1435
   67CHL1  H23A 7424   3.893   5.248   9.035  0.3792  0.3224  0.1461
   67CHL1  H23B 7425   3.805   5.104   9.106 -2.4011 -0.4555 -1.5663
   67CHL1   C24 7426   3.675   5.209   8.982  0.3524 -0.5337 -0.1301
   67CHL1  H24A 7427   3.591   5.163   9.038  1.2860 -2.3541 -0.2182
   67CHL1  H24B 7428   3.662   5.311   8.939 -0.5278 -1.3234 -1.7938
   67CHL1   C25 7429   3.699   5.122   8.859 -0.0054  0.2722  0.6534
   67CHL1   H25 7430   3.760   5.033   8.884 -0.6891 -0.7211 -1.1203
   67CHL1   C26 7431   3.560   5.077   8.798  0.2200 -0.2280  0.8228
   67CHL1  H26A 7432   3.566   5.033   8.696 -0.7184 -0.2027  0.7516
   67CHL1  H26B 7433   3.511   5.002   8.864 -3.0893  0.4300 -0.7601
   67CHL1  H26C 7434   3.484   5.157   8.785  1.5084  0.6444 -1.5945
   67CHL1   C27 7435   3.774   5.189   8.746 -0.7877  0.6586 -0.0868
   67CHL1  H27A 7436   3.881   5.195   8.774 -0.9662  3.9616  0.0494
   67CHL1  H27B 7437   3.777   5.117   8.661 -1.5118  0.7112 -0.1571
   67CHL1  H27C 7438   3.729   5.281   8.704 -0.3999  0.5332 -0.7743
   68CHL1    C3 7439   1.879   6.428  10.182 -0.1650  0.2882 -0.9269
   68CHL1    H3 7440   1.984   6.405  10.154 -0.1612 -0.6571 -0.1454
   68CHL1    O3 7441   1.877   6.443  10.324  0.0513  0.1619 -0.3446
   68CHL1   H3' 7442   1.786   6.463  10.347 -0.7852 -3.2728 -0.4213
   68CHL1    C4 7443   1.829   6.554  10.115  0.2856  0.1174 -0.1111
   68CHL1   H4A 7444   1.723   6.568  10.145 -0.1288 -3.3754  0.3261
   68CHL1   H4B 7445   1.890   6.641  10.148 -0.2678  0.9102 -1.1931
   68CHL1    C5 7446   1.830   6.551   9.969  0.1421  0.2038  0.0347
   68CHL1    C6 7447   1.895   6.645   9.889  0.1645  0.9929  0.2513
   68CHL1    H6 7448   1.942   6.731   9.939 -1.3978  0.4975  2.6405
   68CHL1    C7 7449   1.891   6.642   9.738  0.4866 -0.5765  0.1116
   68CHL1   H7A 7450   1.851   6.737   9.698 -0.1246 -2.0417 -2.8782
   68CHL1   H7B 7451   1.996   6.625   9.705  0.3858  1.2532 -1.2133
   68CHL1    C8 7452   1.792   6.535   9.673  0.3268  0.1625 -0.4011
   68CHL1    H8 7453   1.686   6.566   9.664 -0.7752 -3.6987 -1.8227
   68CHL1   C14 7454   1.835   6.508   9.534 -0.8750  0.3998 -0.8305
   68CHL1   H14 7455   1.935   6.466   9.558 -0.6117  1.1836 -0.5336
   68CHL1   C15 7456   1.865   6.632   9.435 -0.0100 -0.1044 -0.3298
   68CHL1  H15A 7457   1.779   6.700   9.451  0.6891  0.5259  0.7796
   68CHL1  H15B 7458   1.964   6.666   9.471 -0.8369  0.7933  1.1188
   68CHL1   C16 7459   1.869   6.561   9.305  0.2247 -0.5094  0.8154
   68CHL1  H16A 7460   1.799   6.599   9.227  0.0679 -1.1002  0.6704
   68CHL1  H16B 7461   1.973   6.553   9.267  0.0075  0.7640 -0.1043
   68CHL1   C17 7462   1.835   6.407   9.325  0.1315 -0.0365 -0.9585
   68CHL1   H17 7463   1.933   6.358   9.342  0.3232  0.2585 -1.2085
   68CHL1   C13 7464   1.758   6.403   9.459  0.2832 -0.5197 -0.3017
   68CHL1   C18 7465   1.614   6.447   9.433  0.2411  0.8894  0.4604
   68CHL1  H18A 7466   1.571   6.467   9.533  2.0374 -1.6641  1.7842
   68CHL1  H18B 7467   1.605   6.542   9.375 -0.3620  0.2837 -0.4585
   68CHL1  H18C 7468   1.558   6.372   9.372  0.0378  0.9069  0.6255
   68CHL1   C12 7469   1.761   6.272   9.535  0.6283  0.0681 -0.2311
   68CHL1  H12A 7470   1.692   6.201   9.484  0.8196 -0.0636 -0.3075
   68CHL1  H12B 7471   1.860   6.225   9.520  0.7233  0.4950 -1.0408
   68CHL1   C11 7472   1.727   6.287   9.684 -0.7602  0.2153  0.0934
   68CHL1  H11A 7473   1.618   6.306   9.699 -0.4683 -0.0750  2.7850
   68CHL1  H11B 7474   1.753   6.188   9.725 -2.8992 -0.9265 -1.2152
   68CHL1    C9 7475   1.797   6.406   9.762  0.3708 -0.2000 -1.0066
   68CHL1    H9 7476   1.905   6.376   9.761  0.3968 -0.3796  2.0866
   68CHL1   C10 7477   1.751   6.426   9.908 -0.3004 -0.2869  0.7175
   68CHL1   C19 7478   1.592   6.447   9.918 -0.5101 -0.1029  0.1755
   68CHL1  H19A 7479   1.559   6.470  10.022 -1.1015  0.8535 -0.2197
   68CHL1  H19B 7480   1.554   6.531   9.856  2.7002  1.1278 -0.1825
   68CHL1  H19C 7481   1.531   6.357   9.896 -0.0885 -0.0612 -1.1779
   68CHL1    C1 7482   1.794   6.302   9.988  0.0182 -0.3942  0.2804
   68CHL1   H1A 7483   1.725   6.221   9.956 -2.0426  1.2152  0.5422
   68CHL1   H1B 7484   1.902   6.293   9.962  0.7016 -0.5126  2.9571
   68CHL1    C2 7485   1.795   6.312  10.141  0.0413  0.7738  1.3222
   68CHL1   H2A 7486   1.845   6.226  10.189 -0.1183  0.5827  1.1452
   68CHL1   H2B 7487   1.694   6.337  10.181  0.0465 -0.1670  1.9544
   68CHL1   C20 7488   1.777   6.342   9.201 -0.0153 -0.1532  0.9237
   68CHL1   H20 7489   1.725   6.255   9.246 -0.5028  0.4137  1.4607
   68CHL1   C21 7490   1.892   6.298   9.111 -0.0375 -0.8245  0.0552
   68CHL1  H21A 7491   1.965   6.238   9.169  0.3338  1.0645  1.5631
   68CHL1  H21B 7492   1.935   6.381   9.051 -1.4167 -2.1358 -2.8696
   68CHL1  H21C 7493   1.847   6.224   9.041 -1.7775 -0.1028  0.3747
   68CHL1   C22 7494   1.667   6.416   9.120  0.3231  0.5819 -0.3490
   68CHL1  H22A 7495   1.608   6.487   9.181  2.7508  1.8637  0.5784
   68CHL1  H22B 7496   1.712   6.476   9.038 -0.9928 -1.6024 -2.7688
   68CHL1   C23 7497   1.566   6.312   9.074  0.0944 -0.1591  0.1060
   68CHL1  H23A 7498   1.617   6.244   9.002 -3.4652 -0.6154 -2.1005
   68CHL1  H23B 7499   1.540   6.250   9.163 -4.7706 -1.0089 -1.7701
   68CHL1   C24 7500   1.457   6.366   8.989 -0.4780 -1.1625  0.3831
   68CHL1  H24A 7501   1.503   6.436   8.916  2.0586 -2.4254  0.7048
   68CHL1  H24B 7502   1.405   6.287   8.931 -1.4754  1.2121 -2.0218
   68CHL1   C25 7503   1.348   6.445   9.058 -0.8994  0.3744  0.1102
   68CHL1   H25 7504   1.403   6.518   9.121  1.6262  0.5780 -2.2391
   68CHL1   C26 7505   1.253   6.519   8.954  0.0751  0.8065 -0.4247
   68CHL1  H26A 7506   1.191   6.438   8.909 -0.6295  0.3519  1.3476
   68CHL1  H26B 7507   1.201   6.606   8.998  1.2140  0.6583  1.2418
   68CHL1  H26C 7508   1.334   6.557   8.888  0.6111  1.0350  0.3597
   68CHL1   C27 7509   1.252   6.359   9.143 -0.0855  0.0603  0.2095
   68CHL1  H27A 7510   1.205   6.279   9.082  1.0674 -0.1336 -0.4341
   68CHL1  H27B 7511   1.302   6.322   9.234  1.3268  1.5058  0.0396
   68CHL1  H27C 7512   1.164   6.418   9.178  0.5436  0.6915  0.7430
   69CHL1    C3 7513   0.812   5.030   6.800  0.3875 -0.0076 -0.4499
   69CHL1    H3 7514   0.918   5.005   6.778  0.4421  0.2254 -0.4609
   69CHL1    O3 7515   0.747   5.060   6.673 -0.5376 -0.5505  0.2584
   69CHL1   H3' 7516   0.682   5.129   6.689  0.6945  0.0993  2.6462
   69CHL1    C4 7517   0.740   4.915   6.868  0.4921 -0.1949 -0.7744
   69CHL1   H4A 7518   0.633   4.939   6.880  0.9292  1.2140  0.4680
   69CHL1   H4B 7519   0.746   4.834   6.793 -1.3166 -1.0706  0.0107
   69CHL1    C5 7520   0.810   4.889   7.007 -0.9781  0.2437 -0.3183
   69CHL1    C6 7521   0.848   4.760   7.044  0.0115 -0.0424 -0.2556
   69CHL1    H6 7522   0.836   4.687   6.962  3.6632  1.5887 -2.3768
   69CHL1    C7 7523   0.903   4.724   7.179  0.4270 -0.0070  0.6335
   69CHL1   H7A 7524   0.860   4.629   7.218  1.1429 -1.2700 -1.5590
   69CHL1   H7B 7525   1.012   4.722   7.163  0.1714 -0.8454 -1.0466
   69CHL1    C8 7526   0.881   4.832   7.279  0.0451  0.3564  0.1301
   69CHL1    H8 7527   0.774   4.825   7.308  0.2382 -1.9491  0.4300
   69CHL1   C14 7528   0.959   4.809   7.404  0.2285 -0.4074 -0.3531
   69CHL1   H14 7529   1.068   4.805   7.382  0.1344 -1.6828 -0.6089
   69CHL1   C15 7530   0.910   4.692   7.487 -0.5180  0.3063  0.6495
   69CHL1  H15A 7531   0.800   4.698   7.498 -0.3733  0.7517  1.9048
   69CHL1  H15B 7532   0.927   4.587   7.452  0.7218  0.4559  0.7560
   69CHL1   C16 7533   0.955   4.718   7.631 -0.0320 -0.5296 -0.2960
   69CHL1  H16A 7534   0.865   4.715   7.696 -1.9051 -1.8851 -2.8471
   69CHL1  H16B 7535   1.031   4.654   7.681  1.3949  1.9749  0.8421
   69CHL1   C17 7536   1.017   4.863   7.628  0.3703  0.5232  0.4657
   69CHL1   H17 7537   1.127   4.855   7.612  0.0833 -0.1976 -1.2007
   69CHL1   C13 7538   0.943   4.927   7.503 -0.1136 -0.4811 -0.1040
   69CHL1   C18 7539   0.800   4.961   7.550  0.1263  0.6906 -0.2207
   69CHL1  H18A 7540   0.750   4.872   7.591 -1.6162  0.9749 -1.7014
   69CHL1  H18B 7541   0.809   5.048   7.619  1.5340  2.1361 -2.1743
   69CHL1  H18C 7542   0.737   4.986   7.463 -0.6848 -1.2802 -0.2176
   69CHL1   C12 7543   1.007   5.052   7.442 -0.2418 -0.3831  0.3563
   69CHL1  H12A 7544   0.995   5.139   7.509 -0.8636 -0.7753  0.7644
   69CHL1  H12B 7545   1.115   5.032   7.429 -0.1549 -0.5840  1.3166
   69CHL1   C11 7546   0.941   5.089   7.307 -0.4321 -0.1974  0.3054
   69CHL1  H11A 7547   0.841   5.129   7.334 -0.5784  0.5931 -1.3524
   69CHL1  H11B 7548   1.001   5.169   7.260  1.5435 -0.8235  1.6949
   69CHL1    C9 7549   0.914   4.968   7.215 -0.0918  0.9464 -0.1487
   69CHL1    H9 7550   1.016   4.959   7.171 -0.3243  0.0196 -0.5016
   69CHL1   C10 7551   0.824   5.010   7.100  0.1345 -0.6557  1.0264
   69CHL1   C19 7552   0.682   5.047   7.150 -0.3182  0.1500  0.0283
   69CHL1  H19A 7553   0.604   5.061   7.072 -0.2025  0.3324 -0.0555
   69CHL1  H19B 7554   0.648   4.964   7.215 -1.3811  0.8390  0.3578
   69CHL1  H19C 7555   0.689   5.139   7.211 -1.8217 -0.0382  0.5141
   69CHL1    C1 7556   0.889   5.122   7.015  1.0393  0.3234  1.0869
   69CHL1   H1A 7557   0.890   5.209   7.085 -0.6525  0.3330  1.1253
   69CHL1   H1B 7558   0.993   5.090   6.993  0.5773 -1.4592  1.3777
   69CHL1    C2 7559   0.811   5.155   6.882  0.3753 -0.1346 -0.6504
   69CHL1   H2A 7560   0.858   5.243   6.833 -1.3587  1.4374  0.4121
   69CHL1   H2B 7561   0.709   5.191   6.909  0.8508 -0.5731  1.8712
   69CHL1   C20 7562   0.998   4.930   7.766 -0.0165  0.6301 -0.0281
   69CHL1   H20 7563   0.889   4.940   7.783 -0.0346  3.1682 -1.3860
   69CHL1   C21 7564   1.068   5.073   7.755  0.2850 -0.5472  0.0192
   69CHL1  H21A 7565   0.994   5.141   7.709 -0.9241 -0.3072  2.2212
   69CHL1  H21B 7566   1.160   5.056   7.695 -0.2241 -2.8029 -0.1686
   69CHL1  H21C 7567   1.108   5.105   7.854  1.5680  0.1116 -0.7109
   69CHL1   C22 7568   1.067   4.848   7.881  0.1759 -0.2998 -0.0772
   69CHL1  H22A 7569   1.040   4.740   7.870  1.0915 -0.6650  1.1094
   69CHL1  H22B 7570   1.176   4.860   7.870 -0.0682 -0.3838 -2.8721
   69CHL1   C23 7571   1.033   4.886   8.025  0.4767 -0.3443  0.0931
   69CHL1  H23A 7572   1.048   4.994   8.049  0.6924 -0.4620  0.4903
   69CHL1  H23B 7573   0.923   4.870   8.030  0.4658 -0.5470 -0.7967
   69CHL1   C24 7574   1.108   4.810   8.135  0.2166  0.1666 -0.7253
   69CHL1  H24A 7575   1.104   4.699   8.127 -0.1711 -0.0014  1.4791
   69CHL1  H24B 7576   1.214   4.840   8.134  0.3506 -0.3015 -1.0777
   69CHL1   C25 7577   1.057   4.836   8.273 -0.0811 -0.9357  0.7521
   69CHL1   H25 7578   1.068   4.946   8.289  0.8020 -1.2256  2.2337
   69CHL1   C26 7579   0.907   4.789   8.293 -0.6734 -0.2947  0.1257
   69CHL1  H26A 7580   0.866   4.826   8.389  0.8133 -0.6242  0.9014
   69CHL1  H26B 7581   0.839   4.823   8.212 -1.8149 -1.5623  0.5386
   69CHL1  H26C 7582   0.898   4.678   8.291  1.4121 -0.5013  1.0907
   69CHL1   C27 7583   1.141   4.760   8.377 -0.5648  1.0701 -0.4804
   69CHL1  H27A 7584   1.248   4.786   8.371 -0.7141  1.5179 -1.1655
   69CHL1  H27B 7585   1.105   4.801   8.474  0.1102  0.3040  0.0990
   69CHL1  H27C 7586   1.131   4.650   8.362 -3.6168  0.9824  1.5324
   70CHL1    C3 7587   6.633   2.156   6.990 -0.6219  0.2943 -0.0188
   70CHL1    H3 7588   6.608   2.259   7.022 -2.1512  0.1006 -0.5182
   70CHL1    O3 7589   6.690   2.169   6.857  0.8451  0.4052  0.0307
   70CHL1   H3' 7590   6.738   2.088   6.837 -1.4279 -1.3834  1.4428
   70CHL1    C4 7591   6.738   2.091   7.083 -0.0641  1.0670  0.4516
   70CHL1   H4A 7592   6.781   2.001   7.036 -1.5577  1.1736 -1.1826
   70CHL1   H4B 7593   6.829   2.155   7.074 -0.6678  1.5003 -3.6596
   70CHL1    C5 7594   6.687   2.064   7.225 -0.1387  0.9958 -0.5826
   70CHL1    C6 7595   6.750   2.095   7.337 -0.5632 -0.4872  0.0676
   70CHL1    H6 7596   6.849   2.142   7.329 -0.4991 -0.6689 -0.1726
   70CHL1    C7 7597   6.709   2.055   7.477 -0.2091 -0.0289  0.2526
   70CHL1   H7A 7598   6.794   2.001   7.523  1.5250  1.7822 -0.7213
   70CHL1   H7B 7599   6.673   2.138   7.541 -2.7472 -1.4512  0.7063
   70CHL1    C8 7600   6.584   1.953   7.471  0.0553 -0.4847 -0.5787
   70CHL1    H8 7601   6.632   1.854   7.453  1.2311 -0.4804  2.2671
   70CHL1   C14 7602   6.520   1.935   7.617 -0.2554  0.2077 -0.2503
   70CHL1   H14 7603   6.478   2.036   7.633 -1.1647 -0.3315  0.8203
   70CHL1   C15 7604   6.607   1.906   7.736  0.0506 -0.8481 -0.4172
   70CHL1  H15A 7605   6.679   1.824   7.717  0.2733 -0.6303 -0.5199
   70CHL1  H15B 7606   6.679   1.988   7.757 -1.0901 -0.6438  3.1262
   70CHL1   C16 7607   6.517   1.865   7.848 -0.2419 -0.0738 -0.1625
   70CHL1  H16A 7608   6.555   1.766   7.884 -1.9626 -0.5911  0.2464
   70CHL1  H16B 7609   6.518   1.941   7.929 -2.2548  1.3239 -1.4045
   70CHL1   C17 7610   6.377   1.863   7.786  0.2700  0.2500 -0.3877
   70CHL1   H17 7611   6.319   1.957   7.801  1.3225  0.8955 -0.3517
   70CHL1   C13 7612   6.396   1.843   7.634 -0.8431 -0.1216  0.5553
   70CHL1   C18 7613   6.435   1.699   7.605 -0.0129  0.0106 -0.0826
   70CHL1  H18A 7614   6.513   1.656   7.672  0.8305  2.8052  0.8048
   70CHL1  H18B 7615   6.349   1.629   7.595 -0.9288  1.3041 -1.3552
   70CHL1  H18C 7616   6.492   1.687   7.510  1.9796  1.0028  0.9611
   70CHL1   C12 7617   6.292   1.890   7.528  0.1059  0.0476  0.7244
   70CHL1  H12A 7618   6.212   1.813   7.522  0.8124 -0.9344  3.2218
   70CHL1  H12B 7619   6.260   1.992   7.558 -0.0598  0.0699  0.4736
   70CHL1   C11 7620   6.352   1.904   7.380  0.3537 -0.9598  0.1457
   70CHL1  H11A 7621   6.372   1.802   7.340 -0.5925 -2.0635  2.4307
   70CHL1  H11B 7622   6.274   1.955   7.319  0.4717  1.6361  2.0711
   70CHL1    C9 7623   6.482   1.990   7.373  0.0335  0.5281  0.5501
   70CHL1    H9 7624   6.444   2.090   7.403  0.0212 -0.2415  3.2263
   70CHL1   C10 7625   6.541   1.994   7.229 -0.6107 -0.4910 -0.5566
   70CHL1   C19 7626   6.563   1.857   7.172 -1.0208 -0.1312 -0.1032
   70CHL1  H19A 7627   6.620   1.868   7.077  0.3756  0.7182  0.8124
   70CHL1  H19B 7628   6.609   1.793   7.250 -1.5722  0.0902  0.4152
   70CHL1  H19C 7629   6.462   1.819   7.144 -1.9219  0.7896  1.7905
   70CHL1    C1 7630   6.444   2.077   7.137 -0.3552  0.8148 -0.1843
   70CHL1   H1A 7631   6.347   2.024   7.140  0.0096  0.2031  0.9925
   70CHL1   H1B 7632   6.447   2.179   7.180  2.1294 -0.4160  2.7504
   70CHL1    C2 7633   6.499   2.087   6.992  0.8209  0.7701  0.1043
   70CHL1   H2A 7634   6.423   2.136   6.927  1.8002  1.0817 -0.8115
   70CHL1   H2B 7635   6.502   1.983   6.953  1.8549  0.4173  1.1142
   70CHL1   C20 7636   6.283   1.758   7.856  0.4421  0.6117 -0.0508
   70CHL1   H20 7637   6.327   1.659   7.830 -2.5680 -0.3354 -1.7299
   70CHL1   C21 7638   6.145   1.767   7.802  0.3243  0.5196  0.5377
   70CHL1  H21A 7639   6.137   1.715   7.704 -0.9408 -0.0615  0.9295
   70CHL1  H21B 7640   6.106   1.870   7.793  1.1570  0.8816  1.0862
   70CHL1  H21C 7641   6.071   1.708   7.861  1.8798 -1.1310  0.8873
   70CHL1   C22 7642   6.286   1.777   8.008  0.2098  0.2943 -0.0885
   70CHL1  H22A 7643   6.390   1.785   8.046  0.4792 -3.3942  0.2118
   70CHL1  H22B 7644   6.217   1.858   8.038  0.5650  0.2585  0.8491
   70CHL1   C23 7645   6.231   1.654   8.077  0.0572  0.3593 -0.4764
   70CHL1  H23A 7646   6.123   1.645   8.055 -0.9027  1.9038  3.2219
   70CHL1  H23B 7647   6.283   1.560   8.048  0.6103  0.2747  0.7501
   70CHL1   C24 7648   6.236   1.665   8.228  0.1039 -0.1255 -0.1809
   70CHL1  H24A 7649   6.342   1.657   8.261  1.1830 -0.3166 -3.5084
   70CHL1  H24B 7650   6.183   1.757   8.260  0.6675  0.1462 -0.0328
   70CHL1   C25 7651   6.149   1.550   8.288 -0.3399  0.5930  0.2062
   70CHL1   H25 7652   6.171   1.467   8.217  0.6409  1.6052 -0.6967
   70CHL1   C26 7653   6.190   1.502   8.422 -1.0073 -0.2591  0.3318
   70CHL1  H26A 7654   6.301   1.496   8.424 -1.0340 -0.9261 -0.0188
   70CHL1  H26B 7655   6.164   1.578   8.498  0.9233  1.9772 -1.1969
   70CHL1  H26C 7656   6.160   1.401   8.457 -0.4428 -0.7035 -0.4424
   70CHL1   C27 7657   6.000   1.582   8.299 -0.1177  0.4731  0.1909
   70CHL1  H27A 7658   5.967   1.625   8.202 -0.5358 -1.9565 -0.7757
   70CHL1  H27B 7659   5.943   1.489   8.317  1.0298 -0.0306  1.3250
   70CHL1  H27C 7660   5.980   1.655   8.381 -0.8594  1.7869 -1.1282
   71CHL1    C3 7661   6.332   4.189   6.745 -0.6523 -0.1349  0.3010
   71CHL1    H3 7662   6.237   4.132   6.750 -1.7716  1.8575  3.4949
   71CHL1    O3 7663   6.373   4.191   6.605  0.4910  0.2915  0.7168
   71CHL1   H3' 7664   6.455   4.241   6.611  1.8041 -1.5951 -0.6297
   71CHL1    C4 7665   6.319   4.334   6.799  0.3227  0.6868  0.5391
   71CHL1   H4A 7666   6.410   4.392   6.777  2.2076 -1.5498  2.2127
   71CHL1   H4B 7667   6.239   4.380   6.737 -0.0386 -0.2591  0.2891
   71CHL1    C5 7668   6.280   4.325   6.946  0.3230  0.1235  0.3169
   71CHL1    C6 7669   6.174   4.388   6.993  0.0637  0.3112  0.2591
   71CHL1    H6 7670   6.121   4.453   6.921 -0.2594  0.7929  0.9204
   71CHL1    C7 7671   6.130   4.382   7.138 -0.0400 -0.4727  0.2828
   71CHL1   H7A 7672   6.070   4.471   7.167 -0.4732  0.0409 -2.1166
   71CHL1   H7B 7673   6.055   4.301   7.150  0.2040 -0.7701 -0.2021
   71CHL1    C8 7674   6.243   4.338   7.228  0.4787 -0.2856 -0.0636
   71CHL1    H8 7675   6.314   4.422   7.237 -0.3524  0.3101  1.0846
   71CHL1   C14 7676   6.187   4.305   7.369 -1.1114  0.1183 -0.0568
   71CHL1   H14 7677   6.111   4.226   7.354 -0.8589  0.1656 -1.7737
   71CHL1   C15 7678   6.102   4.405   7.444 -0.0312 -0.2812  0.0919
   71CHL1  H15A 7679   6.163   4.498   7.442  0.0984 -0.3865 -1.7203
   71CHL1  H15B 7680   6.007   4.429   7.393  0.3634  2.0571  0.4029
   71CHL1   C16 7681   6.101   4.348   7.589 -0.5324  0.6104  0.2610
   71CHL1  H16A 7682   6.114   4.422   7.671 -0.0697  0.0531  0.6881
   71CHL1  H16B 7683   6.000   4.303   7.602 -0.1182 -0.3193  0.2810
   71CHL1   C17 7684   6.200   4.234   7.597 -0.2939 -0.4653  0.0481
   71CHL1   H17 7685   6.139   4.141   7.590 -0.2728 -0.5976  1.4868
   71CHL1   C13 7686   6.289   4.262   7.468 -0.2492  0.0718 -0.2842
   71CHL1   C18 7687   6.393   4.374   7.500  1.1588 -0.3884 -0.4902
   71CHL1  H18A 7688   6.451   4.402   7.409  1.6723  2.4447  0.6397
   71CHL1  H18B 7689   6.346   4.465   7.545 -3.8172 -2.2672 -1.5585
   71CHL1  H18C 7690   6.465   4.338   7.576 -1.3196 -0.0916  2.0730
   71CHL1   C12 7691   6.366   4.137   7.411  0.0694  0.0664  0.8281
   71CHL1  H12A 7692   6.441   4.115   7.490 -1.3813 -1.5610  1.7955
   71CHL1  H12B 7693   6.290   4.059   7.429 -1.0412  1.1104  0.6989
   71CHL1   C11 7694   6.422   4.165   7.270 -0.5474 -0.2350  0.6516
   71CHL1  H11A 7695   6.501   4.242   7.284 -1.4964  0.1938  3.9304
   71CHL1  H11B 7696   6.478   4.078   7.229 -1.4843  0.0765 -1.3697
   71CHL1    C9 7697   6.316   4.217   7.173  0.4505  0.3228  0.5737
   71CHL1    H9 7698   6.238   4.138   7.169 -1.3402  2.0897 -0.6403
   71CHL1   C10 7699   6.375   4.247   7.035 -0.0179  0.4797 -0.2630
   71CHL1   C19 7700   6.505   4.325   7.056  0.0753 -0.2840  0.3922
   71CHL1  H19A 7701   6.530   4.367   6.956  0.2158  0.4968  0.7531
   71CHL1  H19B 7702   6.485   4.413   7.120 -2.9388 -0.7544  0.1503
   71CHL1  H19C 7703   6.587   4.259   7.091 -1.6139 -2.2243  0.7754
   71CHL1    C1 7704   6.397   4.110   6.973 -0.3328  0.3440  0.5689
   71CHL1   H1A 7705   6.479   4.059   7.028 -2.1887 -0.3413  2.7581
   71CHL1   H1B 7706   6.312   4.039   6.983  0.6220 -0.6679  1.6663
   71CHL1    C2 7707   6.444   4.114   6.819  0.5444 -0.3653  0.3144
   71CHL1   H2A 7708   6.437   4.007   6.788  3.1693  0.0925 -1.9567
   71CHL1   H2B 7709   6.544   4.160   6.813 -0.6013  2.2297  0.3579
   71CHL1   C20 7710   6.267   4.221   7.740 -0.4458 -0.2560  0.1177
   71CHL1   H20 7711   6.328   4.313   7.748 -0.4846 -0.2152 -0.0471
   71CHL1   C21 7712   6.353   4.088   7.745  0.4492 -0.4614 -0.0277
   71CHL1  H21A 7713   6.283   4.004   7.725 -0.0051 -0.3741  1.1447
   71CHL1  H21B 7714   6.399   4.078   7.846  1.0020  0.8278 -0.1382
   71CHL1  H21C 7715   6.441   4.084   7.677 -1.1016 -2.1472 -1.9843
   71CHL1   C22 7716   6.165   4.210   7.850  0.1956 -0.3876  0.4003
   71CHL1  H22A 7717   6.079   4.279   7.837 -0.7184 -1.3339  1.4286
   71CHL1  H22B 7718   6.112   4.113   7.861 -0.1515 -0.1968  0.4111
   71CHL1   C23 7719   6.225   4.248   7.983  0.1192 -0.0241 -0.4086
   71CHL1  H23A 7720   6.320   4.199   8.012  1.1026  1.8907 -0.3372
   71CHL1  H23B 7721   6.253   4.356   7.980  0.6116 -0.1487 -0.3564
   71CHL1   C24 7722   6.122   4.269   8.094 -0.0904 -0.5756 -1.1233
   71CHL1  H24A 7723   6.042   4.336   8.057 -1.6731 -2.3684 -1.0297
   71CHL1  H24B 7724   6.065   4.175   8.114  1.9484 -1.2829  1.7743
   71CHL1   C25 7725   6.192   4.304   8.228  0.3498  0.3551 -0.0264
   71CHL1   H25 7726   6.253   4.215   8.253 -0.2351  0.1468  0.6840
   71CHL1   C26 7727   6.286   4.423   8.227  0.1923  0.2839  0.4536
   71CHL1  H26A 7728   6.320   4.440   8.331  0.9450  0.3427  0.2000
   71CHL1  H26B 7729   6.369   4.410   8.155 -0.1942  1.8929 -0.3284
   71CHL1  H26C 7730   6.232   4.518   8.203 -0.5671 -0.3969 -0.5606
   71CHL1   C27 7731   6.095   4.311   8.347  0.2152 -0.2992 -0.0154
   71CHL1  H27A 7732   6.010   4.243   8.326 -0.9816  0.7144  1.4302
   71CHL1  H27B 7733   6.143   4.283   8.443  1.1996 -0.7470 -0.6333
   71CHL1  H27C 7734   6.053   4.414   8.358  1.4451  0.2103 -0.0728
   72CHL1    C3 7735   6.695   2.620   7.197  0.6120 -0.1256 -1.0000
   72CHL1    H3 7736   6.779   2.547   7.198  1.7986  1.1652  3.6056
   72CHL1    O3 7737   6.641   2.643   7.065  0.3116 -0.2295 -0.1334
   72CHL1   H3' 7738   6.576   2.576   7.044  1.5187 -1.4306 -0.1352
   72CHL1    C4 7739   6.575   2.560   7.278 -0.1938 -0.2317  0.1249
   72CHL1   H4A 7740   6.496   2.638   7.273 -0.3198 -0.3524  0.2526
   72CHL1   H4B 7741   6.534   2.475   7.220 -2.3518  0.5884  0.3934
   72CHL1    C5 7742   6.611   2.539   7.429  0.5373 -0.1348 -0.6128
   72CHL1    C6 7743   6.599   2.421   7.492  0.2959 -0.2421 -0.3416
   72CHL1    H6 7744   6.571   2.339   7.423  1.9899  0.5506 -2.0180
   72CHL1    C7 7745   6.637   2.386   7.630 -0.3024 -0.2452 -0.7490
   72CHL1   H7A 7746   6.561   2.320   7.678  1.0273 -1.2304  0.0227
   72CHL1   H7B 7747   6.735   2.336   7.637 -0.2940 -0.3243 -1.4785
   72CHL1    C8 7748   6.657   2.519   7.714  0.6055 -0.0445  0.2913
   72CHL1    H8 7749   6.557   2.549   7.751 -0.0231 -2.0164  0.2253
   72CHL1   C14 7750   6.735   2.489   7.842  0.0365  0.1107  0.4817
   72CHL1   H14 7751   6.825   2.433   7.809  0.4679 -0.0721  1.9449
   72CHL1   C15 7752   6.685   2.383   7.938 -0.0201  0.0249 -0.4714
   72CHL1  H15A 7753   6.578   2.402   7.959 -0.1864 -0.9641 -0.3983
   72CHL1  H15B 7754   6.692   2.277   7.905 -0.1566 -0.0383 -0.2943
   72CHL1   C16 7755   6.765   2.416   8.066  0.4379  0.4974  0.3730
   72CHL1  H16A 7756   6.697   2.407   8.154 -0.6319 -1.3888 -0.5989
   72CHL1  H16B 7757   6.837   2.332   8.070 -1.0623 -0.7712  1.3454
   72CHL1   C17 7758   6.830   2.553   8.055 -0.5423 -0.3728  0.1252
   72CHL1   H17 7759   6.934   2.540   8.020 -1.2147 -0.7944 -1.7896
   72CHL1   C13 7760   6.764   2.613   7.931 -0.2421 -0.0040  0.7825
   72CHL1   C18 7761   6.626   2.670   7.972 -0.0344  0.5609  0.2129
   72CHL1  H18A 7762   6.569   2.701   7.882 -0.4808 -0.4138  0.1528
   72CHL1  H18B 7763   6.564   2.603   8.035 -1.1625  2.6192  1.3759
   72CHL1  H18C 7764   6.651   2.763   8.027  0.9616  0.5482 -0.2184
   72CHL1   C12 7765   6.845   2.719   7.856 -0.0635  0.3114 -0.2189
   72CHL1  H12A 7766   6.848   2.813   7.916 -0.8522  0.4002 -0.3107
   72CHL1  H12B 7767   6.948   2.677   7.853 -0.1661 -0.3489  2.9422
   72CHL1   C11 7768   6.785   2.753   7.715  0.3966 -0.1470  0.0636
   72CHL1  H11A 7769   6.693   2.814   7.728  0.3122 -0.0483 -0.9714
   72CHL1  H11B 7770   6.861   2.817   7.666  0.1907  1.8319  2.2030
   72CHL1    C9 7771   6.740   2.623   7.628 -0.0376 -0.3376 -0.4956
   72CHL1    H9 7772   6.830   2.563   7.603 -0.2962 -0.9853  0.1067
   72CHL1   C10 7773   6.660   2.666   7.493 -0.7727  0.0937 -0.8864
   72CHL1   C19 7774   6.541   2.763   7.521 -0.0555 -0.1835 -0.4213
   72CHL1  H19A 7775   6.496   2.795   7.425 -0.4393  0.3725 -0.0648
   72CHL1  H19B 7776   6.470   2.702   7.580  0.6805 -2.6894 -2.0529
   72CHL1  H19C 7777   6.560   2.859   7.574 -2.4100 -0.9202  1.8529
   72CHL1    C1 7778   6.774   2.733   7.412  0.4636  0.3367 -0.1046
   72CHL1   H1A 7779   6.784   2.839   7.445  0.3389  0.0300  0.9215
   72CHL1   H1B 7780   6.877   2.695   7.428  0.3315  0.5524  1.3324
   72CHL1    C2 7781   6.741   2.748   7.261 -0.2690 -0.2030  0.1006
   72CHL1   H2A 7782   6.835   2.780   7.212 -1.6096 -0.7578 -2.9456
   72CHL1   H2B 7783   6.653   2.812   7.238 -0.4175 -0.0954  0.9606
   72CHL1   C20 7784   6.833   2.630   8.190  0.0311 -0.0688  0.0667
   72CHL1   H20 7785   6.733   2.659   8.228  0.1745  2.7062 -1.5468
   72CHL1   C21 7786   6.913   2.767   8.168  0.2178 -0.5278  0.0203
   72CHL1  H21A 7787   6.939   2.802   8.271 -2.6078  1.1812  0.2176
   72CHL1  H21B 7788   6.839   2.838   8.124  0.3500  0.3342  1.1662
   72CHL1  H21C 7789   6.998   2.757   8.099 -0.2705 -0.4459 -0.5937
   72CHL1   C22 7790   6.900   2.552   8.308  0.1416  0.5383  0.3133
   72CHL1  H22A 7791   6.893   2.605   8.405 -2.2648  0.5772  0.1339
   72CHL1  H22B 7792   6.845   2.457   8.314 -3.0166  2.0729 -2.5491
   72CHL1   C23 7793   7.049   2.514   8.279  0.3893 -0.4052  0.1222
   72CHL1  H23A 7794   7.055   2.463   8.181 -0.4422 -0.0561 -0.1158
   72CHL1  H23B 7795   7.112   2.604   8.266  0.1083 -0.2947 -0.4727
   72CHL1   C24 7796   7.113   2.442   8.392  0.6233  0.4491 -0.1760
   72CHL1  H24A 7797   7.222   2.452   8.370  0.5901 -0.8323 -1.0224
   72CHL1  H24B 7798   7.084   2.495   8.485 -1.3866  1.7663 -1.5325
   72CHL1   C25 7799   7.078   2.292   8.407 -0.0346  0.2704  0.3337
   72CHL1   H25 7800   6.967   2.279   8.411 -0.0432 -0.0047 -0.6886
   72CHL1   C26 7801   7.124   2.228   8.279  0.2494  0.2425 -0.2826
   72CHL1  H26A 7802   7.056   2.254   8.195  0.4490 -0.7919 -0.7736
   72CHL1  H26B 7803   7.217   2.278   8.245  1.6660 -2.2252 -0.1570
   72CHL1  H26C 7804   7.140   2.118   8.287 -2.1726  0.0409  2.6219
   72CHL1   C27 7805   7.153   2.236   8.529 -0.4225 -0.4613  0.0640
   72CHL1  H27A 7806   7.262   2.235   8.505 -0.4306 -1.5460  0.0436
   72CHL1  H27B 7807   7.120   2.297   8.615  1.5626  1.4464 -0.4893
   72CHL1  H27C 7808   7.121   2.132   8.552  0.6553 -0.7713  0.1832
   73CHL1    C3 7809   6.354   5.867   6.975 -0.5835 -0.4086 -1.1611
   73CHL1    H3 7810   6.457   5.907   6.969 -0.0590 -1.1073  2.2828
   73CHL1    O3 7811   6.306   5.892   6.843 -0.2216  0.4307 -0.0125
   73CHL1   H3' 7812   6.215   5.861   6.838 -0.4776  1.5691 -3.2157
   73CHL1    C4 7813   6.333   5.719   7.010 -0.1011 -0.5797  0.7645
   73CHL1   H4A 7814   6.223   5.704   7.000 -0.0230 -0.9452  0.4757
   73CHL1   H4B 7815   6.392   5.665   6.934  0.0922 -0.1613  0.6151
   73CHL1    C5 7816   6.387   5.687   7.151  0.2007  0.0106 -0.9433
   73CHL1    C6 7817   6.470   5.589   7.184 -0.7636 -0.0266  0.2825
   73CHL1    H6 7818   6.498   5.516   7.107  0.1332 -0.4118  0.9739
   73CHL1    C7 7819   6.517   5.554   7.321 -1.1707  0.5759 -0.5191
   73CHL1   H7A 7820   6.511   5.443   7.330  0.4532  0.5099 -0.1892
   73CHL1   H7B 7821   6.624   5.579   7.337 -1.4658  1.0545  0.8029
   73CHL1    C8 7822   6.432   5.616   7.427 -0.3193 -0.7163  0.4474
   73CHL1    H8 7823   6.333   5.566   7.420 -1.3260  1.5778 -3.2547
   73CHL1   C14 7824   6.486   5.602   7.570  0.5700 -0.0893  0.4047
   73CHL1   H14 7825   6.575   5.667   7.556 -0.6201  1.2667 -1.0501
   73CHL1   C15 7826   6.537   5.465   7.622 -0.4540  0.2442 -0.0334
   73CHL1  H15A 7827   6.457   5.390   7.604  0.6080 -0.7453 -0.7513
   73CHL1  H15B 7828   6.611   5.427   7.548 -2.4343  0.3382 -2.0885
   73CHL1   C16 7829   6.576   5.493   7.761 -0.3016 -0.4152  0.3499
   73CHL1  H16A 7830   6.536   5.408   7.820 -2.3435 -1.1863 -2.0357
   73CHL1  H16B 7831   6.686   5.491   7.776 -0.1192  1.1958 -0.6044
   73CHL1   C17 7832   6.514   5.634   7.807 -0.4167  0.4594  0.2591
   73CHL1   H17 7833   6.592   5.710   7.789 -1.0288  0.9267 -0.4474
   73CHL1   C13 7834   6.420   5.671   7.687  0.3559  0.7111 -0.4703
   73CHL1   C18 7835   6.289   5.606   7.720  0.8782 -0.4367  0.1385
   73CHL1  H18A 7836   6.295   5.499   7.748  0.5054 -0.3959  0.3739
   73CHL1  H18B 7837   6.237   5.646   7.810  0.9270  0.9125 -0.4246
   73CHL1  H18C 7838   6.219   5.593   7.635 -0.3288 -1.2839  1.2504
   73CHL1   C12 7839   6.401   5.818   7.651 -0.3121  0.0733 -0.0292
   73CHL1  H12A 7840   6.343   5.874   7.728 -0.1245  0.7585 -0.3805
   73CHL1  H12B 7841   6.501   5.865   7.653  0.1621 -0.9065 -0.2860
   73CHL1   C11 7842   6.329   5.831   7.519  0.0902 -0.1183 -0.1931
   73CHL1  H11A 7843   6.225   5.795   7.530 -0.9218  2.6058 -0.5022
   73CHL1  H11B 7844   6.305   5.936   7.492 -2.3277 -0.7622 -0.6300
   73CHL1    C9 7845   6.401   5.760   7.400  0.6117 -0.5967 -0.4268
   73CHL1    H9 7846   6.499   5.812   7.387  1.4428 -1.6202  1.5299
   73CHL1   C10 7847   6.328   5.782   7.266 -0.5788 -0.3929  0.1344
   73CHL1   C19 7848   6.178   5.740   7.289 -0.2439  0.4256  0.2126
   73CHL1  H19A 7849   6.115   5.752   7.198  0.8472  0.4247 -0.5518
   73CHL1  H19B 7850   6.175   5.634   7.322  1.3287  0.8829  1.8859
   73CHL1  H19C 7851   6.124   5.799   7.366 -0.5033  0.8150 -0.2660
   73CHL1    C1 7852   6.339   5.931   7.217  0.3787  0.0885  0.4408
   73CHL1   H1A 7853   6.296   5.999   7.294 -0.1310  2.6012 -1.9740
   73CHL1   H1B 7854   6.446   5.958   7.208  0.7656 -1.8933 -1.2197
   73CHL1    C2 7855   6.279   5.951   7.074  0.0181 -0.9703 -0.1356
   73CHL1   H2A 7856   6.282   6.061   7.057  2.5372 -0.6209  2.2595
   73CHL1   H2B 7857   6.172   5.922   7.077 -0.2328 -0.1553 -0.9009
   73CHL1   C20 7858   6.463   5.631   7.953 -0.4535 -0.0005  0.0267
   73CHL1   H20 7859   6.369   5.573   7.956 -0.8113  0.6135  0.9722
   73CHL1   C21 7860   6.421   5.769   8.002  0.4072  0.1410 -0.3908
   73CHL1  H21A 7861   6.330   5.795   7.944  0.1102  3.3127  1.3844
   73CHL1  H21B 7862   6.501   5.846   7.989  1.5068 -0.7197  1.0816
   73CHL1  H21C 7863   6.401   5.765   8.111  0.3313  0.9693 -0.3725
   73CHL1   C22 7864   6.577   5.580   8.045 -0.2941 -0.1769 -0.1935
   73CHL1  H22A 7865   6.618   5.485   8.003  1.1853 -0.0059  0.8273
   73CHL1  H22B 7866   6.655   5.659   8.044 -0.1068 -0.3530 -2.1756
   73CHL1   C23 7867   6.527   5.544   8.185  0.2352  0.0744  0.1945
   73CHL1  H23A 7868   6.519   5.634   8.250  1.1158 -0.1146  0.5590
   73CHL1  H23B 7869   6.427   5.495   8.181  1.7143 -3.0249 -0.3801
   73CHL1   C24 7870   6.618   5.440   8.258 -0.0850  0.5145  0.1923
   73CHL1  H24A 7871   6.567   5.426   8.356  1.8515 -1.2614  0.9895
   73CHL1  H24B 7872   6.609   5.340   8.212  1.2360  0.3066  0.3835
   73CHL1   C25 7873   6.761   5.480   8.290  0.3426  0.5932 -0.3279
   73CHL1   H25 7874   6.816   5.497   8.195 -1.3713 -0.4332 -1.5361
   73CHL1   C26 7875   6.769   5.614   8.375 -0.5210 -0.2596 -0.0145
   73CHL1  H26A 7876   6.874   5.651   8.377 -1.0247  1.1009  1.4453
   73CHL1  H26B 7877   6.714   5.693   8.320  2.1630  0.2912 -2.0563
   73CHL1  H26C 7878   6.730   5.607   8.478  1.6749 -0.8948  0.8057
   73CHL1   C27 7879   6.824   5.368   8.371 -0.6181  0.3176  0.7277
   73CHL1  H27A 7880   6.787   5.361   8.476  2.2465 -0.8985  1.6935
   73CHL1  H27B 7881   6.804   5.272   8.320 -1.7608  0.9525 -0.0563
   73CHL1  H27C 7882   6.934   5.384   8.377 -0.5676  0.4387 -0.4197
   74CHL1    C3 7883   5.675   4.529   6.768 -0.1116 -0.5283 -0.3150
   74CHL1    H3 7884   5.716   4.618   6.819 -0.4999 -0.3244 -0.3554
   74CHL1    O3 7885   5.698   4.533   6.632 -0.9419 -0.1087 -0.3024
   74CHL1   H3' 7886   5.759   4.463   6.611 -0.7535 -0.2228  0.6002
   74CHL1    C4 7887   5.729   4.394   6.825 -0.7250 -0.1548 -0.1381
   74CHL1   H4A 7888   5.692   4.312   6.760 -0.3400 -2.1480  2.0798
   74CHL1   H4B 7889   5.838   4.409   6.813 -0.7476 -0.2795 -0.4941
   74CHL1    C5 7890   5.705   4.370   6.975 -0.5856 -0.8507  0.1263
   74CHL1    C6 7891   5.801   4.343   7.065  0.4216  1.0494 -0.0367
   74CHL1    H6 7892   5.898   4.321   7.017  0.8998  3.0000 -0.0199
   74CHL1    C7 7893   5.781   4.316   7.209  0.3896 -0.3349  0.1210
   74CHL1   H7A 7894   5.829   4.223   7.246  0.0723  0.3989  2.4543
   74CHL1   H7B 7895   5.841   4.390   7.266 -0.5572 -0.8816  1.8789
   74CHL1    C8 7896   5.629   4.312   7.251 -0.2636  0.9759 -0.0431
   74CHL1    H8 7897   5.589   4.211   7.230  1.4012  0.5579 -1.3519
   74CHL1   C14 7898   5.615   4.333   7.399 -0.1970 -0.4521 -0.6595
   74CHL1   H14 7899   5.656   4.434   7.417 -1.6688  0.4869 -2.4493
   74CHL1   C15 7900   5.708   4.239   7.481  0.5749  0.5010 -0.1567
   74CHL1  H15A 7901   5.696   4.136   7.443 -1.4726  0.7514 -0.2380
   74CHL1  H15B 7902   5.813   4.268   7.458  0.5422 -0.2264 -1.2749
   74CHL1   C16 7903   5.658   4.274   7.624  0.6317 -0.3923  0.5185
   74CHL1  H16A 7904   5.634   4.184   7.685 -0.8993 -0.3484  0.0107
   74CHL1  H16B 7905   5.737   4.327   7.682 -0.2757 -0.4522  1.8246
   74CHL1   C17 7906   5.521   4.351   7.597 -0.1296 -0.3110 -0.4553
   74CHL1   H17 7907   5.539   4.461   7.600 -0.4917 -0.2611 -0.1571
   74CHL1   C13 7908   5.472   4.327   7.455 -0.1855  0.3677 -1.3333
   74CHL1   C18 7909   5.415   4.183   7.449 -0.2672  0.0364  0.3454
   74CHL1  H18A 7910   5.310   4.190   7.484 -0.7321 -1.5810 -0.6844
   74CHL1  H18B 7911   5.421   4.147   7.344  1.6399 -0.4607  0.6121
   74CHL1  H18C 7912   5.466   4.109   7.513 -3.9199 -2.2946  0.7062
   74CHL1   C12 7913   5.399   4.431   7.375  0.4223  0.1106  0.2949
   74CHL1  H12A 7914   5.293   4.420   7.404  0.7074  0.9390  1.6574
   74CHL1  H12B 7915   5.437   4.535   7.389  0.6612  0.2026 -0.8898
   74CHL1   C11 7916   5.398   4.402   7.224  0.3881  0.2753  0.2376
   74CHL1  H11A 7917   5.359   4.300   7.200 -0.7086  0.4514  1.1596
   74CHL1  H11B 7918   5.332   4.475   7.172 -0.3870  0.3516  1.3018
   74CHL1    C9 7919   5.539   4.407   7.169 -0.5139  1.5348  0.6105
   74CHL1    H9 7920   5.589   4.504   7.189 -0.6208  1.3362  1.9319
   74CHL1   C10 7921   5.555   4.390   7.010 -0.4521 -0.0182 -0.4976
   74CHL1   C19 7922   5.478   4.256   6.965 -0.5471 -0.0461 -0.2621
   74CHL1  H19A 7923   5.367   4.269   6.970 -0.6073 -0.8918  0.6620
   74CHL1  H19B 7924   5.497   4.236   6.858 -1.6188 -0.1452 -0.4453
   74CHL1  H19C 7925   5.499   4.171   7.033  2.7133  0.2100 -0.9029
   74CHL1    C1 7926   5.492   4.507   6.937  0.6712 -0.0243 -0.4215
   74CHL1   H1A 7927   5.381   4.498   6.938  0.6539  0.3180  1.2297
   74CHL1   H1B 7928   5.519   4.600   6.991  0.6291  0.3076 -0.9638
   74CHL1    C2 7929   5.528   4.539   6.794  0.2161  0.4035 -0.1022
   74CHL1   H2A 7930   5.486   4.639   6.771 -2.7056 -0.4814  1.2505
   74CHL1   H2B 7931   5.493   4.454   6.733  2.5733 -0.8309  0.1880
   74CHL1   C20 7932   5.419   4.316   7.711 -0.1859 -0.0669 -0.3579
   74CHL1   H20 7933   5.414   4.205   7.713  3.9967 -0.3174  1.3807
   74CHL1   C21 7934   5.287   4.393   7.675 -0.5777  0.5220  0.0048
   74CHL1  H21A 7935   5.229   4.344   7.594 -1.7716 -1.0890  1.7792
   74CHL1  H21B 7936   5.296   4.499   7.642 -1.8297  1.4896  2.5719
   74CHL1  H21C 7937   5.216   4.392   7.761 -0.7516 -1.0681 -0.1585
   74CHL1   C22 7938   5.475   4.359   7.846 -0.2611 -0.6892  0.6503
   74CHL1  H22A 7939   5.583   4.343   7.866  0.0466 -0.8563 -1.0940
   74CHL1  H22B 7940   5.454   4.468   7.861 -1.4576 -1.0441  1.6225
   74CHL1   C23 7941   5.402   4.290   7.962 -0.2060 -0.1555  0.5053
   74CHL1  H23A 7942   5.302   4.277   7.916 -0.3771  2.4286  0.0881
   74CHL1  H23B 7943   5.443   4.188   7.981 -0.4140 -0.1563  0.9592
   74CHL1   C24 7944   5.401   4.365   8.095 -0.2935  0.1334 -0.4141
   74CHL1  H24A 7945   5.501   4.352   8.142 -0.7818  0.0646  0.6321
   74CHL1  H24B 7946   5.378   4.472   8.078 -0.1595  0.0442 -1.1569
   74CHL1   C25 7947   5.293   4.316   8.192  0.0951  0.0796 -1.1357
   74CHL1   H25 7948   5.280   4.206   8.195  0.3503  0.0668 -0.2792
   74CHL1   C26 7949   5.315   4.346   8.343 -0.4507 -0.1734 -0.5514
   74CHL1  H26A 7950   5.417   4.305   8.358 -0.7325 -0.2725  1.1535
   74CHL1  H26B 7951   5.305   4.454   8.365 -0.4099  0.3014 -2.7558
   74CHL1  H26C 7952   5.244   4.298   8.413  0.7421 -1.0868  0.0494
   74CHL1   C27 7953   5.152   4.372   8.150 -0.4578 -0.1373 -0.5324
   74CHL1  H27A 7954   5.074   4.338   8.220 -1.9150 -2.3086 -3.1041
   74CHL1  H27B 7955   5.136   4.482   8.143 -0.1569 -0.0146  0.6754
   74CHL1  H27C 7956   5.120   4.336   8.050  0.9777 -1.1984 -0.6273
   75CHL1    C3 7957   2.270   5.787   6.887 -0.4617  0.1868  0.2013
   75CHL1    H3 7958   2.358   5.719   6.883  0.6136  1.3943  2.4227
   75CHL1    O3 7959   2.241   5.837   6.756 -0.7247  0.6676 -0.3468
   75CHL1   H3' 7960   2.178   5.909   6.763 -0.1346  1.0849  0.7689
   75CHL1    C4 7961   2.147   5.710   6.935 -0.4547 -0.2579  0.5044
   75CHL1   H4A 7962   2.057   5.774   6.921 -0.3425 -0.5118 -1.6644
   75CHL1   H4B 7963   2.127   5.628   6.862 -0.6500  0.6912 -0.5385
   75CHL1    C5 7964   2.167   5.663   7.073  0.3492 -0.4675 -0.7996
   75CHL1    C6 7965   2.179   5.533   7.100  0.4143  0.1528 -0.8066
   75CHL1    H6 7966   2.153   5.453   7.029 -0.2850  0.2077 -0.6174
   75CHL1    C7 7967   2.187   5.477   7.239  0.1990 -0.0326 -0.3920
   75CHL1   H7A 7968   2.113   5.395   7.252  0.7753 -0.6067 -0.6801
   75CHL1   H7B 7969   2.291   5.439   7.253  0.6936  0.8701 -1.5028
   75CHL1    C8 7970   2.166   5.586   7.351 -0.4362  0.2418  0.1876
   75CHL1    H8 7971   2.062   5.622   7.344  0.0765  1.5341 -0.9589
   75CHL1   C14 7972   2.189   5.532   7.493 -0.3164  0.0340  0.0853
   75CHL1   H14 7973   2.294   5.495   7.493 -0.4136 -0.4544 -3.1762
   75CHL1   C15 7974   2.104   5.413   7.524  0.2395 -0.2836  0.6646
   75CHL1  H15A 7975   1.996   5.436   7.506  1.0332  2.6853 -0.6916
   75CHL1  H15B 7976   2.140   5.319   7.478 -0.4265 -0.7008  0.9989
   75CHL1   C16 7977   2.132   5.408   7.674  0.1899 -0.4755  0.6193
   75CHL1  H16A 7978   2.037   5.384   7.727 -0.2038  0.8745  0.5482
   75CHL1  H16B 7979   2.200   5.325   7.705 -0.7892 -1.4133  0.2974
   75CHL1   C17 7980   2.188   5.549   7.729 -0.3406  0.1537  0.1166
   75CHL1   H17 7981   2.298   5.546   7.746 -0.3414  0.8538  0.2615
   75CHL1   C13 7982   2.166   5.642   7.600  0.7989 -0.1307  0.6715
   75CHL1   C18 7983   2.023   5.704   7.606  0.1508  0.1369 -0.1774
   75CHL1  H18A 7984   1.998   5.751   7.508  0.7515  0.8159 -0.0078
   75CHL1  H18B 7985   1.949   5.625   7.629 -0.7235  1.2220  0.7796
   75CHL1  H18C 7986   2.010   5.779   7.687 -1.2772 -0.3076  0.0187
   75CHL1   C12 7987   2.276   5.742   7.571 -0.4479  0.1707 -0.0739
   75CHL1  H12A 7988   2.259   5.815   7.653 -3.7347 -1.5286  0.8571
   75CHL1  H12B 7989   2.374   5.692   7.585 -1.4180 -1.2555  1.7175
   75CHL1   C11 7990   2.262   5.811   7.439 -1.3657 -0.3197 -0.4236
   75CHL1  H11A 7991   2.167   5.867   7.444 -1.0077  0.3536 -1.0748
   75CHL1  H11B 7992   2.343   5.885   7.420  0.6326 -2.7801 -1.9473
   75CHL1    C9 7993   2.254   5.711   7.317 -0.1813 -0.3281 -0.1695
   75CHL1    H9 7994   2.356   5.667   7.313 -0.6971 -1.4866 -0.4851
   75CHL1   C10 7995   2.207   5.770   7.180 -0.1950  0.5591  0.6285
   75CHL1   C19 7996   2.073   5.853   7.197  0.1879  0.3842 -0.0338
   75CHL1  H19A 7997   1.991   5.790   7.237  2.1621 -0.9994  1.9084
   75CHL1  H19B 7998   2.083   5.944   7.261  0.8472 -0.0651  0.5070
   75CHL1  H19C 7999   2.037   5.902   7.104 -1.5834 -1.0808 -0.1409
   75CHL1    C1 8000   2.331   5.856   7.127  0.2152 -0.0464  0.5363
   75CHL1   H1A 8001   2.354   5.939   7.197  0.2553  0.5544 -0.1744
   75CHL1   H1B 8002   2.424   5.796   7.130 -0.0627 -0.5464 -0.7229
   75CHL1    C2 8003   2.309   5.904   6.983  0.6936 -0.8705 -0.4510
   75CHL1   H2A 8004   2.403   5.955   6.953  0.9480 -0.4914  0.9650
   75CHL1   H2B 8005   2.226   5.977   6.990 -0.2049 -1.1916 -5.5107
   75CHL1   C20 8006   2.133   5.585   7.871 -0.4332  0.0734 -0.4311
   75CHL1   H20 8007   2.025   5.605   7.859 -0.8407 -1.4291  0.5634
   75CHL1   C21 8008   2.204   5.717   7.918 -0.2156  0.1232 -0.0625
   75CHL1  H21A 8009   2.166   5.760   8.012  0.9993  0.2173  0.3955
   75CHL1  H21B 8010   2.186   5.786   7.832 -0.2580  2.8542  2.0882
   75CHL1  H21C 8011   2.313   5.696   7.918 -0.1434  0.3998 -1.4302
   75CHL1   C22 8012   2.159   5.482   7.984  0.5270 -0.3042  0.4974
   75CHL1  H22A 8013   2.138   5.379   7.950 -1.7413  1.0267 -2.2922
   75CHL1  H22B 8014   2.268   5.470   8.006  0.4333 -1.7031  0.2376
   75CHL1   C23 8015   2.082   5.517   8.111  0.0845 -0.1962  0.0899
   75CHL1  H23A 8016   2.113   5.614   8.156  1.0221  0.8054 -2.5993
   75CHL1  H23B 8017   1.976   5.532   8.081  0.2878 -0.8039 -0.9479
   75CHL1   C24 8018   2.077   5.402   8.202 -0.5808  0.5466  0.3384
   75CHL1  H24A 8019   1.983   5.385   8.258  0.7286 -0.2273  2.3775
   75CHL1  H24B 8020   2.076   5.307   8.143  0.8864  0.5172  0.3356
   75CHL1   C25 8021   2.203   5.380   8.286 -0.0678  0.0747  0.5129
   75CHL1   H25 8022   2.289   5.387   8.217 -0.3136 -2.4788 -0.0871
   75CHL1   C26 8023   2.216   5.490   8.399 -0.2123 -0.1615 -0.4526
   75CHL1  H26A 8024   2.226   5.592   8.355 -0.5952  0.0784  0.0120
   75CHL1  H26B 8025   2.121   5.476   8.455 -0.4278 -0.1815 -0.8184
   75CHL1  H26C 8026   2.302   5.474   8.467 -1.4301 -0.0831  1.1385
   75CHL1   C27 8027   2.200   5.241   8.348  0.3862  0.5007  0.7800
   75CHL1  H27A 8028   2.300   5.221   8.391  1.0099 -0.8342 -1.2016
   75CHL1  H27B 8029   2.126   5.236   8.430  1.7472 -3.2916  1.8771
   75CHL1  H27C 8030   2.185   5.165   8.268 -0.6671  1.8866 -0.3707
   76CHL1    C3 8031   5.842   0.882   7.253  0.0464 -0.0863  0.2746
   76CHL1    H3 8032   5.910   0.795   7.263  1.7441  1.0889 -0.7772
   76CHL1    O3 8033   5.830   0.927   7.117 -0.4645  0.1203 -0.3686
   76CHL1   H3' 8034   5.915   0.929   7.074  0.4498 -0.2574  1.3938
   76CHL1    C4 8035   5.701   0.836   7.309  0.1881  0.6316  0.3760
   76CHL1   H4A 8036   5.627   0.914   7.281  0.2894  1.2475  1.8023
   76CHL1   H4B 8037   5.676   0.744   7.251  1.8012  0.7287 -0.5167
   76CHL1    C5 8038   5.700   0.820   7.463  0.5227  0.1186 -0.1607
   76CHL1    C6 8039   5.663   0.708   7.515 -0.2212  0.5458 -0.5365
   76CHL1    H6 8040   5.641   0.619   7.454 -0.4992  0.2674 -0.0245
   76CHL1    C7 8041   5.642   0.685   7.658  0.1684  0.6530  0.4916
   76CHL1   H7A 8042   5.541   0.639   7.666  0.4902 -0.6149 -2.1141
   76CHL1   H7B 8043   5.720   0.620   7.702 -0.8181 -2.3119 -1.8921
   76CHL1    C8 8044   5.644   0.814   7.741 -0.7526 -0.2915 -1.4692
   76CHL1    H8 8045   5.550   0.872   7.733 -0.2461  0.7730  0.1171
   76CHL1   C14 8046   5.658   0.786   7.887  0.3678 -0.3160 -0.5174
   76CHL1   H14 8047   5.751   0.726   7.892 -0.2382 -1.0735  3.1660
   76CHL1   C15 8048   5.561   0.684   7.955 -1.0109 -0.3398  0.0138
   76CHL1  H15A 8049   5.457   0.688   7.916 -0.0579  0.0101 -2.6162
   76CHL1  H15B 8050   5.613   0.588   7.939  0.8231  0.4685  0.9992
   76CHL1   C16 8051   5.572   0.721   8.104 -0.1506  0.4815 -0.3735
   76CHL1  H16A 8052   5.471   0.746   8.145  0.3953  0.2908  1.1204
   76CHL1  H16B 8053   5.614   0.634   8.158  2.5562  1.4758 -0.8192
   76CHL1   C17 8054   5.686   0.828   8.120 -0.0509 -0.0087 -0.2461
   76CHL1   H17 8055   5.782   0.772   8.119 -0.5796 -0.9338 -0.4310
   76CHL1   C13 8056   5.681   0.900   7.986  0.3793 -0.5729 -0.3922
   76CHL1   C18 8057   5.556   0.993   7.993  0.0477  0.0580  0.4281
   76CHL1  H18A 8058   5.540   1.061   7.907  1.7877 -0.6412 -0.4805
   76CHL1  H18B 8059   5.470   0.924   8.001  0.7891 -0.7403  1.9249
   76CHL1  H18C 8060   5.557   1.067   8.076 -0.7345  2.2429 -1.4406
   76CHL1   C12 8061   5.809   0.971   7.939 -0.3338  0.1218  0.9537
   76CHL1  H12A 8062   5.833   1.053   8.010  1.6567 -1.2747  1.9323
   76CHL1  H12B 8063   5.892   0.897   7.941  0.9996  1.4935 -1.2755
   76CHL1   C11 8064   5.797   1.015   7.793 -0.6715 -0.3679 -0.4228
   76CHL1  H11A 8065   5.727   1.100   7.776  0.1761  0.5396  0.5694
   76CHL1  H11B 8066   5.899   1.045   7.763 -0.7435  0.8540  0.5440
   76CHL1    C9 8067   5.761   0.900   7.694 -0.3791 -0.2751 -0.8230
   76CHL1    H9 8068   5.847   0.830   7.701  0.7910  1.4489  2.7112
   76CHL1   C10 8069   5.754   0.942   7.544  0.4624 -0.4265  0.5766
   76CHL1   C19 8070   5.651   1.055   7.516 -0.6706 -0.3142 -0.0909
   76CHL1  H19A 8071   5.671   1.139   7.586 -1.4016 -0.5557  0.4196
   76CHL1  H19B 8072   5.644   1.088   7.411  2.0064  3.2253  0.7710
   76CHL1  H19C 8073   5.554   1.018   7.554  0.2127  0.4903  3.1209
   76CHL1    C1 8074   5.893   0.985   7.482  0.3849  0.6013 -0.2740
   76CHL1   H1A 8075   5.922   1.082   7.528 -2.3997  1.1651  0.3839
   76CHL1   H1B 8076   5.963   0.911   7.527 -1.4276 -0.9611  0.0430
   76CHL1    C2 8077   5.896   1.001   7.327 -0.2244 -0.4650  0.5442
   76CHL1   H2A 8078   5.996   1.029   7.289 -1.2901  3.0418  0.1055
   76CHL1   H2B 8079   5.826   1.079   7.289 -0.1786 -0.2544  0.8929
   76CHL1   C20 8080   5.687   0.902   8.258 -0.5629  0.2214 -0.6451
   76CHL1   H20 8081   5.594   0.962   8.267 -0.3408  0.5879 -0.8020
   76CHL1   C21 8082   5.810   1.000   8.286 -0.0177 -0.1469  1.0147
   76CHL1  H21A 8083   5.814   1.054   8.383 -1.0182 -0.5452  1.2812
   76CHL1  H21B 8084   5.812   1.076   8.205 -0.1313  0.4646  1.5840
   76CHL1  H21C 8085   5.903   0.939   8.284 -0.9090 -1.5440  1.3532
   76CHL1   C22 8086   5.681   0.802   8.383 -0.2372  0.0985 -0.2213
   76CHL1  H22A 8087   5.594   0.736   8.369 -0.0715 -0.8595  3.0466
   76CHL1  H22B 8088   5.772   0.738   8.382  0.2232  0.6962  1.6127
   76CHL1   C23 8089   5.659   0.887   8.514 -0.3626  0.2958 -0.5912
   76CHL1  H23A 8090   5.649   0.807   8.590 -0.1599  0.9034  0.0802
   76CHL1  H23B 8091   5.747   0.942   8.554 -3.2386  2.1207  3.6094
   76CHL1   C24 8092   5.530   0.976   8.511  0.6135 -0.3280 -0.0628
   76CHL1  H24A 8093   5.552   1.074   8.463 -0.4141 -0.3237 -0.5278
   76CHL1  H24B 8094   5.467   0.919   8.439  1.1307 -1.8467  0.6729
   76CHL1   C25 8095   5.454   0.990   8.645  0.0329 -0.4727  0.6841
   76CHL1   H25 8096   5.416   0.892   8.678 -0.8955 -0.4951 -0.4118
   76CHL1   C26 8097   5.548   1.038   8.760  0.0223 -0.0333 -0.5690
   76CHL1  H26A 8098   5.600   0.956   8.815  0.1220  0.6137  0.2997
   76CHL1  H26B 8099   5.624   1.110   8.724 -1.0205  2.0158  1.2232
   76CHL1  H26C 8100   5.486   1.099   8.828 -0.2291 -0.4943 -0.3821
   76CHL1   C27 8101   5.329   1.082   8.635 -0.0842  0.5903  0.1469
   76CHL1  H27A 8102   5.250   1.028   8.579 -0.3250 -0.0173  1.0493
   76CHL1  H27B 8103   5.280   1.097   8.734 -1.0614 -1.4661  0.0024
   76CHL1  H27C 8104   5.357   1.181   8.594  2.1996 -0.0285  0.1460
   77CHL1    C3 8105   6.725   6.224   7.052 -0.3480 -0.4721 -0.1809
   77CHL1    H3 8106   6.833   6.231   7.073 -0.7117  0.5351  1.4820
   77CHL1    O3 8107   6.705   6.233   6.913  0.2526  0.1062  0.0272
   77CHL1   H3' 8108   6.787   6.200   6.875 -0.2710 -0.6713 -0.4481
   77CHL1    C4 8109   6.666   6.104   7.121  0.7509 -0.3207  0.3218
   77CHL1   H4A 8110   6.557   6.111   7.104  1.0575  1.5854 -1.0004
   77CHL1   H4B 8111   6.704   6.013   7.070 -0.6502 -0.1474 -1.0802
   77CHL1    C5 8112   6.688   6.103   7.270 -0.0633 -0.1803  0.1244
   77CHL1    C6 8113   6.735   5.991   7.330  0.7777  0.2081 -0.2515
   77CHL1    H6 8114   6.772   5.915   7.260 -1.0134  1.4761 -2.6741
   77CHL1    C7 8115   6.763   5.983   7.481 -0.2370  0.2011 -0.4126
   77CHL1   H7A 8116   6.744   5.882   7.523 -0.3755  0.3741 -0.0587
   77CHL1   H7B 8117   6.872   6.003   7.491 -0.1526 -0.1784 -0.5827
   77CHL1    C8 8118   6.691   6.097   7.563 -0.2576 -0.1602  0.5189
   77CHL1    H8 8119   6.585   6.065   7.570  0.2247 -1.5264  1.8149
   77CHL1   C14 8120   6.760   6.121   7.696  1.2013 -0.1686 -0.3208
   77CHL1   H14 8121   6.863   6.156   7.672  1.8461 -2.3475 -0.8759
   77CHL1   C15 8122   6.783   6.001   7.785  0.6448 -0.1293 -0.4957
   77CHL1  H15A 8123   6.699   5.928   7.780  0.6053 -0.2207  1.1415
   77CHL1  H15B 8124   6.879   5.953   7.755  0.9345 -1.1403  1.9161
   77CHL1   C16 8125   6.798   6.050   7.927 -0.0327 -0.5709  0.5073
   77CHL1  H16A 8126   6.732   5.986   7.989  0.9732 -0.4803  1.6889
   77CHL1  H16B 8127   6.892   6.025   7.981 -0.8019 -0.0287  2.1387
   77CHL1   C17 8128   6.764   6.199   7.921  0.6163  0.2400 -0.0899
   77CHL1   H17 8129   6.867   6.239   7.905 -0.0356  0.8650 -3.1937
   77CHL1   C13 8130   6.683   6.222   7.788 -0.2873  0.2635  0.5706
   77CHL1   C18 8131   6.539   6.178   7.816  0.1578  0.1487  0.3131
   77CHL1  H18A 8132   6.485   6.257   7.871  0.1158 -0.6573  1.4469
   77CHL1  H18B 8133   6.497   6.155   7.716  1.0093  1.5755 -0.3823
   77CHL1  H18C 8134   6.523   6.087   7.878  2.4629 -1.4069 -1.2652
   77CHL1   C12 8135   6.706   6.353   7.725 -0.2069 -0.5371 -0.4539
   77CHL1  H12A 8136   6.651   6.436   7.775 -0.8769 -1.9298  1.1843
   77CHL1  H12B 8137   6.813   6.378   7.705 -0.1700  0.9293  1.4277
   77CHL1   C11 8138   6.645   6.350   7.583  0.7959 -0.3143  0.2362
   77CHL1  H11A 8139   6.535   6.337   7.596  0.7542  0.3277  0.5461
   77CHL1  H11B 8140   6.653   6.452   7.540 -0.7265 -0.0766  0.4746
   77CHL1    C9 8141   6.703   6.236   7.497  0.0796 -0.3468 -0.5615
   77CHL1    H9 8142   6.812   6.249   7.480 -0.0889 -1.0684 -2.2571
   77CHL1   C10 8143   6.650   6.230   7.351 -0.1065  0.2831 -0.3701
   77CHL1   C19 8144   6.497   6.231   7.354 -0.2098  0.7284  0.0972
   77CHL1  H19A 8145   6.450   6.320   7.402 -4.0156 -2.0257  1.7283
   77CHL1  H19B 8146   6.445   6.218   7.257 -2.3863  1.5948  1.1002
   77CHL1  H19C 8147   6.458   6.147   7.415 -0.2616  0.6111 -0.0962
   77CHL1    C1 8148   6.704   6.353   7.274  0.6850  0.0616 -0.1652
   77CHL1   H1A 8149   6.656   6.445   7.313 -0.8418 -0.6350 -0.3633
   77CHL1   H1B 8150   6.813   6.371   7.273  0.4889  1.4295  1.6115
   77CHL1    C2 8151   6.671   6.349   7.123 -0.6232 -0.1213  0.2114
   77CHL1   H2A 8152   6.717   6.435   7.069 -1.1031 -0.9988 -1.6592
   77CHL1   H2B 8153   6.563   6.369   7.105 -0.5255  0.6690  0.4948
   77CHL1   C20 8154   6.706   6.255   8.055  0.4896  1.1108  0.5338
   77CHL1   H20 8155   6.606   6.205   8.063  1.0278 -0.4101 -1.8302
   77CHL1   C21 8156   6.684   6.400   8.053  0.9190  0.1750 -0.5889
   77CHL1  H21A 8157   6.668   6.441   8.155  0.3415  1.0371 -1.0142
   77CHL1  H21B 8158   6.587   6.416   8.000  0.9141  0.9521 -0.3526
   77CHL1  H21C 8159   6.768   6.451   8.002  2.3287  0.2538  1.7815
   77CHL1   C22 8160   6.801   6.225   8.173 -0.0743 -0.2635  0.9592
   77CHL1  H22A 8161   6.793   6.118   8.203  1.1924  0.2782  3.4059
   77CHL1  H22B 8162   6.909   6.239   8.152  0.3293 -1.4923  2.0958
   77CHL1   C23 8163   6.758   6.284   8.313 -1.0306 -0.3841  0.1927
   77CHL1  H23A 8164   6.787   6.390   8.333 -1.6885 -0.2146  0.2854
   77CHL1  H23B 8165   6.647   6.272   8.313 -1.5520  3.5040 -1.1874
   77CHL1   C24 8166   6.837   6.205   8.431 -0.1874  0.8157  0.5517
   77CHL1  H24A 8167   6.812   6.098   8.413 -2.5510  1.5697 -0.9507
   77CHL1  H24B 8168   6.945   6.219   8.411 -0.5722  0.6782 -1.7438
   77CHL1   C25 8169   6.786   6.240   8.572  0.0555 -0.0636  0.1849
   77CHL1   H25 8170   6.792   6.349   8.595 -2.8775  0.5622 -1.6827
   77CHL1   C26 8171   6.638   6.195   8.596  0.5338  0.4153  0.2390
   77CHL1  H26A 8172   6.622   6.086   8.580 -1.1969  0.8765 -1.3054
   77CHL1  H26B 8173   6.606   6.218   8.700  0.3090 -0.0329  0.2692
   77CHL1  H26C 8174   6.578   6.262   8.531  0.5808  0.8718  0.6574
   77CHL1   C27 8175   6.867   6.163   8.670 -0.4957 -0.3810 -0.3389
   77CHL1  H27A 8176   6.974   6.191   8.652  0.1412 -1.9365  0.9462
   77CHL1  H27B 8177   6.828   6.174   8.773  0.3455 -0.3702 -0.0144
   77CHL1  H27C 8178   6.848   6.057   8.643 -1.2573 -0.2243 -0.4216
   78CHL1    C3 8179   1.895   0.447   6.814 -0.3808  0.0764 -0.5904
   78CHL1    H3 8180   1.871   0.338   6.811 -0.8412  0.1374  0.5995
   78CHL1    O3 8181   1.929   0.483   6.684  0.7226  0.4921 -0.0220
   78CHL1   H3' 8182   1.957   0.574   6.695 -0.0527  0.7597 -0.2590
   78CHL1    C4 8183   1.775   0.532   6.856 -0.1489  0.5773  0.3122
   78CHL1   H4A 8184   1.785   0.639   6.830  0.9723  0.2817 -0.5268
   78CHL1   H4B 8185   1.691   0.484   6.801  1.3812 -1.1874 -0.5860
   78CHL1    C5 8186   1.750   0.525   7.006  0.4613 -0.5694  0.0900
   78CHL1    C6 8187   1.624   0.490   7.057 -0.1905 -0.1482  0.0137
   78CHL1    H6 8188   1.542   0.483   6.984 -1.8337  2.8520  1.4546
   78CHL1    C7 8189   1.580   0.493   7.200  0.3503  0.3354  0.0613
   78CHL1   H7A 8190   1.488   0.555   7.214 -0.8000 -0.8930 -1.8181
   78CHL1   H7B 8191   1.556   0.390   7.234 -1.5631  0.9553  0.6820
   78CHL1    C8 8192   1.695   0.550   7.288  0.1717  0.5649 -0.2178
   78CHL1    H8 8193   1.689   0.660   7.284  1.5211  0.8870  3.7666
   78CHL1   C14 8194   1.685   0.492   7.431  0.6487  0.2461  0.2598
   78CHL1   H14 8195   1.706   0.383   7.422  0.8816  0.4095 -1.2544
   78CHL1   C15 8196   1.546   0.495   7.495 -0.4652  0.8495 -0.5943
   78CHL1  H15A 8197   1.501   0.596   7.485 -0.1098  1.2534  1.7245
   78CHL1  H15B 8198   1.481   0.419   7.445  1.7214 -0.1492 -2.0174
   78CHL1   C16 8199   1.578   0.462   7.646 -0.7795 -0.1318 -0.5903
   78CHL1  H16A 8200   1.544   0.550   7.704 -0.1533 -1.0206  1.1789
   78CHL1  H16B 8201   1.532   0.373   7.695  0.3512 -0.4440 -0.0778
   78CHL1   C17 8202   1.736   0.459   7.661  0.2684 -0.6714  0.0639
   78CHL1   H17 8203   1.780   0.357   7.656  0.8839 -0.4786  1.4057
   78CHL1   C13 8204   1.787   0.536   7.538 -0.4707  0.2728 -0.9174
   78CHL1   C18 8205   1.778   0.692   7.548  0.5605  0.9089  0.0882
   78CHL1  H18A 8206   1.860   0.740   7.605  0.0225  0.9438  0.8463
   78CHL1  H18B 8207   1.795   0.730   7.446  0.4599  0.5366 -0.0674
   78CHL1  H18C 8208   1.679   0.737   7.574 -0.5356 -1.3573  0.0073
   78CHL1   C12 8209   1.925   0.490   7.481 -0.2976  0.1316  0.3168
   78CHL1  H12A 8210   2.011   0.527   7.541 -0.8491  3.3071 -0.7294
   78CHL1  H12B 8211   1.929   0.381   7.463 -1.2483  0.2467 -0.6610
   78CHL1   C11 8212   1.949   0.536   7.332  0.1930  0.0563 -0.0049
   78CHL1  H11A 8213   1.971   0.645   7.327 -2.9328  0.7958  1.0843
   78CHL1  H11B 8214   2.043   0.484   7.305 -0.6295 -1.6397  0.3486
   78CHL1    C9 8215   1.832   0.498   7.238 -0.0914 -0.6150  0.4132
   78CHL1    H9 8216   1.831   0.387   7.238 -2.0862 -0.6324 -0.6510
   78CHL1   C10 8217   1.870   0.546   7.096 -0.3087 -0.0682 -0.3179
   78CHL1   C19 8218   1.914   0.694   7.093  0.4237  0.2393  0.6095
   78CHL1  H19A 8219   2.020   0.698   7.128  0.5866 -1.0114  0.2778
   78CHL1  H19B 8220   1.916   0.726   6.986 -1.9816 -0.1322  0.4426
   78CHL1  H19C 8221   1.850   0.759   7.156  2.6899  2.3755  0.8287
   78CHL1    C1 8222   1.987   0.455   7.047  0.1175 -0.2583 -0.5709
   78CHL1   H1A 8223   2.082   0.468   7.103 -1.6577 -1.2090  2.8099
   78CHL1   H1B 8224   1.969   0.346   7.063 -1.7999 -0.0663 -1.2312
   78CHL1    C2 8225   2.025   0.473   6.899 -0.2214 -0.5936  0.5032
   78CHL1   H2A 8226   2.100   0.400   6.861 -0.2581 -1.4670  2.0801
   78CHL1   H2B 8227   2.048   0.579   6.876 -3.3063  0.0052 -0.0735
   78CHL1   C20 8228   1.788   0.502   7.800 -0.5251 -0.2332  0.1064
   78CHL1   H20 8229   1.756   0.606   7.825 -1.5532 -0.2618 -1.0502
   78CHL1   C21 8230   1.948   0.512   7.799 -0.3395 -0.2055  0.5995
   78CHL1  H21A 8231   1.986   0.612   7.768  2.3863 -1.5162 -0.4895
   78CHL1  H21B 8232   1.983   0.428   7.736 -2.6982 -1.5528  1.0312
   78CHL1  H21C 8233   1.983   0.497   7.904 -1.7346 -0.2019  1.0778
   78CHL1   C22 8234   1.730   0.418   7.917  0.5155  0.2359  0.3819
   78CHL1  H22A 8235   1.622   0.398   7.898  0.5756 -0.0678  0.3531
   78CHL1  H22B 8236   1.773   0.315   7.915  2.2316  0.9332  0.9806
   78CHL1   C23 8237   1.742   0.476   8.050 -0.3792 -0.5226  0.7015
   78CHL1  H23A 8238   1.845   0.509   8.076 -0.5570  0.7750 -0.1844
   78CHL1  H23B 8239   1.682   0.570   8.057 -0.3458 -0.6551  3.4233
   78CHL1   C24 8240   1.703   0.391   8.170 -0.2490 -0.7150 -0.5694
   78CHL1  H24A 8241   1.781   0.316   8.194  2.5339  2.0428 -0.6073
   78CHL1  H24B 8242   1.708   0.460   8.258  0.1977 -1.5965  0.1068
   78CHL1   C25 8243   1.561   0.327   8.181 -0.1189  0.1049 -0.0900
   78CHL1   H25 8244   1.547   0.256   8.096 -0.5928 -1.4209  1.2464
   78CHL1   C26 8245   1.547   0.239   8.308  0.2653  0.2321 -0.1728
   78CHL1  H26A 8246   1.636   0.173   8.309 -0.0809 -0.2450 -0.6727
   78CHL1  H26B 8247   1.538   0.296   8.403 -1.6173  0.8014 -0.6655
   78CHL1  H26C 8248   1.457   0.175   8.300  1.2576 -1.0916 -0.9625
   78CHL1   C27 8249   1.448   0.423   8.171 -0.0690 -0.1684 -0.4918
   78CHL1  H27A 8250   1.473   0.516   8.116 -1.8115 -0.1842 -1.3512
   78CHL1  H27B 8251   1.363   0.373   8.119 -0.4902 -1.4794  1.4029
   78CHL1  H27C 8252   1.406   0.458   8.267  0.4418  1.0706 -0.7156
   79CHL1    C3 8253   0.015   0.779   7.259 -0.4134 -0.0167  0.4248
   79CHL1    H3 8254   0.030   0.670   7.273  0.6125  0.1212  0.4592
   79CHL1    O3 8255   0.013   0.801   7.121 -0.2106  0.0921 -0.4998
   79CHL1   H3' 8256  -0.043   0.732   7.083 -2.4615  0.4491  1.9800
   79CHL1    C4 8257  -0.119   0.817   7.326  0.1034 -0.1283  0.6064
   79CHL1   H4A 8258  -0.145   0.919   7.288  3.3856  0.9693  1.1246
   79CHL1   H4B 8259  -0.194   0.760   7.269  0.1657 -0.8553  1.2428
   79CHL1    C5 8260  -0.126   0.813   7.482 -0.3591 -0.7033  0.4466
   79CHL1    C6 8261  -0.220   0.743   7.548 -0.4179  0.1872  0.2055
   79CHL1    H6 8262  -0.295   0.684   7.493 -3.0928  2.4066  1.3603
   79CHL1    C7 8263  -0.231   0.739   7.697  1.0951  0.1222 -0.3885
   79CHL1   H7A 8264  -0.335   0.755   7.730  0.8630 -0.8205 -0.6579
   79CHL1   H7B 8265  -0.212   0.634   7.729 -0.4015 -0.2086 -0.5669
   79CHL1    C8 8266  -0.139   0.841   7.767 -0.6780  0.3230 -0.0882
   79CHL1    H8 8267  -0.189   0.939   7.754 -0.1950  0.3949 -1.5246
   79CHL1   C14 8268  -0.119   0.808   7.921  0.5043  0.0756 -0.1711
   79CHL1   H14 8269  -0.076   0.706   7.916  0.5599  0.0569  0.6556
   79CHL1   C15 8270  -0.243   0.798   8.008  0.4512 -0.1829  0.0624
   79CHL1  H15A 8271  -0.311   0.883   7.987  0.1914 -0.3780  0.1136
   79CHL1  H15B 8272  -0.303   0.705   8.002 -1.8182  1.0651  2.1978
   79CHL1   C16 8273  -0.188   0.808   8.155  0.0830 -1.5527  0.2724
   79CHL1  H16A 8274  -0.244   0.889   8.207 -0.6065 -2.8982  1.6693
   79CHL1  H16B 8275  -0.204   0.719   8.220 -0.2251 -2.5612 -1.1664
   79CHL1   C17 8276  -0.036   0.832   8.134  0.8207  1.0428 -0.0330
   79CHL1   H17 8277   0.009   0.731   8.119  0.0366  0.8791 -1.3864
   79CHL1   C13 8278  -0.018   0.889   8.001  0.3358 -0.7738  0.3137
   79CHL1   C18 8279  -0.056   1.035   7.990 -0.0872  0.0240 -0.2881
   79CHL1  H18A 8280  -0.086   1.065   7.888 -0.3983 -0.2896 -0.2921
   79CHL1  H18B 8281  -0.139   1.056   8.062  0.6223 -0.7602  0.7812
   79CHL1  H18C 8282   0.027   1.103   8.019 -0.2731  0.2416 -0.2623
   79CHL1   C12 8283   0.115   0.877   7.926 -0.7815 -0.2203  0.2250
   79CHL1  H12A 8284   0.184   0.949   7.976 -1.3856  1.0967 -0.7838
   79CHL1  H12B 8285   0.149   0.772   7.932 -0.3888 -0.0808  0.4799
   79CHL1   C11 8286   0.109   0.908   7.778  0.2985 -0.3372 -0.5304
   79CHL1  H11A 8287   0.095   1.018   7.767  0.0336 -0.3638 -0.4722
   79CHL1  H11B 8288   0.208   0.895   7.728  1.2502  0.3637  1.1404
   79CHL1    C9 8289  -0.002   0.840   7.697  0.3346 -0.4707  0.4505
   79CHL1    H9 8290   0.033   0.735   7.694  0.5037 -0.3914 -0.4699
   79CHL1   C10 8291  -0.006   0.881   7.547 -1.0978  0.0840 -0.8456
   79CHL1   C19 8292  -0.044   1.032   7.529 -0.3432 -0.0975 -0.3110
   79CHL1  H19A 8293  -0.070   1.048   7.422 -1.9875 -0.9605 -0.0554
   79CHL1  H19B 8294  -0.131   1.047   7.596  1.1021 -2.4700  2.2114
   79CHL1  H19C 8295   0.030   1.104   7.570 -0.4861  1.4821 -2.7203
   79CHL1    C1 8296   0.130   0.845   7.480 -0.3074  0.0375  0.9378
   79CHL1   H1A 8297   0.203   0.909   7.534  3.6079 -1.9514 -1.7463
   79CHL1   H1B 8298   0.155   0.739   7.503 -0.4935  0.0914  1.3953
   79CHL1    C2 8299   0.132   0.854   7.322  0.2027  0.7884  0.0098
   79CHL1   H2A 8300   0.230   0.812   7.290 -0.3963 -0.1799 -0.5896
   79CHL1   H2B 8301   0.107   0.961   7.304  1.0563  1.2730  1.5851
   79CHL1   C20 8302   0.028   0.900   8.252  0.6755 -0.1520  0.4021
   79CHL1   H20 8303   0.003   1.008   8.243 -2.2836 -0.8743 -0.8926
   79CHL1   C21 8304   0.177   0.883   8.240 -0.3758 -0.1355  0.3080
   79CHL1  H21A 8305   0.220   0.964   8.177 -0.7663  1.7618  2.4426
   79CHL1  H21B 8306   0.207   0.786   8.194  0.9086  0.1646  0.4986
   79CHL1  H21C 8307   0.223   0.886   8.341  1.6270  0.7678 -0.5990
   79CHL1   C22 8308  -0.024   0.846   8.398  0.2728  0.7093 -0.7301
   79CHL1  H22A 8309  -0.129   0.811   8.383  0.7471 -0.8330 -0.5160
   79CHL1  H22B 8310   0.036   0.755   8.415 -1.0959  0.0743  0.8073
   79CHL1   C23 8311  -0.007   0.963   8.502  0.1058  0.3383 -0.3704
   79CHL1  H23A 8312  -0.035   0.922   8.601  1.5742 -0.1828 -0.1546
   79CHL1  H23B 8313   0.097   1.002   8.499  0.1573  0.1639 -0.9191
   79CHL1   C24 8314  -0.112   1.073   8.470 -0.0947 -0.6599 -0.1555
   79CHL1  H24A 8315  -0.068   1.126   8.384  2.8323  0.6678  2.0708
   79CHL1  H24B 8316  -0.209   1.031   8.436 -1.2917  1.0390  1.0720
   79CHL1   C25 8317  -0.149   1.175   8.582  0.1887  0.3704 -0.1162
   79CHL1   H25 8318  -0.065   1.241   8.614  1.8150 -0.9481 -1.5566
   79CHL1   C26 8319  -0.262   1.271   8.527 -0.0298  0.2919 -0.4182
   79CHL1  H26A 8320  -0.354   1.213   8.503  0.2577 -0.0507 -0.6980
   79CHL1  H26B 8321  -0.291   1.350   8.600 -0.5870 -2.1459  2.0747
   79CHL1  H26C 8322  -0.225   1.323   8.436  1.7656  0.3733  0.3378
   79CHL1   C27 8323  -0.214   1.125   8.713 -0.3061  0.0724  0.0864
   79CHL1  H27A 8324  -0.156   1.049   8.770  2.6406  1.6444 -0.7546
   79CHL1  H27B 8325  -0.236   1.203   8.789 -1.7222 -1.3803  1.2107
   79CHL1  H27C 8326  -0.319   1.091   8.694  0.4826 -2.0797 -0.6084
   80CHL1    C3 8327   5.822   4.885   6.938  0.1151 -0.0600 -0.4732
   80CHL1    H3 8328   5.736   4.816   6.927 -0.8444  0.9673  0.4529
   80CHL1    O3 8329   5.871   4.934   6.812 -0.9176 -0.5066  0.2680
   80CHL1   H3' 8330   5.946   4.991   6.830  1.3751 -3.6960  1.3488
   80CHL1    C4 8331   5.772   4.996   7.034  0.5351 -0.0138 -0.2220
   80CHL1   H4A 8332   5.853   5.072   7.024 -1.2419  2.0293  0.6568
   80CHL1   H4B 8333   5.681   5.027   6.977 -0.6462 -3.2639 -0.1951
   80CHL1    C5 8334   5.728   4.945   7.168  0.2126 -0.2959  0.0180
   80CHL1    C6 8335   5.609   4.961   7.225  0.4976 -0.3882 -0.3646
   80CHL1    H6 8336   5.534   5.014   7.164 -1.8342 -2.6036  0.5096
   80CHL1    C7 8337   5.569   4.913   7.365  0.5069 -0.2512 -0.4736
   80CHL1   H7A 8338   5.504   4.988   7.415  2.2880  0.8757  0.1784
   80CHL1   H7B 8339   5.512   4.818   7.356  0.7056 -0.3909 -0.2627
   80CHL1    C8 8340   5.688   4.875   7.447  0.7862  0.4100  0.3438
   80CHL1    H8 8341   5.735   4.974   7.465  0.2870  0.4393  1.5683
   80CHL1   C14 8342   5.646   4.795   7.567 -0.0927 -0.4683 -0.9614
   80CHL1   H14 8343   5.612   4.696   7.528  1.2424 -1.8826  1.3514
   80CHL1   C15 8344   5.534   4.846   7.660 -0.0041 -0.3789 -0.5831
   80CHL1  H15A 8345   5.520   4.956   7.661 -0.8061 -0.4264  3.0628
   80CHL1  H15B 8346   5.437   4.811   7.620  0.4456 -3.2007  0.6816
   80CHL1   C16 8347   5.567   4.793   7.804 -0.2790 -1.0106  0.4377
   80CHL1  H16A 8348   5.601   4.871   7.875  2.0971 -1.2232 -0.3978
   80CHL1  H16B 8349   5.487   4.735   7.854  0.1448 -2.0437 -0.0528
   80CHL1   C17 8350   5.689   4.703   7.778  0.7419  0.0385  0.0174
   80CHL1   H17 8351   5.642   4.612   7.737 -0.2896  1.1662 -1.3764
   80CHL1   C13 8352   5.765   4.770   7.655  0.1203 -0.3894 -0.4302
   80CHL1   C18 8353   5.837   4.896   7.708 -0.0506 -0.0825 -0.0935
   80CHL1  H18A 8354   5.766   4.959   7.767 -0.9395 -0.8082 -0.3789
   80CHL1  H18B 8355   5.930   4.884   7.767  0.5954 -0.5994 -1.2021
   80CHL1  H18C 8356   5.871   4.961   7.625  1.9979  1.4135  1.8623
   80CHL1   C12 8357   5.856   4.679   7.580 -0.7283 -0.0497 -0.1550
   80CHL1  H12A 8358   5.946   4.664   7.644 -0.5851 -0.7200 -0.5032
   80CHL1  H12B 8359   5.813   4.583   7.546 -0.5951 -0.1856  0.0577
   80CHL1   C11 8360   5.906   4.748   7.450 -0.1911 -0.3293  0.0975
   80CHL1  H11A 8361   5.969   4.828   7.496  1.7145 -1.6294 -0.2039
   80CHL1  H11B 8362   5.974   4.680   7.394  2.6220  3.1034 -0.8473
   80CHL1    C9 8363   5.795   4.800   7.363 -0.2750 -0.8571 -0.1998
   80CHL1    H9 8364   5.741   4.711   7.324 -0.4342 -0.3468 -1.1782
   80CHL1   C10 8365   5.842   4.867   7.235  0.1641  0.2291  0.3089
   80CHL1   C19 8366   5.941   4.981   7.270 -0.1307 -0.1701 -0.4578
   80CHL1  H19A 8367   6.030   4.934   7.316 -1.6288 -2.8568 -0.2525
   80CHL1  H19B 8368   5.992   5.044   7.194 -1.0207 -1.3380 -2.0423
   80CHL1  H19C 8369   5.896   5.048   7.348 -0.5562  1.7201 -2.2761
   80CHL1    C1 8370   5.905   4.753   7.142 -0.2079 -0.0595  0.1025
   80CHL1   H1A 8371   5.996   4.697   7.173 -0.5583 -0.4665  0.4038
   80CHL1   H1B 8372   5.830   4.671   7.135 -0.1173  0.0528 -2.8292
   80CHL1    C2 8373   5.935   4.807   7.003 -0.2422  0.1362  0.4876
   80CHL1   H2A 8374   5.974   4.731   6.932 -0.2243  0.7212 -0.1305
   80CHL1   H2B 8375   6.014   4.881   7.026  0.8085 -0.6623 -0.5637
   80CHL1   C20 8376   5.764   4.669   7.904 -0.6938  0.1746  0.7343
   80CHL1   H20 8377   5.841   4.748   7.919 -0.2894 -0.2041  0.6653
   80CHL1   C21 8378   5.833   4.538   7.885 -0.3715 -0.5584  0.6816
   80CHL1  H21A 8379   5.761   4.455   7.897 -0.4354 -0.1956  3.2488
   80CHL1  H21B 8380   5.916   4.517   7.957 -1.6579 -0.4870  2.2039
   80CHL1  H21C 8381   5.878   4.536   7.784  2.1650 -0.4179  1.7502
   80CHL1   C22 8382   5.674   4.657   8.032 -0.5856  0.2389  0.1604
   80CHL1  H22A 8383   5.618   4.752   8.051 -2.3450 -0.5713 -0.8819
   80CHL1  H22B 8384   5.603   4.573   8.017  0.3659 -0.6484  0.5811
   80CHL1   C23 8385   5.754   4.633   8.157  0.0516 -0.5292  0.0015
   80CHL1  H23A 8386   5.805   4.535   8.156 -0.7959 -0.9845  0.2968
   80CHL1  H23B 8387   5.833   4.712   8.156  0.6305 -1.1139 -0.2613
   80CHL1   C24 8388   5.676   4.647   8.294 -0.4132 -0.0555 -0.3866
   80CHL1  H24A 8389   5.647   4.754   8.296  1.3475  0.4473 -0.4935
   80CHL1  H24B 8390   5.581   4.590   8.291  0.8896 -2.1838 -3.3398
   80CHL1   C25 8391   5.747   4.629   8.430 -0.6423 -0.3797  0.0836
   80CHL1   H25 8392   5.784   4.525   8.422  1.3529  0.1545  1.9297
   80CHL1   C26 8393   5.869   4.724   8.439 -0.0726 -0.5295  0.5012
   80CHL1  H26A 8394   5.936   4.720   8.350 -1.9403  3.5707 -1.2038
   80CHL1  H26B 8395   5.822   4.824   8.435 -0.8888 -0.9082  0.5877
   80CHL1  H26C 8396   5.930   4.708   8.531  1.4328 -1.2062 -0.5826
   80CHL1   C27 8397   5.656   4.637   8.562 -0.5143  0.6285  0.0775
   80CHL1  H27A 8398   5.553   4.608   8.533  0.0221 -4.4314  2.6227
   80CHL1  H27B 8399   5.700   4.587   8.651  0.0696  1.3738  0.2167
   80CHL1  H27C 8400   5.642   4.742   8.594 -1.0176  0.9082 -1.0316
   81CHL1    C3 8401   3.341   4.788   6.888  0.3882  0.0524 -0.3113
   81CHL1    H3 8402   3.258   4.861   6.876  0.5576  0.0648 -1.4032
   81CHL1    O3 8403   3.385   4.744   6.759  0.2309 -0.4256 -0.7658
   81CHL1   H3' 8404   3.375   4.817   6.697  0.8081  0.0451 -0.3037
   81CHL1    C4 8405   3.457   4.874   6.945 -0.0328  0.2706 -0.1850
   81CHL1   H4A 8406   3.544   4.805   6.936 -0.4201 -0.3092  0.4651
   81CHL1   H4B 8407   3.471   4.952   6.867  3.9914 -0.4805 -0.2946
   81CHL1    C5 8408   3.433   4.925   7.088 -0.4749  0.1552 -0.8721
   81CHL1    C6 8409   3.448   5.053   7.128  0.0134  0.5136  0.2660
   81CHL1    H6 8410   3.470   5.135   7.058 -1.8183 -1.0896 -2.2957
   81CHL1    C7 8411   3.429   5.102   7.269 -0.2619 -0.0539  0.1758
   81CHL1   H7A 8412   3.503   5.180   7.297 -1.8693  0.9102  1.8903
   81CHL1   H7B 8413   3.337   5.165   7.273 -0.5281 -0.4107 -0.2898
   81CHL1    C8 8414   3.426   4.997   7.379  0.7340 -0.7035  0.3533
   81CHL1    H8 8415   3.531   4.960   7.385  1.2329  0.3446 -1.4436
   81CHL1   C14 8416   3.379   5.050   7.512  0.2081 -0.2507  0.4155
   81CHL1   H14 8417   3.283   5.102   7.491 -0.6761 -2.6662 -1.7572
   81CHL1   C15 8418   3.456   5.165   7.578  0.3475  0.1547  0.1099
   81CHL1  H15A 8419   3.565   5.167   7.553  1.1876 -1.6324  3.3217
   81CHL1  H15B 8420   3.429   5.264   7.535  0.3555  0.5156  0.9250
   81CHL1   C16 8421   3.421   5.152   7.725  0.0445  0.6741  0.4201
   81CHL1  H16A 8422   3.519   5.133   7.775  1.2245  1.5060 -1.5230
   81CHL1  H16B 8423   3.380   5.241   7.777 -0.2695  1.2575 -0.8092
   81CHL1   C17 8424   3.322   5.030   7.730 -1.2265 -1.2242  0.4524
   81CHL1   H17 8425   3.224   5.077   7.704  0.4332  1.2944 -1.4582
   81CHL1   C13 8426   3.359   4.942   7.613  1.1475  0.0695 -0.9643
   81CHL1   C18 8427   3.499   4.869   7.639 -0.2136 -0.0356 -0.3839
   81CHL1  H18A 8428   3.551   4.824   7.551 -0.7580  1.4435 -1.4702
   81CHL1  H18B 8429   3.568   4.931   7.699  1.4711 -2.6452  0.4927
   81CHL1  H18C 8430   3.472   4.783   7.704  1.0336 -1.1450 -1.2940
   81CHL1   C12 8431   3.249   4.851   7.560 -0.5400 -0.2179 -0.3306
   81CHL1  H12A 8432   3.230   4.772   7.636  1.1493 -1.1629 -0.8830
   81CHL1  H12B 8433   3.158   4.911   7.535 -0.6553 -0.7088 -1.1276
   81CHL1   C11 8434   3.296   4.778   7.430  0.3156 -0.0513 -0.3321
   81CHL1  H11A 8435   3.384   4.716   7.457  0.1784  0.6315  1.7841
   81CHL1  H11B 8436   3.213   4.709   7.402 -2.1797  2.3368  0.8646
   81CHL1    C9 8437   3.336   4.878   7.323  0.4244 -0.6850 -0.6550
   81CHL1    H9 8438   3.241   4.922   7.285  0.9023  0.5069 -0.5189
   81CHL1   C10 8439   3.391   4.814   7.190 -0.1525 -0.5385  0.0933
   81CHL1   C19 8440   3.516   4.733   7.235 -0.2354 -0.3422  0.3797
   81CHL1  H19A 8441   3.601   4.784   7.285  1.8874 -3.0992 -0.3058
   81CHL1  H19B 8442   3.485   4.648   7.299 -1.7236 -0.8750 -0.9926
   81CHL1  H19C 8443   3.567   4.685   7.148  0.3311  0.9939 -0.0333
   81CHL1    C1 8444   3.277   4.728   7.117 -0.4693 -0.7818  0.9676
   81CHL1   H1A 8445   3.251   4.646   7.188 -0.2057 -0.2471  1.6835
   81CHL1   H1B 8446   3.185   4.787   7.099 -1.0796 -2.0989 -0.3591
   81CHL1    C2 8447   3.318   4.669   6.990 -0.0934 -0.1802  0.1858
   81CHL1   H2A 8448   3.237   4.606   6.946 -1.3865  1.1485  0.6220
   81CHL1   H2B 8449   3.412   4.610   6.991  0.1552  0.2248  1.5757
   81CHL1   C20 8450   3.321   4.974   7.871 -0.1375  0.4011 -0.0395
   81CHL1   H20 8451   3.409   4.910   7.890 -0.8087  0.3153  3.1969
   81CHL1   C21 8452   3.205   4.877   7.882  0.8234 -0.1416 -0.1426
   81CHL1  H21A 8453   3.107   4.923   7.855  2.3594  2.5901 -1.2190
   81CHL1  H21B 8454   3.193   4.859   7.991  0.1850  1.1901  0.0250
   81CHL1  H21C 8455   3.218   4.781   7.829 -0.6502 -0.4062 -0.0661
   81CHL1   C22 8456   3.302   5.076   7.985  0.1215  0.2731  0.5468
   81CHL1  H22A 8457   3.321   5.020   8.079  0.2890 -0.1038  0.2879
   81CHL1  H22B 8458   3.380   5.154   7.976 -0.1907  0.5403  0.1275
   81CHL1   C23 8459   3.162   5.140   7.983 -0.5400 -0.0836 -0.0689
   81CHL1  H23A 8460   3.129   5.179   7.885  0.9307 -2.0718 -1.3968
   81CHL1  H23B 8461   3.089   5.057   7.999 -3.0289  2.0162 -0.3022
   81CHL1   C24 8462   3.136   5.245   8.091 -0.5816  0.1502 -0.3645
   81CHL1  H24A 8463   3.142   5.193   8.189 -1.8036  0.5956 -0.0379
   81CHL1  H24B 8464   3.218   5.320   8.088 -1.4938  1.1428 -1.2055
   81CHL1   C25 8465   2.992   5.313   8.088  0.2558  0.7983  0.6279
   81CHL1   H25 8466   2.919   5.229   8.098 -0.7175  1.4904 -0.5938
   81CHL1   C26 8467   2.971   5.403   8.213 -0.5495 -0.0159  0.1035
   81CHL1  H26A 8468   3.047   5.484   8.205  0.4429 -0.9668 -0.1101
   81CHL1  H26B 8469   2.868   5.441   8.229 -1.5797 -1.6401 -2.4083
   81CHL1  H26C 8470   2.989   5.348   8.307 -0.0765  1.3602  0.8351
   81CHL1   C27 8471   2.956   5.375   7.960 -0.4624 -0.2459 -0.7337
   81CHL1  H27A 8472   3.031   5.457   7.951 -2.0933  1.4575  0.7643
   81CHL1  H27B 8473   2.968   5.301   7.878  0.0295 -2.2137  1.0856
   81CHL1  H27C 8474   2.865   5.438   7.963  0.2214  0.7980 -1.4499
   82CHL1    C3 8475   4.383   5.940   6.817  0.5617  0.2862  0.4815
   82CHL1    H3 8476   4.356   6.046   6.837 -0.1305  0.6349 -2.1583
   82CHL1    O3 8477   4.426   5.925   6.686  0.4629  0.8311 -0.0864
   82CHL1   H3' 8478   4.441   5.831   6.673  1.2010  1.3495 -3.4193
   82CHL1    C4 8479   4.500   5.898   6.910  0.2943  0.0102 -0.6359
   82CHL1   H4A 8480   4.522   5.795   6.876  1.7196  0.4680 -1.1633
   82CHL1   H4B 8481   4.588   5.960   6.882  0.1365  0.7143  0.4086
   82CHL1    C5 8482   4.460   5.908   7.055 -0.4748 -0.8496  0.3364
   82CHL1    C6 8483   4.542   5.980   7.137  0.2006 -0.6231 -0.4289
   82CHL1    H6 8484   4.637   6.022   7.102 -0.1703  0.1142 -0.5618
   82CHL1    C7 8485   4.512   6.007   7.285 -0.2797  0.6336 -0.4079
   82CHL1   H7A 8486   4.610   6.012   7.336  0.7703 -0.9856 -2.1854
   82CHL1   H7B 8487   4.461   6.103   7.306 -3.7660 -0.9814 -0.9872
   82CHL1    C8 8488   4.411   5.898   7.339  0.3573 -0.3443  0.5834
   82CHL1    H8 8489   4.481   5.816   7.365  0.6914  0.7951  3.4475
   82CHL1   C14 8490   4.362   5.941   7.477  0.2764  0.9681 -0.1764
   82CHL1   H14 8491   4.299   6.031   7.459 -0.1454  0.5842 -0.6382
   82CHL1   C15 8492   4.468   5.978   7.580 -0.0584 -0.8548 -0.5858
   82CHL1  H15A 8493   4.553   5.907   7.586  0.0604 -0.6436  0.2258
   82CHL1  H15B 8494   4.501   6.080   7.553 -1.2453 -0.3147 -0.0213
   82CHL1   C16 8495   4.383   5.983   7.709  0.2513  0.3792 -0.3752
   82CHL1  H16A 8496   4.441   5.927   7.786  1.6717  2.2194 -0.0695
   82CHL1  H16B 8497   4.359   6.088   7.735 -4.3654 -0.9248  1.1637
   82CHL1   C17 8498   4.246   5.916   7.680  0.1528 -0.2954 -0.2518
   82CHL1   H17 8499   4.178   5.998   7.650  2.2419  1.5564 -0.0705
   82CHL1   C13 8500   4.267   5.836   7.549 -0.3883  0.2119 -0.1933
   82CHL1   C18 8501   4.347   5.708   7.576  0.2774 -0.2395  0.5418
   82CHL1  H18A 8502   4.430   5.725   7.648  1.5975  0.9946 -1.2281
   82CHL1  H18B 8503   4.286   5.622   7.611  0.5205 -1.7558 -2.5507
   82CHL1  H18C 8504   4.400   5.662   7.489 -1.0025 -0.3375 -0.2104
   82CHL1   C12 8505   4.149   5.816   7.450  0.4668  0.1326  0.6008
   82CHL1  H12A 8506   4.081   5.740   7.493  0.8809 -1.3079 -1.2250
   82CHL1  H12B 8507   4.084   5.904   7.427 -1.0241 -1.1030 -0.0170
   82CHL1   C11 8508   4.186   5.770   7.308 -0.3985  0.1660  1.0623
   82CHL1  H11A 8509   4.227   5.668   7.323 -0.3675 -0.0661 -0.4831
   82CHL1  H11B 8510   4.104   5.761   7.234  1.9547  0.9170 -1.7497
   82CHL1    C9 8511   4.297   5.866   7.243 -0.1754 -0.8879  0.0944
   82CHL1    H9 8512   4.247   5.964   7.234  1.1582 -0.2442 -0.5334
   82CHL1   C10 8513   4.334   5.835   7.096 -0.3190  0.2231 -0.2731
   82CHL1   C19 8514   4.361   5.679   7.084  0.0471  0.2031 -0.2644
   82CHL1  H19A 8515   4.415   5.634   6.998 -0.5069  0.0577 -0.5393
   82CHL1  H19B 8516   4.425   5.662   7.173 -1.1334  0.6305  0.6793
   82CHL1  H19C 8517   4.266   5.623   7.089  0.3804 -0.6492 -2.5991
   82CHL1    C1 8518   4.222   5.877   7.003 -0.0197  0.0593  0.1197
   82CHL1   H1A 8519   4.130   5.819   7.027  0.9954 -2.0533 -0.9294
   82CHL1   H1B 8520   4.199   5.986   7.006  1.0571  0.2765  0.6446
   82CHL1    C2 8521   4.261   5.856   6.851  0.7098 -0.2358 -0.3412
   82CHL1   H2A 8522   4.164   5.881   6.802  0.6226  0.6562  0.2770
   82CHL1   H2B 8523   4.278   5.747   6.842 -2.9928 -0.9267 -0.0554
   82CHL1   C20 8524   4.194   5.840   7.802 -0.0433 -0.4282  0.7132
   82CHL1   H20 8525   4.274   5.769   7.832  0.1452  0.1658  1.6430
   82CHL1   C21 8526   4.069   5.758   7.768 -0.4767 -0.1880  0.0229
   82CHL1  H21A 8527   4.089   5.678   7.694  0.5058 -1.8622  2.0228
   82CHL1  H21B 8528   3.983   5.814   7.725  1.3202  2.7606  0.1784
   82CHL1  H21C 8529   4.018   5.695   7.845 -1.6294  0.3946 -0.2521
   82CHL1   C22 8530   4.166   5.931   7.926 -0.7734  0.1001 -0.4341
   82CHL1  H22A 8531   4.263   5.975   7.958 -1.4125  1.2259 -0.0044
   82CHL1  H22B 8532   4.092   6.000   7.879 -0.8271 -1.7666 -3.2198
   82CHL1   C23 8533   4.092   5.868   8.046 -0.1694 -0.2769 -0.7475
   82CHL1  H23A 8534   3.987   5.841   8.022 -0.8936 -0.4741  2.4323
   82CHL1  H23B 8535   4.133   5.770   8.080 -2.1534 -1.6840 -2.2892
   82CHL1   C24 8536   4.095   5.952   8.178 -0.7128 -0.5093 -0.2633
   82CHL1  H24A 8537   4.204   5.959   8.200 -0.8814 -3.5224  1.9106
   82CHL1  H24B 8538   4.053   6.051   8.148 -0.5683 -0.2742  0.3117
   82CHL1   C25 8539   4.021   5.881   8.288  0.4204  0.6742  0.2364
   82CHL1   H25 8540   4.051   5.774   8.280 -0.3694  0.5067 -0.6410
   82CHL1   C26 8541   4.057   5.922   8.427 -0.2404 -0.3503 -0.0406
   82CHL1  H26A 8542   4.164   5.893   8.434  0.4609  2.1435 -0.1629
   82CHL1  H26B 8543   4.042   6.030   8.449 -1.8316 -0.4082 -0.7777
   82CHL1  H26C 8544   3.999   5.872   8.508 -1.3319 -0.3318 -0.8050
   82CHL1   C27 8545   3.865   5.901   8.262 -0.1117  0.1184 -0.1760
   82CHL1  H27A 8546   3.812   5.829   8.327  0.2996  0.1477  0.1931
   82CHL1  H27B 8547   3.837   5.999   8.304  2.5041  0.6153  0.4780
   82CHL1  H27C 8548   3.832   5.878   8.158 -0.1357 -0.7139  0.0119
   83CHL1    C3 8549   0.505   0.317   6.986 -0.0132 -0.1258  0.2839
   83CHL1    H3 8550   0.492   0.218   7.034 -1.2183 -0.9732 -1.7226
   83CHL1    O3 8551   0.529   0.302   6.849 -0.0924  0.1728  0.1361
   83CHL1   H3' 8552   0.545   0.394   6.828 -1.8169  0.4774  0.0432
   83CHL1    C4 8553   0.379   0.393   7.009  0.4528 -0.4735  0.0559
   83CHL1   H4A 8554   0.362   0.490   6.957 -1.5472 -1.5395 -1.3530
   83CHL1   H4B 8555   0.292   0.336   6.970 -1.3272  1.0065  1.7683
   83CHL1    C5 8556   0.354   0.408   7.158 -0.1877 -0.0762  0.3328
   83CHL1    C6 8557   0.236   0.367   7.208  0.1350  0.0579 -1.1097
   83CHL1    H6 8558   0.153   0.338   7.142 -2.8287 -2.0782  3.2573
   83CHL1    C7 8559   0.202   0.387   7.360  0.3014 -0.0335  0.1034
   83CHL1   H7A 8560   0.106   0.442   7.366  1.4354  1.9180  0.7972
   83CHL1   H7B 8561   0.185   0.286   7.403  0.8046 -0.2878 -0.2757
   83CHL1    C8 8562   0.306   0.466   7.442  0.4128  0.4298 -0.2150
   83CHL1    H8 8563   0.270   0.571   7.432 -2.0507 -0.5587 -2.2975
   83CHL1   C14 8564   0.296   0.423   7.583  0.3805  0.4467 -0.0910
   83CHL1   H14 8565   0.341   0.322   7.586 -1.5214 -0.4795 -1.9172
   83CHL1   C15 8566   0.150   0.420   7.637 -0.6152 -0.5600 -0.2716
   83CHL1  H15A 8567   0.106   0.521   7.624  0.9631 -0.0982 -2.3191
   83CHL1  H15B 8568   0.088   0.341   7.590  0.2143 -0.2655 -1.9036
   83CHL1   C16 8569   0.176   0.400   7.793  0.0420 -0.0549  0.5335
   83CHL1  H16A 8570   0.107   0.460   7.856 -1.7571 -1.3852 -0.1148
   83CHL1  H16B 8571   0.165   0.294   7.825  0.8549 -0.1302  0.5689
   83CHL1   C17 8572   0.331   0.426   7.816  0.2375  0.3033 -0.4465
   83CHL1   H17 8573   0.371   0.322   7.821 -1.5821 -0.3168  1.7908
   83CHL1   C13 8574   0.383   0.497   7.690  0.2900 -0.8231  0.3525
   83CHL1   C18 8575   0.336   0.643   7.704 -0.0612 -0.0913 -0.3075
   83CHL1  H18A 8576   0.240   0.657   7.759  0.9163  1.4303  1.0654
   83CHL1  H18B 8577   0.415   0.699   7.758 -0.6749  0.1497  0.3526
   83CHL1  H18C 8578   0.337   0.696   7.607  3.2030  0.0712 -0.2395
   83CHL1   C12 8579   0.526   0.485   7.644  0.1940 -0.1072 -0.2342
   83CHL1  H12A 8580   0.583   0.549   7.716  0.6114 -0.7220 -0.0093
   83CHL1  H12B 8581   0.557   0.379   7.654 -0.1033 -0.2361 -0.6811
   83CHL1   C11 8582   0.549   0.524   7.496 -0.1746  0.5953  0.8427
   83CHL1  H11A 8583   0.528   0.633   7.486  1.3114  1.0128  1.9490
   83CHL1  H11B 8584   0.650   0.507   7.455 -1.3194 -1.2060 -1.2932
   83CHL1    C9 8585   0.449   0.447   7.400 -0.2058 -0.3260 -0.2661
   83CHL1    H9 8586   0.471   0.338   7.410  1.2515 -0.1013 -0.8180
   83CHL1   C10 8587   0.465   0.469   7.245 -0.2456  0.3237  0.3648
   83CHL1   C19 8588   0.472   0.618   7.218 -0.2449  0.3286  0.2026
   83CHL1  H19A 8589   0.487   0.649   7.112 -0.4560  1.7026  0.5670
   83CHL1  H19B 8590   0.376   0.666   7.249 -0.2015  0.2721  0.4234
   83CHL1  H19C 8591   0.549   0.672   7.277 -0.7813 -1.5510  2.7173
   83CHL1    C1 8592   0.601   0.414   7.197  0.4199  0.3688 -0.3365
   83CHL1   H1A 8593   0.682   0.483   7.227  1.4613 -1.4302  1.0713
   83CHL1   H1B 8594   0.627   0.319   7.249 -2.6284 -0.3295  0.0296
   83CHL1    C2 8595   0.625   0.394   7.040 -0.0121  0.3457  0.4466
   83CHL1   H2A 8596   0.711   0.325   7.026  0.0281  0.4784  0.0401
   83CHL1   H2B 8597   0.650   0.488   6.986  0.9596 -1.0401 -1.5475
   83CHL1   C20 8598   0.363   0.479   7.961  0.3419  0.1521 -0.0013
   83CHL1   H20 8599   0.325   0.583   7.968 -2.1571 -0.7511  0.7558
   83CHL1   C21 8600   0.511   0.479   7.998 -0.6532  0.0389  0.0468
   83CHL1  H21A 8601   0.557   0.549   7.925  0.2696  1.4381  1.9176
   83CHL1  H21B 8602   0.568   0.384   7.998  2.5027  1.8750  1.1722
   83CHL1  H21C 8603   0.531   0.513   8.102  1.3986 -0.3179 -0.2178
   83CHL1   C22 8604   0.285   0.395   8.072 -0.1229  0.9007 -0.0910
   83CHL1  H22A 8605   0.177   0.413   8.052 -1.1118 -4.1856 -0.1897
   83CHL1  H22B 8606   0.306   0.286   8.057  1.4477  1.0008  1.2723
   83CHL1   C23 8607   0.303   0.438   8.217  0.2596  0.4436  0.2670
   83CHL1  H23A 8608   0.397   0.388   8.247  0.2713  1.6922  2.4583
   83CHL1  H23B 8609   0.313   0.549   8.216  2.5008  0.2513 -1.1315
   83CHL1   C24 8610   0.198   0.395   8.314  0.3926  0.4966 -0.6278
   83CHL1  H24A 8611   0.101   0.447   8.295 -0.4293 -0.3465  1.1606
   83CHL1  H24B 8612   0.182   0.286   8.299 -1.3694  0.9975 -2.6394
   83CHL1   C25 8613   0.225   0.415   8.468 -0.1665 -0.4806  1.5330
   83CHL1   H25 8614   0.282   0.329   8.509 -0.4510 -0.7675  1.3319
   83CHL1   C26 8615   0.318   0.545   8.489 -0.1880  0.5124  0.0794
   83CHL1  H26A 8616   0.271   0.629   8.434  0.2795 -0.1802 -1.4007
   83CHL1  H26B 8617   0.326   0.560   8.599 -0.5018  1.8241 -0.0647
   83CHL1  H26C 8618   0.421   0.526   8.452  0.2766  1.2361  0.9693
   83CHL1   C27 8619   0.097   0.424   8.546  0.4176 -0.6381  0.2083
   83CHL1  H27A 8620   0.118   0.428   8.655  1.7935 -0.2050 -0.0675
   83CHL1  H27B 8621   0.048   0.520   8.522  1.6716 -0.3612 -1.2551
   83CHL1  H27C 8622   0.028   0.340   8.523  0.6631 -0.7697 -0.0509
   84CHL1    C3 8623   2.242   2.710   6.978 -0.1269 -0.3690 -0.0732
   84CHL1    H3 8624   2.144   2.659   6.976  0.5254 -1.6459 -0.0243
   84CHL1    O3 8625   2.296   2.714   6.849 -0.8664  0.1711  0.0961
   84CHL1   H3' 8626   2.220   2.735   6.795  0.7356  3.1868 -1.1340
   84CHL1    C4 8627   2.231   2.851   7.036 -0.6156 -0.1684  0.3879
   84CHL1   H4A 8628   2.331   2.899   7.035 -0.5702 -0.2777 -0.8445
   84CHL1   H4B 8629   2.176   2.917   6.966  1.6324  0.4397 -0.8799
   84CHL1    C5 8630   2.177   2.856   7.180 -0.6846 -0.2484  0.0800
   84CHL1    C6 8631   2.072   2.937   7.206 -0.7268 -0.0017  0.1585
   84CHL1    H6 8632   2.034   3.008   7.131  2.6293  1.0566 -0.6242
   84CHL1    C7 8633   2.016   2.945   7.349 -0.6284  0.2170  0.3590
   84CHL1   H7A 8634   2.009   3.050   7.383  1.8836  0.9531 -1.2101
   84CHL1   H7B 8635   1.916   2.896   7.346 -0.2321 -0.5443 -2.5755
   84CHL1    C8 8636   2.106   2.874   7.460 -0.1387  0.4848 -0.3478
   84CHL1    H8 8637   2.193   2.938   7.486  1.9198 -1.4385 -2.2147
   84CHL1   C14 8638   2.034   2.843   7.595 -0.4650 -0.0632 -0.4475
   84CHL1   H14 8639   1.959   2.766   7.566 -2.2653  0.5245  2.4534
   84CHL1   C15 8640   1.978   2.959   7.664  0.3320  0.1091 -0.1829
   84CHL1  H15A 8641   2.061   3.032   7.656  0.5907 -0.4970 -4.1451
   84CHL1  H15B 8642   1.887   3.007   7.623  1.0625  1.0271 -0.7487
   84CHL1   C16 8643   1.961   2.920   7.805 -0.1336  0.5529  0.4016
   84CHL1  H16A 8644   2.006   2.989   7.880  1.9758  1.1412 -1.3421
   84CHL1  H16B 8645   1.855   2.915   7.838 -0.5404 -1.9682 -1.1950
   84CHL1   C17 8646   2.027   2.780   7.827 -0.3703  0.7199 -0.6034
   84CHL1   H17 8647   1.943   2.709   7.812 -0.6040  1.0146 -0.7146
   84CHL1   C13 8648   2.117   2.772   7.703 -0.0193 -0.4875 -0.5185
   84CHL1   C18 8649   2.252   2.847   7.736  0.2051  0.0583  0.4002
   84CHL1  H18A 8650   2.245   2.947   7.784  1.7115  0.0628  0.6335
   84CHL1  H18B 8651   2.315   2.784   7.803  1.4531  2.0988  1.1813
   84CHL1  H18C 8652   2.310   2.869   7.644  3.9080 -0.3286  2.5301
   84CHL1   C12 8653   2.142   2.630   7.645 -0.2680  0.7671  0.0816
   84CHL1  H12A 8654   2.200   2.578   7.724  1.3358 -0.1536 -1.6476
   84CHL1  H12B 8655   2.054   2.564   7.635  0.6417 -0.6519  1.3152
   84CHL1   C11 8656   2.222   2.642   7.517  0.4064  0.9285  0.8435
   84CHL1  H11A 8657   2.322   2.682   7.544  1.5001  0.9420 -2.9424
   84CHL1  H11B 8658   2.241   2.539   7.481  0.2238  1.5983 -1.2347
   84CHL1    C9 8659   2.155   2.742   7.409 -0.0987  0.4611  0.0550
   84CHL1    H9 8660   2.064   2.694   7.367 -0.5349  1.5491 -0.2343
   84CHL1   C10 8661   2.243   2.759   7.277  0.2593  0.1112 -0.5610
   84CHL1   C19 8662   2.380   2.813   7.319 -0.1063 -0.5610 -0.0203
   84CHL1  H19A 8663   2.424   2.743   7.393 -1.7186 -0.1888  1.3268
   84CHL1  H19B 8664   2.450   2.821   7.233  0.7374 -3.6436  0.3132
   84CHL1  H19C 8665   2.375   2.907   7.378  0.7205 -1.3405  1.3083
   84CHL1    C1 8666   2.269   2.620   7.214 -0.4369  0.8241  0.7092
   84CHL1   H1A 8667   2.340   2.562   7.275 -0.2341 -1.4599 -1.5949
   84CHL1   H1B 8668   2.176   2.559   7.208  0.4489 -0.2943 -2.9756
   84CHL1    C2 8669   2.327   2.628   7.072  0.5967  0.3495  0.6737
   84CHL1   H2A 8670   2.320   2.528   7.026 -1.4272  0.2423  1.1651
   84CHL1   H2B 8671   2.430   2.669   7.069  1.0993 -1.0127 -4.5972
   84CHL1   C20 8672   2.078   2.762   7.975  0.0967 -0.2590 -0.2743
   84CHL1   H20 8673   2.146   2.843   8.008 -1.1651  0.8227 -0.2802
   84CHL1   C21 8674   2.160   2.633   7.980  0.7672 -0.1950 -0.6057
   84CHL1  H21A 8675   2.190   2.615   8.086  3.8147  0.0466 -1.3618
   84CHL1  H21B 8676   2.259   2.644   7.930  0.4100  1.5805 -0.9741
   84CHL1  H21C 8677   2.102   2.542   7.958  0.4427  0.1436 -1.1693
   84CHL1   C22 8678   1.963   2.738   8.075  0.0735 -0.6796  0.2843
   84CHL1  H22A 8679   1.871   2.792   8.044  1.0233  0.1691 -1.1119
   84CHL1  H22B 8680   1.932   2.632   8.076 -4.2040  0.4605  0.8738
   84CHL1   C23 8681   1.991   2.785   8.220 -0.3082 -0.0229  0.4852
   84CHL1  H23A 8682   1.899   2.755   8.274 -0.9587  2.1000  0.6003
   84CHL1  H23B 8683   2.075   2.726   8.263  1.2362  1.7670 -0.0150
   84CHL1   C24 8684   2.030   2.935   8.236 -0.3464 -0.0186 -0.5246
   84CHL1  H24A 8685   2.104   2.953   8.155 -1.2214  3.2986 -0.6761
   84CHL1  H24B 8686   1.942   3.001   8.224  0.3874  1.2076  0.6183
   84CHL1   C25 8687   2.087   2.977   8.374  0.5021  0.3989 -0.0161
   84CHL1   H25 8688   2.169   2.908   8.403 -0.7129 -0.1810  2.1210
   84CHL1   C26 8689   2.146   3.126   8.373 -0.0062  0.0885 -0.0768
   84CHL1  H26A 8690   2.184   3.143   8.476 -0.3010  1.1628 -0.1335
   84CHL1  H26B 8691   2.228   3.144   8.300 -0.1730 -0.0643 -0.3022
   84CHL1  H26C 8692   2.071   3.204   8.349  1.6904  1.9129  0.3333
   84CHL1   C27 8693   1.986   2.965   8.481  0.8693  0.3703  0.0376
   84CHL1  H27A 8694   1.894   3.014   8.444  0.1191 -0.5416  0.6717
   84CHL1  H27B 8695   1.964   2.860   8.510  2.1578  0.3148  0.8794
   84CHL1  H27C 8696   2.014   3.008   8.580  0.2156  0.5504  0.1446
   85CHL1    C3 8697   1.963   6.746   6.778 -0.3661  0.8925 -0.0176
   85CHL1    H3 8698   2.027   6.666   6.819 -0.2126  0.4789 -1.0619
   85CHL1    O3 8699   2.001   6.769   6.641 -0.3433 -0.5040 -0.1105
   85CHL1   H3' 8700   1.943   6.715   6.588 -0.4677  0.0790 -0.5788
   85CHL1    C4 8701   1.810   6.710   6.804  0.6032 -0.2777  0.0892
   85CHL1   H4A 8702   1.766   6.790   6.741  0.4924 -0.9548 -0.6909
   85CHL1   H4B 8703   1.786   6.615   6.752 -0.1149 -0.1066  0.1028
   85CHL1    C5 8704   1.773   6.708   6.952 -0.4143 -0.1540  0.3982
   85CHL1    C6 8705   1.714   6.603   7.004 -0.1460 -0.1649  0.0506
   85CHL1    H6 8706   1.681   6.524   6.935  0.1792  0.9961 -1.4628
   85CHL1    C7 8707   1.667   6.579   7.150 -0.2098 -0.3131  0.4395
   85CHL1   H7A 8708   1.558   6.558   7.154 -0.4418  0.5024 -1.1501
   85CHL1   H7B 8709   1.712   6.485   7.189  2.5317  0.2968 -1.0848
   85CHL1    C8 8710   1.706   6.701   7.244  0.6354 -0.1799 -0.3173
   85CHL1    H8 8711   1.624   6.775   7.230 -0.8481 -1.3050  2.0065
   85CHL1   C14 8712   1.711   6.671   7.394 -0.4204  0.6693 -0.0084
   85CHL1   H14 8713   1.770   6.580   7.416 -1.1230  0.3386  0.5015
   85CHL1   C15 8714   1.581   6.625   7.452  0.3904  0.2974 -0.3579
   85CHL1  H15A 8715   1.492   6.688   7.432  0.7501  1.4622  1.6281
   85CHL1  H15B 8716   1.562   6.522   7.413  0.5058 -0.0159  0.3951
   85CHL1   C16 8717   1.607   6.637   7.604  0.1808 -0.1722  0.1751
   85CHL1  H16A 8718   1.515   6.672   7.656  1.2042  2.6610  0.1677
   85CHL1  H16B 8719   1.626   6.539   7.653 -1.8986 -0.2149  0.9479
   85CHL1   C17 8720   1.733   6.736   7.617 -0.3537 -0.0950 -0.3638
   85CHL1   H17 8721   1.818   6.665   7.631 -1.3556 -0.9753  1.5695
   85CHL1   C13 8722   1.760   6.787   7.476 -0.2110 -0.5016  0.2970
   85CHL1   C18 8723   1.668   6.913   7.469  0.7219  0.0726  0.3775
   85CHL1  H18A 8724   1.646   6.948   7.366 -2.7142  2.7186  1.9131
   85CHL1  H18B 8725   1.563   6.891   7.500  0.5334 -1.1997 -1.1060
   85CHL1  H18C 8726   1.710   7.000   7.523  0.9420  1.2578 -1.6648
   85CHL1   C12 8727   1.901   6.813   7.437  0.2680  0.5220 -0.9070
   85CHL1  H12A 8728   1.939   6.888   7.509  1.8058 -0.8149 -0.2913
   85CHL1  H12B 8729   1.968   6.725   7.453  0.0366  0.0106 -2.6190
   85CHL1   C11 8730   1.905   6.861   7.286 -0.5289 -0.6888  0.4465
   85CHL1  H11A 8731   1.847   6.955   7.282 -1.6021 -1.2936  1.3647
   85CHL1  H11B 8732   2.012   6.886   7.269 -0.7831 -0.9123 -1.6011
   85CHL1    C9 8733   1.840   6.768   7.192  0.1077  0.3775  0.2469
   85CHL1    H9 8734   1.913   6.685   7.180 -1.3829 -0.5516 -2.7564
   85CHL1   C10 8735   1.841   6.813   7.044  0.5807  0.2951  0.2929
   85CHL1   C19 8736   1.748   6.929   7.023  0.3856 -0.0523 -0.6518
   85CHL1  H19A 8737   1.649   6.905   7.066  0.4771 -2.0001 -1.4777
   85CHL1  H19B 8738   1.776   7.012   7.092 -0.1598 -0.1772 -0.2818
   85CHL1  H19C 8739   1.719   6.978   6.927  1.9040  1.3463 -0.4293
   85CHL1    C1 8740   1.986   6.852   6.996 -0.4189 -0.1973 -0.1667
   85CHL1   H1A 8741   2.000   6.950   7.046  1.5004 -0.7920  0.5045
   85CHL1   H1B 8742   2.058   6.782   7.042 -1.7362 -0.4178  1.5982
   85CHL1    C2 8743   2.001   6.873   6.850  0.1705  0.5276 -0.1475
   85CHL1   H2A 8744   2.109   6.887   6.826  0.7500 -1.1842  1.3285
   85CHL1   H2B 8745   1.948   6.966   6.820 -0.9961  1.0774  3.4077
   85CHL1   C20 8746   1.732   6.825   7.748  0.1886  0.1241 -0.3342
   85CHL1   H20 8747   1.652   6.902   7.747  0.2453  0.1789 -1.0621
   85CHL1   C21 8748   1.868   6.891   7.765 -0.0321 -0.0564  0.9223
   85CHL1  H21A 8749   1.948   6.814   7.774 -0.8491 -1.1168 -0.6344
   85CHL1  H21B 8750   1.870   6.957   7.854  3.8983 -0.2474  1.0778
   85CHL1  H21C 8751   1.877   6.970   7.687 -1.2674 -1.2847 -0.5060
   85CHL1   C22 8752   1.701   6.739   7.877  0.1035 -0.3905 -0.1496
   85CHL1  H22A 8753   1.604   6.689   7.859 -0.3466  0.1624  0.7283
   85CHL1  H22B 8754   1.764   6.650   7.896  0.6834 -0.1825 -1.0660
   85CHL1   C23 8755   1.689   6.818   8.003  0.5922 -0.5034 -0.5351
   85CHL1  H23A 8756   1.793   6.827   8.041  0.4105 -0.3831 -0.0639
   85CHL1  H23B 8757   1.649   6.921   7.994 -1.4913 -1.1926  0.4396
   85CHL1   C24 8758   1.608   6.751   8.111  0.9104  0.5203 -0.4601
   85CHL1  H24A 8759   1.646   6.807   8.199 -0.9602  1.7880 -0.4313
   85CHL1  H24B 8760   1.499   6.764   8.094  0.6688 -0.2957  0.4364
   85CHL1   C25 8761   1.637   6.600   8.136  0.5292  0.1254 -0.3328
   85CHL1   H25 8762   1.610   6.546   8.042 -0.5072 -2.1512  1.2369
   85CHL1   C26 8763   1.783   6.563   8.165 -0.0326  0.0499 -0.7902
   85CHL1  H26A 8764   1.853   6.601   8.087 -1.6004  1.1631 -1.7152
   85CHL1  H26B 8765   1.804   6.624   8.255 -2.7698  2.2860 -1.5763
   85CHL1  H26C 8766   1.808   6.456   8.175  0.6004  0.3305  0.6846
   85CHL1   C27 8767   1.556   6.558   8.254  0.8777 -0.1525  0.2630
   85CHL1  H27A 8768   1.455   6.605   8.257  0.7220 -0.3932 -1.2481
   85CHL1  H27B 8769   1.542   6.450   8.273  1.0277 -0.0014  1.3093
   85CHL1  H27C 8770   1.594   6.605   8.348 -2.9142 -0.5613  2.1351
   86CHL1    C3 8771   4.406   4.882   6.814 -0.9200 -0.9549  0.1742
   86CHL1    H3 8772   4.486   4.957   6.833 -1.1013 -0.9099  0.7676
   86CHL1    O3 8773   4.372   4.876   6.675 -0.0486 -0.1216  0.3889
   86CHL1   H3' 8774   4.291   4.825   6.670 -1.3374  1.9342 -0.8038
   86CHL1    C4 8775   4.445   4.741   6.864 -0.1312  0.3118 -0.2157
   86CHL1   H4A 8776   4.367   4.670   6.829 -0.0328 -0.3655  0.9242
   86CHL1   H4B 8777   4.541   4.721   6.812  1.3218  1.3963  1.9625
   86CHL1    C5 8778   4.466   4.728   7.010  0.0878 -0.5468  0.9317
   86CHL1    C6 8779   4.586   4.702   7.062 -0.2801  0.1275  0.3167
   86CHL1    H6 8780   4.671   4.677   6.998  0.7309  0.8291  1.3556
   86CHL1    C7 8781   4.611   4.686   7.212 -0.4109 -0.2353  0.5355
   86CHL1   H7A 8782   4.685   4.603   7.222  1.4581  1.1833 -1.1666
   86CHL1   H7B 8783   4.674   4.767   7.253  2.1579 -1.9579  0.1376
   86CHL1    C8 8784   4.484   4.682   7.298  0.2300  0.6543  0.1835
   86CHL1    H8 8785   4.437   4.583   7.281  0.4219  0.7041 -0.6437
   86CHL1   C14 8786   4.517   4.696   7.444  0.3867 -0.3946 -0.1850
   86CHL1   H14 8787   4.563   4.797   7.443 -0.0044 -0.2150  0.1301
   86CHL1   C15 8788   4.606   4.595   7.510  0.1640  0.0599 -0.1884
   86CHL1  H15A 8789   4.582   4.489   7.484  2.1104 -0.9895  2.0758
   86CHL1  H15B 8790   4.715   4.613   7.502  0.0478  0.2343 -1.5769
   86CHL1   C16 8791   4.571   4.618   7.661  0.2320 -0.4329  0.8397
   86CHL1  H16A 8792   4.537   4.517   7.694  1.0084 -1.2069 -0.6432
   86CHL1  H16B 8793   4.660   4.661   7.710  0.0951  0.8677 -0.0288
   86CHL1   C17 8794   4.465   4.728   7.669 -0.1318  0.3068 -0.8697
   86CHL1   H17 8795   4.514   4.827   7.665 -1.5714  1.0731 -0.1132
   86CHL1   C13 8796   4.390   4.711   7.533 -0.0282  0.1389  0.2972
   86CHL1   C18 8797   4.297   4.583   7.535 -0.4146  0.6162  0.2848
   86CHL1  H18A 8798   4.332   4.504   7.604 -2.2072  0.3292  0.8954
   86CHL1  H18B 8799   4.196   4.611   7.572 -0.7857  1.1866 -1.1204
   86CHL1  H18C 8800   4.285   4.539   7.434 -0.6768 -2.6794  1.6824
   86CHL1   C12 8801   4.306   4.829   7.492 -0.2196  0.3529 -0.8663
   86CHL1  H12A 8802   4.219   4.854   7.558 -0.7529 -1.7965 -0.7360
   86CHL1  H12B 8803   4.369   4.921   7.498  0.2884  0.0228 -1.2207
   86CHL1   C11 8804   4.265   4.819   7.347  0.0082 -0.3643  0.1499
   86CHL1  H11A 8805   4.192   4.736   7.344 -1.4502  0.8447  1.5454
   86CHL1  H11B 8806   4.210   4.908   7.307 -0.3416 -0.3595  0.6427
   86CHL1    C9 8807   4.389   4.795   7.253  0.2747 -0.1871 -0.1619
   86CHL1    H9 8808   4.451   4.887   7.267  0.8665 -0.2000 -2.4877
   86CHL1   C10 8809   4.348   4.783   7.095 -0.3868 -0.5241  0.4596
   86CHL1   C19 8810   4.240   4.684   7.092  0.6232  0.1501  0.1398
   86CHL1  H19A 8811   4.192   4.676   6.992 -0.7006  0.4551  0.7467
   86CHL1  H19B 8812   4.273   4.582   7.123 -1.2100 -0.5238 -0.0546
   86CHL1  H19C 8813   4.158   4.702   7.165 -1.8527 -0.7708 -2.3358
   86CHL1    C1 8814   4.299   4.922   7.037 -0.0837 -0.4255 -0.5216
   86CHL1   H1A 8815   4.213   4.948   7.103  0.2169 -0.6589 -0.0332
   86CHL1   H1B 8816   4.382   4.995   7.047  0.4967 -1.1184 -0.1501
   86CHL1    C2 8817   4.275   4.927   6.887 -0.0843 -0.2269 -0.4791
   86CHL1   H2A 8818   4.239   5.027   6.856 -1.2194 -0.6551 -0.5795
   86CHL1   H2B 8819   4.193   4.857   6.859 -0.6687 -0.3431  1.4032
   86CHL1   C20 8820   4.374   4.724   7.797  0.2589  0.8694  0.1780
   86CHL1   H20 8821   4.286   4.657   7.786  1.7632 -0.9857 -0.8749
   86CHL1   C21 8822   4.338   4.874   7.830 -0.8982  0.9388 -0.3801
   86CHL1  H21A 8823   4.243   4.882   7.887 -0.4976 -2.6488  0.9464
   86CHL1  H21B 8824   4.329   4.923   7.731  1.8699 -0.1208 -1.2136
   86CHL1  H21C 8825   4.422   4.921   7.887  1.3479 -2.2322 -0.9143
   86CHL1   C22 8826   4.439   4.650   7.918  0.0614  0.4961 -0.1448
   86CHL1  H22A 8827   4.433   4.540   7.907  0.0120  0.3129  1.5208
   86CHL1  H22B 8828   4.549   4.662   7.924  0.1871 -0.2561 -0.8355
   86CHL1   C23 8829   4.362   4.674   8.048 -0.8869 -0.0338 -0.8256
   86CHL1  H23A 8830   4.353   4.778   8.086 -3.1543 -0.1335 -1.0340
   86CHL1  H23B 8831   4.256   4.650   8.026 -0.6975 -0.3572 -1.3973
   86CHL1   C24 8832   4.409   4.574   8.157  0.2484  0.1396 -0.2005
   86CHL1  H24A 8833   4.361   4.475   8.142  1.7137 -0.7809  0.9603
   86CHL1  H24B 8834   4.519   4.558   8.144 -0.1617 -3.4970  0.2242
   86CHL1   C25 8835   4.397   4.625   8.298 -0.6240  1.4582 -0.4141
   86CHL1   H25 8836   4.297   4.672   8.308 -0.3333  2.4593 -1.9732
   86CHL1   C26 8837   4.402   4.515   8.405 -0.2472 -0.0696 -0.4942
   86CHL1  H26A 8838   4.501   4.465   8.406 -0.4100 -0.4040 -0.8891
   86CHL1  H26B 8839   4.380   4.548   8.509 -1.9248 -1.4331 -0.3964
   86CHL1  H26C 8840   4.337   4.430   8.378 -0.0989 -0.8578  1.5695
   86CHL1   C27 8841   4.500   4.748   8.322  0.3049  0.2783  0.1566
   86CHL1  H27A 8842   4.606   4.714   8.312  0.7522  1.3781  1.0499
   86CHL1  H27B 8843   4.493   4.825   8.242 -0.5937 -0.0286 -0.0594
   86CHL1  H27C 8844   4.473   4.792   8.420 -0.1482  1.4024 -0.4659
   87CHL1    C3 8845   4.095   2.966   6.861 -0.5809  0.0162  0.1389
   87CHL1    H3 8846   4.146   2.868   6.849  0.1747  0.5444 -1.2056
   87CHL1    O3 8847   4.135   3.034   6.741 -0.0630 -0.3712  0.1998
   87CHL1   H3' 8848   4.219   3.074   6.767 -0.2267  0.4966 -0.5711
   87CHL1    C4 8849   3.942   2.959   6.864  0.1577  0.3064 -0.3907
   87CHL1   H4A 8850   3.903   3.062   6.855  2.8593  1.3949 -0.2605
   87CHL1   H4B 8851   3.906   2.910   6.771 -0.9412  0.2826  0.0390
   87CHL1    C5 8852   3.893   2.900   6.990 -0.2723  0.4792  0.0740
   87CHL1    C6 8853   3.812   2.796   6.968 -0.7177  0.1976 -0.3871
   87CHL1    H6 8854   3.783   2.761   6.868 -1.3379 -1.0408  0.2192
   87CHL1    C7 8855   3.756   2.716   7.083  0.4343  0.2091 -0.1725
   87CHL1   H7A 8856   3.645   2.728   7.082  0.4732  0.4969 -0.8250
   87CHL1   H7B 8857   3.783   2.608   7.073 -0.2139 -0.1930  2.0938
   87CHL1    C8 8858   3.796   2.755   7.225  0.5884 -0.6410  0.3021
   87CHL1    H8 8859   3.723   2.833   7.254 -0.5869 -0.3811 -3.1461
   87CHL1   C14 8860   3.790   2.641   7.329 -0.4085  0.1905 -0.3167
   87CHL1   H14 8861   3.857   2.554   7.313 -2.6335 -1.4746 -0.7814
   87CHL1   C15 8862   3.650   2.573   7.330 -0.0606 -0.2030 -0.1921
   87CHL1  H15A 8863   3.569   2.649   7.338  0.1788 -0.1216  1.5992
   87CHL1  H15B 8864   3.628   2.510   7.241  0.3664  0.6159 -0.8900
   87CHL1   C16 8865   3.663   2.502   7.466  0.1986  0.3571  0.6149
   87CHL1  H16A 8866   3.571   2.523   7.525  1.6534  1.8050  2.4238
   87CHL1  H16B 8867   3.688   2.394   7.464  0.3510  0.4069 -0.9854
   87CHL1   C17 8868   3.779   2.562   7.554  0.8170  0.6977 -0.1934
   87CHL1   H17 8869   3.868   2.496   7.541  1.5137  1.5263  0.3195
   87CHL1   C13 8870   3.821   2.691   7.470 -0.2297 -0.3965  0.0876
   87CHL1   C18 8871   3.717   2.796   7.512  0.2238 -0.1521 -0.3892
   87CHL1  H18A 8872   3.716   2.895   7.462 -1.1945 -0.2765 -0.6478
   87CHL1  H18B 8873   3.614   2.753   7.517  0.7630 -1.4475 -0.1304
   87CHL1  H18C 8874   3.744   2.822   7.616  1.8587  0.1773 -0.8855
   87CHL1   C12 8875   3.972   2.734   7.470  0.7127  0.2340 -0.4922
   87CHL1  H12A 8876   3.994   2.779   7.569 -3.5481  1.2147  0.1180
   87CHL1  H12B 8877   4.039   2.647   7.454  0.1168 -0.2403 -0.4206
   87CHL1   C11 8878   3.995   2.842   7.370 -0.3908 -0.2220  0.0067
   87CHL1  H11A 8879   3.938   2.931   7.404  2.3086  2.9000 -3.2677
   87CHL1  H11B 8880   4.103   2.870   7.361 -0.1501 -1.6573 -2.0269
   87CHL1    C9 8881   3.938   2.816   7.223  0.1862 -0.3007  0.0631
   87CHL1    H9 8882   3.994   2.727   7.188 -0.9918 -1.1597  0.3369
   87CHL1   C10 8883   3.950   2.936   7.127  0.5610 -0.9931 -0.3432
   87CHL1   C19 8884   3.869   3.060   7.182 -0.0472  0.4856  0.2193
   87CHL1  H19A 8885   3.866   3.141   7.107 -0.0746 -0.4967 -0.8668
   87CHL1  H19B 8886   3.766   3.032   7.215 -0.1625  1.9390  1.0933
   87CHL1  H19C 8887   3.907   3.102   7.277 -0.6001  2.5222 -0.4391
   87CHL1    C1 8888   4.100   2.982   7.116 -0.4110  0.4808 -0.5173
   87CHL1   H1A 8889   4.138   3.049   7.196 -0.7854  2.1144 -1.6868
   87CHL1   H1B 8890   4.164   2.892   7.129  0.6362  1.2313 -0.4111
   87CHL1    C2 8891   4.134   3.047   6.980  0.1549  0.4843  0.0513
   87CHL1   H2A 8892   4.243   3.066   6.973  0.0147  1.6299  1.0097
   87CHL1   H2B 8893   4.084   3.146   6.970 -2.3920 -0.8551 -0.8933
   87CHL1   C20 8894   3.751   2.570   7.705  0.1983 -0.8781 -0.6685
   87CHL1   H20 8895   3.665   2.641   7.714  1.0401  0.2628 -1.3939
   87CHL1   C21 8896   3.878   2.628   7.770 -0.3380 -0.6276 -0.0540
   87CHL1  H21A 8897   3.859   2.618   7.879 -0.5728  0.8329  0.0587
   87CHL1  H21B 8898   3.909   2.730   7.737  1.6059 -1.6368 -1.4693
   87CHL1  H21C 8899   3.960   2.562   7.737 -0.9373 -1.9862  1.1502
   87CHL1   C22 8900   3.708   2.446   7.787  0.0738 -0.3848 -0.7337
   87CHL1  H22A 8901   3.636   2.389   7.725  0.7786 -1.9400 -0.1458
   87CHL1  H22B 8902   3.797   2.380   7.802  1.4556  1.9600  1.9309
   87CHL1   C23 8903   3.641   2.493   7.916  0.4757 -0.0610 -0.2098
   87CHL1  H23A 8904   3.729   2.503   7.983  0.5682  0.5814 -0.4284
   87CHL1  H23B 8905   3.583   2.585   7.896  1.5664  0.3893 -1.3315
   87CHL1   C24 8906   3.566   2.385   7.999 -0.4357  0.3729 -0.0205
   87CHL1  H24A 8907   3.489   2.344   7.930  3.7299 -2.3205 -3.3113
   87CHL1  H24B 8908   3.635   2.304   8.030 -0.6745  0.3003  0.3100
   87CHL1   C25 8909   3.497   2.437   8.127  0.2528  0.2064  0.4760
   87CHL1   H25 8910   3.434   2.353   8.163  0.6219 -0.4055 -0.3078
   87CHL1   C26 8911   3.610   2.470   8.233  0.6484  0.2768  0.3007
   87CHL1  H26A 8912   3.691   2.394   8.235  0.5904  0.1537 -1.3227
   87CHL1  H26B 8913   3.658   2.565   8.202 -0.3682  0.1714 -1.6448
   87CHL1  H26C 8914   3.571   2.485   8.336  2.3040  0.3833  0.9249
   87CHL1   C27 8915   3.417   2.568   8.103  0.7295 -0.1233  0.1305
   87CHL1  H27A 8916   3.485   2.653   8.082 -1.4046  0.9930 -2.5369
   87CHL1  H27B 8917   3.343   2.552   8.021  1.2320  0.8724 -0.5234
   87CHL1  H27C 8918   3.367   2.577   8.201  0.8432 -1.7035  0.3523
   88CHL1    C3 8919   2.007   1.131   7.007  0.7356  0.3021  0.4671
   88CHL1    H3 8920   2.036   1.025   7.022 -0.1870 -0.0532 -0.2546
   88CHL1    O3 8921   2.003   1.151   6.867  0.0377 -0.4199  0.0573
   88CHL1   H3' 8922   1.976   1.240   6.842  1.1267 -0.0551  0.1702
   88CHL1    C4 8923   1.862   1.142   7.067  0.0178 -1.2291  0.5063
   88CHL1   H4A 8924   1.820   1.242   7.042  0.8562 -0.3560  2.5014
   88CHL1   H4B 8925   1.785   1.073   7.026 -0.1392 -1.0863  0.5595
   88CHL1    C5 8926   1.858   1.136   7.221 -0.1358 -0.0720 -0.3879
   88CHL1    C6 8927   1.781   1.041   7.281  0.9629 -1.1287  0.5932
   88CHL1    H6 8928   1.719   0.978   7.216  0.5305 -0.0268 -0.0895
   88CHL1    C7 8929   1.764   1.032   7.426  0.4795  0.0863 -0.3109
   88CHL1   H7A 8930   1.657   1.015   7.446  0.6414 -1.0553 -0.4016
   88CHL1   H7B 8931   1.824   0.950   7.471 -4.4919 -2.4487  1.9994
   88CHL1    C8 8932   1.814   1.157   7.505 -0.2381 -0.3127  0.6076
   88CHL1    H8 8933   1.739   1.237   7.490 -0.8693 -1.1171 -0.6462
   88CHL1   C14 8934   1.817   1.126   7.656  0.0347  0.2298 -0.4614
   88CHL1   H14 8935   1.908   1.063   7.667 -0.4319 -0.1287  1.5749
   88CHL1   C15 8936   1.701   1.056   7.729 -0.4594 -0.1122 -0.6038
   88CHL1  H15A 8937   1.607   1.113   7.712 -0.8277  1.0125  4.5277
   88CHL1  H15B 8938   1.681   0.955   7.685 -1.5606  0.0107 -0.4125
   88CHL1   C16 8939   1.724   1.088   7.878 -0.4364  0.9060 -0.1167
   88CHL1  H16A 8940   1.640   1.137   7.933 -1.5106  0.9599 -1.7823
   88CHL1  H16B 8941   1.751   0.997   7.936  1.3355  0.6687 -1.2807
   88CHL1   C17 8942   1.856   1.181   7.885  0.2218  0.0649 -0.0615
   88CHL1   H17 8943   1.945   1.116   7.886 -1.2221 -1.9744  0.8593
   88CHL1   C13 8944   1.859   1.245   7.744  0.3512  0.5320  0.0663
   88CHL1   C18 8945   1.755   1.354   7.741 -0.5376 -0.1352 -0.6461
   88CHL1  H18A 8946   1.660   1.320   7.786 -0.1573  0.3918  0.5589
   88CHL1  H18B 8947   1.799   1.436   7.801  1.2726 -0.0537 -2.0538
   88CHL1  H18C 8948   1.739   1.389   7.636  1.7245 -0.3747 -1.0865
   88CHL1   C12 8949   1.991   1.299   7.688  0.1145 -0.3301 -0.8553
   88CHL1  H12A 8950   2.020   1.399   7.728  1.9346 -0.5368 -1.5844
   88CHL1  H12B 8951   2.078   1.232   7.705 -0.6411 -0.9770  0.5524
   88CHL1   C11 8952   1.992   1.333   7.533  1.0318 -0.3049  0.5322
   88CHL1  H11A 8953   1.929   1.423   7.519  1.7134  0.2213  0.7914
   88CHL1  H11B 8954   2.095   1.364   7.502  1.3424 -2.3202 -0.5419
   88CHL1    C9 8955   1.946   1.215   7.449  0.6029  0.1936 -0.3688
   88CHL1    H9 8956   2.022   1.138   7.474  1.3970  0.6556 -1.3122
   88CHL1   C10 8957   1.951   1.238   7.295  0.5349  0.3446 -0.0280
   88CHL1   C19 8958   1.894   1.391   7.276 -0.1167  0.1951  0.5349
   88CHL1  H19A 8959   1.797   1.385   7.329  0.2445 -3.3842  0.8849
   88CHL1  H19B 8960   1.959   1.466   7.326 -1.1784  1.4755  0.0202
   88CHL1  H19C 8961   1.881   1.423   7.170 -0.5234 -1.8263 -0.0376
   88CHL1    C1 8962   2.091   1.230   7.234  0.0204  0.2053  0.5185
   88CHL1   H1A 8963   2.150   1.322   7.257  2.4268 -0.5468 -2.3602
   88CHL1   H1B 8964   2.131   1.132   7.265 -3.3765 -1.2551  0.4630
   88CHL1    C2 8965   2.104   1.228   7.078 -0.8612 -0.4465 -0.2351
   88CHL1   H2A 8966   2.209   1.207   7.048  0.4930 -0.7645  4.4469
   88CHL1   H2B 8967   2.081   1.331   7.045 -1.7598 -1.1792 -2.0228
   88CHL1   C20 8968   1.863   1.278   8.014  1.1287  1.5937 -0.3475
   88CHL1   H20 8969   1.784   1.356   8.009  1.1549  1.6770  0.5928
   88CHL1   C21 8970   1.992   1.364   8.017 -0.1093  0.4778 -0.4685
   88CHL1  H21A 8971   1.991   1.431   8.106  1.0641 -0.6391  0.4008
   88CHL1  H21B 8972   1.990   1.424   7.924  1.5674 -0.0147 -0.8503
   88CHL1  H21C 8973   2.087   1.306   8.019 -0.6246 -0.3860 -0.4605
   88CHL1   C22 8974   1.843   1.199   8.148 -0.3305 -0.2495 -0.5401
   88CHL1  H22A 8975   1.777   1.110   8.142 -0.1695 -0.3211 -1.2808
   88CHL1  H22B 8976   1.939   1.163   8.191 -1.3411 -0.9968  1.1411
   88CHL1   C23 8977   1.779   1.284   8.262  0.1136  0.2118  0.0600
   88CHL1  H23A 8978   1.853   1.364   8.283 -2.0794  2.3257  0.0725
   88CHL1  H23B 8979   1.684   1.335   8.232  0.3761  0.5429 -0.2088
   88CHL1   C24 8980   1.750   1.207   8.391 -0.2027  0.0573  0.1600
   88CHL1  H24A 8981   1.653   1.155   8.377 -1.3360  2.4120 -0.7905
   88CHL1  H24B 8982   1.830   1.129   8.388 -0.8479 -0.6019 -0.2055
   88CHL1   C25 8983   1.756   1.290   8.520 -0.4713  0.0561  0.1267
   88CHL1   H25 8984   1.851   1.348   8.520 -0.1448 -0.4337  1.5816
   88CHL1   C26 8985   1.637   1.385   8.518  0.5407  0.5582 -0.5649
   88CHL1  H26A 8986   1.543   1.344   8.476  0.8957 -1.6230  0.6737
   88CHL1  H26B 8987   1.605   1.421   8.619 -0.0929 -0.5899 -0.3533
   88CHL1  H26C 8988   1.658   1.474   8.455 -0.2584  1.2136  0.0857
   88CHL1   C27 8989   1.763   1.215   8.648 -0.4871  0.0586 -0.0498
   88CHL1  H27A 8990   1.664   1.168   8.666 -0.7657  0.3089 -0.8846
   88CHL1  H27B 8991   1.834   1.131   8.657 -1.8623 -0.9771  1.3820
   88CHL1  H27C 8992   1.771   1.281   8.737  0.3813 -1.0450  0.6971
   89CHL1    C3 8993   5.071   4.386   6.873 -0.1108  0.4192 -0.0341
   89CHL1    H3 8994   5.178   4.385   6.905  0.1287 -0.2574 -0.8293
   89CHL1    O3 8995   5.087   4.414   6.738  0.4021 -0.2436 -0.0363
   89CHL1   H3' 8996   5.010   4.464   6.709  1.6526  0.7511 -1.7872
   89CHL1    C4 8997   4.995   4.251   6.881 -0.2118  0.2035  0.3605
   89CHL1   H4A 8998   4.893   4.273   6.845 -0.3646 -0.1456  0.5728
   89CHL1   H4B 8999   5.044   4.175   6.816  1.8452  1.7393  0.0672
   89CHL1    C5 9000   4.994   4.208   7.027 -0.6903  0.4601  0.7531
   89CHL1    C6 9001   5.057   4.098   7.071  0.1965  0.8613  0.7787
   89CHL1    H6 9002   5.120   4.051   6.994 -0.6343  2.5711 -0.9840
   89CHL1    C7 9003   5.068   4.053   7.211  0.8452  0.4229 -0.2493
   89CHL1   H7A 9004   5.039   3.947   7.223  0.8562  0.3407 -0.9392
   89CHL1   H7B 9005   5.171   4.078   7.245  0.5952  0.6670  0.3410
   89CHL1    C8 9006   4.964   4.129   7.310 -0.1071  0.0642  0.0669
   89CHL1    H8 9007   4.863   4.085   7.294  0.8164 -1.7932 -0.7535
   89CHL1   C14 9008   4.994   4.108   7.456  0.9452  0.4571 -0.1409
   89CHL1   H14 9009   5.094   4.150   7.480  2.2439 -1.2535 -2.3086
   89CHL1   C15 9010   5.007   3.951   7.502  0.2465  0.0420  0.1016
   89CHL1  H15A 9011   4.934   3.883   7.453  2.0213 -2.4308  0.8243
   89CHL1  H15B 9012   5.110   3.910   7.502  0.5500  0.7999  0.1504
   89CHL1   C16 9013   4.991   3.951   7.654  1.1492 -0.2261  0.7625
   89CHL1  H16A 9014   4.908   3.885   7.687 -0.9514  1.0287 -1.9160
   89CHL1  H16B 9015   5.088   3.921   7.700  0.2695 -2.4666  1.2169
   89CHL1   C17 9016   4.954   4.108   7.691 -0.6339  0.0368 -0.1259
   89CHL1   H17 9017   5.059   4.139   7.711  0.2316 -2.5958 -0.3758
   89CHL1   C13 9018   4.904   4.172   7.558  0.9887 -0.0856  0.0566
   89CHL1   C18 9019   4.756   4.120   7.532 -0.7875 -0.2198 -0.7878
   89CHL1  H18A 9020   4.697   4.145   7.622  1.2548 -1.4661  0.9364
   89CHL1  H18B 9021   4.731   4.170   7.436 -0.8888  0.0814 -0.6042
   89CHL1  H18C 9022   4.757   4.009   7.526 -2.1312 -0.3228  0.6995
   89CHL1   C12 9023   4.908   4.330   7.531  0.4455  0.6578 -0.1280
   89CHL1  H12A 9024   4.830   4.387   7.585 -0.1001 -0.0826 -0.1244
   89CHL1  H12B 9025   5.013   4.361   7.553  0.5243  0.7403 -0.6195
   89CHL1   C11 9026   4.877   4.368   7.384 -0.4397  0.2521 -0.0357
   89CHL1  H11A 9027   4.768   4.350   7.365 -0.3919 -0.9340  0.7754
   89CHL1  H11B 9028   4.905   4.473   7.364  0.2163 -0.0630 -0.8061
   89CHL1    C9 9029   4.956   4.285   7.280  0.2963  0.0359  0.3058
   89CHL1    H9 9030   5.063   4.313   7.288 -0.1009  2.0117 -0.9442
   89CHL1   C10 9031   4.922   4.310   7.126 -0.7789  0.1541  0.1373
   89CHL1   C19 9032   4.770   4.297   7.100 -0.1041  0.8901 -0.2298
   89CHL1  H19A 9033   4.716   4.360   7.174  0.8000  0.0474  1.1620
   89CHL1  H19B 9034   4.741   4.337   7.001 -0.7554  0.8455 -0.0598
   89CHL1  H19C 9035   4.728   4.197   7.122  0.4177  0.6317 -0.4054
   89CHL1    C1 9036   4.970   4.455   7.089 -0.3172 -0.5120  0.3578
   89CHL1   H1A 9037   4.914   4.534   7.143  0.0459 -1.3241  1.9807
   89CHL1   H1B 9038   5.071   4.462   7.135 -0.5479 -0.7964  0.9210
   89CHL1    C2 9039   4.993   4.491   6.937 -0.1271  0.0220 -0.4451
   89CHL1   H2A 9040   5.043   4.590   6.931  2.0501 -0.9640  1.1403
   89CHL1   H2B 9041   4.892   4.498   6.889  0.3949  0.8882 -1.4523
   89CHL1   C20 9042   4.878   4.120   7.823 -0.4656  0.1153 -0.0569
   89CHL1   H20 9043   4.779   4.071   7.817 -0.2118 -0.3341 -0.5438
   89CHL1   C21 9044   4.843   4.272   7.836 -0.3261 -0.5775 -0.3980
   89CHL1  H21A 9045   4.925   4.336   7.795 -0.6501 -0.6792 -1.2233
   89CHL1  H21B 9046   4.809   4.302   7.937 -1.3269  2.3990 -1.5718
   89CHL1  H21C 9047   4.755   4.286   7.769  1.0024  0.8825 -1.9197
   89CHL1   C22 9048   4.955   4.066   7.948 -0.1174  0.0618 -0.1506
   89CHL1  H22A 9049   4.981   3.960   7.928 -2.7934 -0.6402 -0.0436
   89CHL1  H22B 9050   5.049   4.126   7.954  0.6314 -0.7447 -2.7648
   89CHL1   C23 9051   4.874   4.068   8.084  0.1839 -0.5079 -0.2274
   89CHL1  H23A 9052   4.871   4.178   8.101  1.1357 -0.6439  0.9036
   89CHL1  H23B 9053   4.772   4.030   8.064  0.5787 -1.9766  0.4924
   89CHL1   C24 9054   4.935   3.988   8.198 -0.6564  0.7487  0.1600
   89CHL1  H24A 9055   4.922   3.880   8.173  1.5052  0.5217 -0.1112
   89CHL1  H24B 9056   5.038   4.016   8.230 -0.7047  1.1772 -0.0566
   89CHL1   C25 9057   4.855   4.017   8.329 -0.2474  0.2085  0.4181
   89CHL1   H25 9058   4.752   3.983   8.307  0.8071 -1.6438 -1.8469
   89CHL1   C26 9059   4.917   3.936   8.449 -0.2496 -0.5727 -0.5233
   89CHL1  H26A 9060   4.861   3.945   8.545  0.0387 -1.2120 -0.2934
   89CHL1  H26B 9061   4.917   3.828   8.422 -0.8367 -0.4520 -1.0134
   89CHL1  H26C 9062   5.019   3.979   8.463 -1.5758  2.6557 -0.4375
   89CHL1   C27 9063   4.844   4.171   8.364 -0.1352  0.3594  0.6761
   89CHL1  H27A 9064   4.780   4.223   8.290 -0.5814  0.0135  0.8217
   89CHL1  H27B 9065   4.808   4.197   8.466 -2.3720  0.8892 -0.2287
   89CHL1  H27C 9066   4.945   4.212   8.341  0.5593 -1.5958  0.0644
   90CHL1    C3 9067   5.044   6.203   7.054 -0.4073  0.0972 -0.5406
   90CHL1    H3 9068   4.949   6.149   7.036 -1.0116  1.5047 -1.6792
   90CHL1    O3 9069   5.113   6.208   6.928 -0.2775  0.4115 -0.1934
   90CHL1   H3' 9070   5.197   6.246   6.955 -0.1069 -0.4292  0.4852
   90CHL1    C4 9071   5.014   6.345   7.103  0.1520  0.4945  0.2807
   90CHL1   H4A 9072   5.110   6.393   7.134  1.6563 -1.3211 -1.4176
   90CHL1   H4B 9073   4.977   6.410   7.020 -1.4722 -2.0852 -1.0864
   90CHL1    C5 9074   4.922   6.336   7.227 -0.0742 -0.3792  0.2953
   90CHL1    C6 9075   4.806   6.399   7.229 -0.5660  0.3320  0.1444
   90CHL1    H6 9076   4.778   6.457   7.139  0.6620  1.2971  0.3709
   90CHL1    C7 9077   4.717   6.388   7.356  0.5407  0.2027 -0.4407
   90CHL1   H7A 9078   4.670   6.487   7.373 -0.2042 -0.3579  0.8820
   90CHL1   H7B 9079   4.641   6.310   7.332  0.4338 -0.3655  1.6304
   90CHL1    C8 9080   4.800   6.350   7.488  0.0228  0.4425 -0.1025
   90CHL1    H8 9081   4.864   6.439   7.510 -2.3240  2.5789 -1.6382
   90CHL1   C14 9082   4.705   6.310   7.606  0.3720 -0.5023  0.8189
   90CHL1   H14 9083   4.645   6.225   7.565  0.6031 -0.3962  0.2575
   90CHL1   C15 9084   4.616   6.431   7.644 -0.2484  0.3950  0.4060
   90CHL1  H15A 9085   4.672   6.526   7.635 -3.1979  2.1496  0.1995
   90CHL1  H15B 9086   4.533   6.438   7.571  1.9435 -1.4418 -2.3921
   90CHL1   C16 9087   4.578   6.394   7.788 -0.1301  0.2884  0.4612
   90CHL1  H16A 9088   4.606   6.475   7.859  3.6527 -0.0755 -0.5033
   90CHL1  H16B 9089   4.467   6.387   7.789 -0.0927 -0.3379  0.4061
   90CHL1   C17 9090   4.649   6.259   7.822 -0.1296 -0.2618  0.2129
   90CHL1   H17 9091   4.580   6.182   7.782  0.7092 -0.5760 -0.6478
   90CHL1   C13 9092   4.774   6.262   7.735 -0.6666 -0.0908 -0.2569
   90CHL1   C18 9093   4.867   6.378   7.796  0.2664 -0.8084 -0.4955
   90CHL1  H18A 9094   4.813   6.471   7.822  0.0809 -1.3959  1.2877
   90CHL1  H18B 9095   4.935   6.346   7.878 -0.1232 -1.9950 -0.6241
   90CHL1  H18C 9096   4.944   6.401   7.720  0.4876  0.4443  0.1020
   90CHL1   C12 9097   4.859   6.143   7.698 -0.2937 -0.6491  0.5627
   90CHL1  H12A 9098   4.925   6.101   7.777 -0.7608  0.4617  1.5475
   90CHL1  H12B 9099   4.790   6.062   7.666  0.9554 -1.1432 -0.9340
   90CHL1   C11 9100   4.966   6.179   7.594  0.1031 -0.0362  0.2274
   90CHL1  H11A 9101   5.044   6.240   7.644  0.1866  1.4344 -1.6637
   90CHL1  H11B 9102   5.028   6.090   7.571  0.3770 -0.2394  1.7030
   90CHL1    C9 9103   4.899   6.234   7.468  0.4368  0.4180 -0.6968
   90CHL1    H9 9104   4.824   6.158   7.437 -0.6043  0.9092  0.5930
   90CHL1   C10 9105   4.983   6.253   7.346  0.4473 -0.7673 -0.0201
   90CHL1   C19 9106   5.106   6.336   7.390 -0.3877  0.4692  0.5678
   90CHL1  H19A 9107   5.189   6.360   7.320  0.5475 -0.5840  1.3037
   90CHL1  H19B 9108   5.075   6.440   7.417 -1.0646  0.3653  0.2018
   90CHL1  H19C 9109   5.153   6.284   7.477 -0.4118 -0.1806  0.1933
   90CHL1    C1 9110   5.033   6.116   7.294 -0.4287 -0.1552 -0.0432
   90CHL1   H1A 9111   5.082   6.058   7.374  1.3991  2.2619  0.6690
   90CHL1   H1B 9112   4.944   6.058   7.260 -1.9325  1.3092  1.2735
   90CHL1    C2 9113   5.126   6.124   7.170  1.3408  0.1392  0.0423
   90CHL1   H2A 9114   5.154   6.026   7.125 -1.9274  0.7747 -3.6364
   90CHL1   H2B 9115   5.223   6.159   7.210 -0.1469  3.8420  0.6165
   90CHL1   C20 9116   4.669   6.238   7.971 -0.0109  1.2432 -0.4529
   90CHL1   H20 9117   4.725   6.324   8.013  1.0318 -0.1971  1.2129
   90CHL1   C21 9118   4.753   6.107   8.003 -0.7187  0.2411 -0.3875
   90CHL1  H21A 9119   4.775   6.088   8.111  0.0911 -0.8036 -0.7256
   90CHL1  H21B 9120   4.854   6.124   7.961 -0.4604 -2.6804 -1.0574
   90CHL1  H21C 9121   4.707   6.019   7.952  1.3585 -0.6654 -0.7505
   90CHL1   C22 9122   4.534   6.233   8.045 -0.5563  0.0881  0.6133
   90CHL1  H22A 9123   4.461   6.299   7.993 -2.0275 -1.8442  0.1516
   90CHL1  H22B 9124   4.506   6.127   8.023 -0.5116  0.1426  0.2869
   90CHL1   C23 9125   4.541   6.269   8.190  1.4783  0.6633 -0.1949
   90CHL1  H23A 9126   4.646   6.252   8.220  0.9089 -0.2832  1.3298
   90CHL1  H23B 9127   4.525   6.379   8.192  1.9332  0.7134  0.9323
   90CHL1   C24 9128   4.440   6.189   8.272 -0.3228  0.2230 -0.4205
   90CHL1  H24A 9129   4.342   6.200   8.220  0.7415 -1.6533 -2.8355
   90CHL1  H24B 9130   4.467   6.082   8.282  0.9571  0.6473  0.8930
   90CHL1   C25 9131   4.428   6.252   8.410 -0.1584  0.1666  0.3203
   90CHL1   H25 9132   4.395   6.357   8.399  1.6326  0.5895 -1.3424
   90CHL1   C26 9133   4.319   6.181   8.491 -0.3444 -0.2533 -0.3343
   90CHL1  H26A 9134   4.287   6.249   8.572 -1.9195 -0.7594 -0.5176
   90CHL1  H26B 9135   4.229   6.152   8.432 -1.2672 -0.8911  1.3583
   90CHL1  H26C 9136   4.370   6.093   8.535  0.1034  1.5037  2.8255
   90CHL1   C27 9137   4.560   6.249   8.493  0.1389  0.3535  0.0708
   90CHL1  H27A 9138   4.602   6.146   8.489 -2.1028 -0.5456 -1.6686
   90CHL1  H27B 9139   4.633   6.321   8.452  1.1158  0.5326  2.0484
   90CHL1  H27C 9140   4.527   6.261   8.599  0.2011 -1.5967  0.3258
   91CHL1    C3 9141   5.974   0.535   7.365  0.4048  0.0834 -0.6994
   91CHL1    H3 9142   5.900   0.615   7.388 -1.0631 -1.9617  1.9390
   91CHL1    O3 9143   5.988   0.528   7.231 -0.2826 -0.2123 -0.2085
   91CHL1   H3' 9144   6.023   0.442   7.210  1.0181  0.1646  0.3588
   91CHL1    C4 9145   6.103   0.575   7.431 -0.2663  0.0771  0.2298
   91CHL1   H4A 9146   6.179   0.501   7.398  0.7397  1.3280 -0.2652
   91CHL1   H4B 9147   6.140   0.671   7.390 -1.7285  0.3738 -0.4183
   91CHL1    C5 9148   6.089   0.576   7.576  0.6121 -0.5774  0.4582
   91CHL1    C6 9149   6.134   0.680   7.645  0.0989 -0.1395  0.0930
   91CHL1    H6 9150   6.181   0.764   7.591 -0.4501  0.0789 -0.0493
   91CHL1    C7 9151   6.140   0.691   7.792  0.2354 -0.4524 -0.0118
   91CHL1   H7A 9152   6.243   0.722   7.818  0.5914 -2.0586  0.5674
   91CHL1   H7B 9153   6.066   0.769   7.820  1.7303  0.7137  0.7057
   91CHL1    C8 9154   6.110   0.560   7.866  0.3187  0.5118 -0.0782
   91CHL1    H8 9155   6.208   0.507   7.865 -0.5950 -1.2633  1.5627
   91CHL1   C14 9156   6.081   0.582   8.012  0.2029  0.2702 -0.4399
   91CHL1   H14 9157   5.995   0.653   8.010  1.3468  1.6656 -1.0447
   91CHL1   C15 9158   6.184   0.657   8.099  0.3091 -1.0316 -0.2616
   91CHL1  H15A 9159   6.290   0.637   8.073  0.8215 -0.2840  1.2281
   91CHL1  H15B 9160   6.170   0.767   8.089  1.2561 -0.8291  0.5722
   91CHL1   C16 9161   6.155   0.610   8.243 -0.1114 -0.8678 -0.2522
   91CHL1  H16A 9162   6.244   0.550   8.272  0.1637  0.2317  1.2657
   91CHL1  H16B 9163   6.137   0.691   8.316  1.4782  1.8537 -2.7461
   91CHL1   C17 9164   6.038   0.514   8.235  0.1849  0.5504 -0.1434
   91CHL1   H17 9165   5.949   0.580   8.239  0.1834  0.6254 -1.2282
   91CHL1   C13 9166   6.048   0.456   8.096  0.6620  0.0255 -0.0595
   91CHL1   C18 9167   6.167   0.362   8.092  0.0221  0.5286  0.0045
   91CHL1  H18A 9168   6.179   0.335   7.985 -0.4540 -1.8200  0.5105
   91CHL1  H18B 9169   6.261   0.408   8.128  0.4021  0.2640 -0.6348
   91CHL1  H18C 9170   6.160   0.272   8.157  1.0906  0.9974  0.7903
   91CHL1   C12 9171   5.925   0.388   8.036 -0.1354  0.2479 -0.4183
   91CHL1  H12A 9172   5.894   0.291   8.081  0.1266 -0.1283 -1.0337
   91CHL1  H12B 9173   5.849   0.469   8.034  0.4262  0.7701 -1.1347
   91CHL1   C11 9174   5.950   0.364   7.879  0.2238 -0.4286 -0.0287
   91CHL1  H11A 9175   6.030   0.288   7.869 -1.2554 -1.7572 -2.0973
   91CHL1  H11B 9176   5.858   0.321   7.833  0.2039  0.1171 -0.5080
   91CHL1    C9 9177   5.997   0.482   7.798  0.2046  0.2494 -0.3030
   91CHL1    H9 9178   5.916   0.557   7.811 -0.6949 -0.9101  0.8718
   91CHL1   C10 9179   6.028   0.452   7.649  0.0567 -0.0521  0.4364
   91CHL1   C19 9180   6.140   0.342   7.643 -0.5066  0.5100  0.1943
   91CHL1  H19A 9181   6.229   0.371   7.703  0.3105 -1.0996 -0.2373
   91CHL1  H19B 9182   6.099   0.244   7.676  1.7026 -0.7845 -0.8062
   91CHL1  H19C 9183   6.174   0.314   7.542  0.4650 -1.5792  1.0706
   91CHL1    C1 9184   5.904   0.399   7.571  0.6258  0.0736 -0.6434
   91CHL1   H1A 9185   5.880   0.296   7.607  0.1392 -0.2240 -1.8109
   91CHL1   H1B 9186   5.822   0.466   7.605 -0.9843 -3.0404  1.9454
   91CHL1    C2 9187   5.912   0.410   7.420 -0.3778 -0.7233 -0.4711
   91CHL1   H2A 9188   5.816   0.388   7.369 -2.3137  2.0384  1.7946
   91CHL1   H2B 9189   5.980   0.325   7.397  1.5302  0.8944 -0.9401
   91CHL1   C20 9190   6.024   0.415   8.348 -0.5825 -0.2708  0.3698
   91CHL1   H20 9191   6.038   0.312   8.308  0.4526 -0.8144  2.0595
   91CHL1   C21 9192   5.879   0.434   8.395 -0.7391  0.4480  0.1601
   91CHL1  H21A 9193   5.875   0.527   8.456 -0.4392  0.5501  0.0246
   91CHL1  H21B 9194   5.856   0.345   8.458 -0.0855  0.4349  0.3771
   91CHL1  H21C 9195   5.806   0.451   8.313 -1.0961  2.8764  0.9414
   91CHL1   C22 9196   6.121   0.435   8.467  0.3488  0.3010 -0.6757
   91CHL1  H22A 9197   6.222   0.416   8.425  0.6625 -0.9957  0.6217
   91CHL1  H22B 9198   6.120   0.543   8.493  0.7999 -0.1134  1.1090
   91CHL1   C23 9199   6.107   0.337   8.586  0.0761  0.1223 -0.0125
   91CHL1  H23A 9200   6.193   0.350   8.655 -0.3135 -2.8699  1.1415
   91CHL1  H23B 9201   6.020   0.359   8.652 -0.6001  0.2722 -0.9556
   91CHL1   C24 9202   6.122   0.185   8.549  0.0454 -0.2032  0.2047
   91CHL1  H24A 9203   6.043   0.153   8.478  0.7022  0.0802 -0.6553
   91CHL1  H24B 9204   6.215   0.172   8.489 -0.5680  0.9331 -1.0240
   91CHL1   C25 9205   6.119   0.086   8.665 -0.3311 -0.7164 -0.0154
   91CHL1   H25 9206   6.023   0.096   8.719 -0.0582 -0.4751  0.4225
   91CHL1   C26 9207   6.115  -0.056   8.601 -0.4860 -0.4143 -0.1238
   91CHL1  H26A 9208   6.218  -0.091   8.578  0.3688  1.2698  1.0643
   91CHL1  H26B 9209   6.070  -0.122   8.678 -0.1242  0.2766  0.6905
   91CHL1  H26C 9210   6.055  -0.066   8.508  1.5490  0.7605 -1.6050
   91CHL1   C27 9211   6.227   0.100   8.771  0.4586 -0.1803  0.2472
   91CHL1  H27A 9212   6.206   0.022   8.847 -1.6882 -1.9554 -2.1131
   91CHL1  H27B 9213   6.322   0.085   8.715 -0.7157  1.2969 -2.2141
   91CHL1  H27C 9214   6.236   0.196   8.827 -1.9253  0.7720 -0.9159
   92CHL1    C3 9215   2.242   2.367   6.755 -0.2461 -0.0778 -0.1512
   92CHL1    H3 9216   2.291   2.449   6.812 -0.4670  1.1495 -1.7076
   92CHL1    O3 9217   2.274   2.385   6.618 -0.0228  0.2385 -0.2072
   92CHL1   H3' 9218   2.357   2.339   6.603 -0.9956 -1.1089 -1.7077
   92CHL1    C4 9219   2.298   2.232   6.817  0.1064  0.6623  0.6760
   92CHL1   H4A 9220   2.265   2.143   6.760  3.3779  0.2611 -0.6718
   92CHL1   H4B 9221   2.406   2.237   6.795 -0.2849 -2.1170 -2.1136
   92CHL1    C5 9222   2.269   2.209   6.966 -0.3243  0.0552 -0.0685
   92CHL1    C6 9223   2.362   2.187   7.061  0.3277  0.3795 -0.1093
   92CHL1    H6 9224   2.462   2.165   7.021  0.2143 -1.3746  0.5554
   92CHL1    C7 9225   2.333   2.159   7.204  0.2991  0.2355  0.0113
   92CHL1   H7A 9226   2.365   2.055   7.227 -0.5456 -0.2752 -1.0851
   92CHL1   H7B 9227   2.395   2.227   7.267 -1.5107  1.5704  0.3998
   92CHL1    C8 9228   2.182   2.147   7.237  0.8531 -0.0628  0.8432
   92CHL1    H8 9229   2.149   2.043   7.219 -0.6190  0.5997 -0.4674
   92CHL1   C14 9230   2.163   2.178   7.387  0.0021 -0.8887  0.7451
   92CHL1   H14 9231   2.199   2.282   7.399 -1.8540  0.1660 -2.2092
   92CHL1   C15 9232   2.249   2.099   7.485  0.4246 -0.5390  0.2492
   92CHL1  H15A 9233   2.242   1.990   7.465  0.2354 -0.6835  1.0781
   92CHL1  H15B 9234   2.348   2.141   7.514 -0.5220  2.4479 -0.6807
   92CHL1   C16 9235   2.174   2.128   7.618 -0.0362  0.4300 -0.3698
   92CHL1  H16A 9236   2.143   2.028   7.655 -1.5829  0.4747 -1.5017
   92CHL1  H16B 9237   2.241   2.170   7.696  1.4590 -0.7193 -1.0139
   92CHL1   C17 9238   2.044   2.212   7.587 -0.2921 -0.1957  0.3585
   92CHL1   H17 9239   2.073   2.319   7.583 -1.3956  0.1378  0.9500
   92CHL1   C13 9240   2.013   2.185   7.442 -0.4183  0.1224 -0.1511
   92CHL1   C18 9241   1.950   2.045   7.420 -0.1892  0.1339  0.2863
   92CHL1  H18A 9242   1.959   2.016   7.313 -0.2912  0.3106  0.2288
   92CHL1  H18B 9243   1.999   1.969   7.484  1.3614  1.0655  0.2159
   92CHL1  H18C 9244   1.843   2.048   7.450 -0.4272 -0.0019 -0.5261
   92CHL1   C12 9245   1.940   2.291   7.361 -0.2576 -0.5572  0.5088
   92CHL1  H12A 9246   1.830   2.282   7.378 -0.4552  1.8879  0.6807
   92CHL1  H12B 9247   1.979   2.390   7.393 -1.5563 -0.1067  0.7560
   92CHL1   C11 9248   1.958   2.273   7.207  0.9456 -0.0738  0.1417
   92CHL1  H11A 9249   1.899   2.187   7.168  1.8321 -0.6720  0.1051
   92CHL1  H11B 9250   1.913   2.366   7.167  1.1772  0.4178  1.0194
   92CHL1    C9 9251   2.106   2.257   7.153 -0.1337 -0.1188 -0.0087
   92CHL1    H9 9252   2.166   2.349   7.171  0.9347 -0.6713 -0.6411
   92CHL1   C10 9253   2.126   2.236   6.998  0.1200 -0.4159  0.4119
   92CHL1   C19 9254   2.057   2.100   6.963  0.4364 -0.5393  0.4470
   92CHL1  H19A 9255   2.081   2.083   6.856  1.0573  0.7762  0.3669
   92CHL1  H19B 9256   2.082   2.013   7.028 -3.9126 -2.1946  0.0683
   92CHL1  H19C 9257   1.947   2.115   6.972  0.3578 -0.7408 -0.1729
   92CHL1    C1 9258   2.039   2.350   6.924  0.2372 -0.1182  0.3369
   92CHL1   H1A 9259   1.930   2.330   6.930  0.1873  0.4898  1.7174
   92CHL1   H1B 9260   2.047   2.440   6.989 -2.4696  0.6327 -0.3009
   92CHL1    C2 9261   2.083   2.371   6.777 -0.3996 -0.2383  0.0794
   92CHL1   H2A 9262   2.052   2.467   6.731  0.5517  0.6030  1.2014
   92CHL1   H2B 9263   2.048   2.278   6.727 -0.4996 -0.3766  0.4099
   92CHL1   C20 9264   1.939   2.186   7.699 -0.4448 -0.4177  0.3586
   92CHL1   H20 9265   1.915   2.077   7.702  3.2651 -1.2803  0.3894
   92CHL1   C21 9266   1.808   2.260   7.656 -0.5018  0.1985 -0.9735
   92CHL1  H21A 9267   1.749   2.276   7.749  0.4709 -0.5558 -0.2148
   92CHL1  H21B 9268   1.755   2.196   7.583  1.0707 -0.2259 -1.7727
   92CHL1  H21C 9269   1.834   2.358   7.610 -0.6487 -0.5933 -2.7699
   92CHL1   C22 9270   1.986   2.226   7.842 -0.1740  0.4851 -0.3442
   92CHL1  H22A 9271   2.095   2.202   7.846 -0.0366  1.3938  2.1407
   92CHL1  H22B 9272   1.977   2.336   7.847  1.2426  0.5140  3.0010
   92CHL1   C23 9273   1.924   2.156   7.966 -0.5435  0.2051 -0.4356
   92CHL1  H23A 9274   1.814   2.172   7.971 -0.5369  0.1291  0.0052
   92CHL1  H23B 9275   1.941   2.047   7.955  0.7170  0.5024 -1.4168
   92CHL1   C24 9276   1.994   2.210   8.098 -0.0345  0.0308 -0.0841
   92CHL1  H24A 9277   2.096   2.167   8.088  0.0121  0.9137 -4.2229
   92CHL1  H24B 9278   2.001   2.321   8.090 -0.7356  0.1496  0.8331
   92CHL1   C25 9279   1.922   2.174   8.222  0.1993  0.6847  0.4208
   92CHL1   H25 9280   1.888   2.070   8.203  3.1308 -0.2557  0.1061
   92CHL1   C26 9281   2.005   2.197   8.349 -0.3666 -0.1501 -0.1507
   92CHL1  H26A 9282   1.938   2.198   8.438  1.7498  3.3581  1.4681
   92CHL1  H26B 9283   2.077   2.113   8.356 -0.7713 -0.4062  1.0799
   92CHL1  H26C 9284   2.065   2.288   8.329 -0.7464 -0.5575 -3.4581
   92CHL1   C27 9285   1.797   2.271   8.233  0.2689  0.2448  0.1804
   92CHL1  H27A 9286   1.761   2.253   8.337  1.1581 -0.4499  0.3770
   92CHL1  H27B 9287   1.839   2.373   8.223  0.6367 -0.0841 -1.9509
   92CHL1  H27C 9288   1.722   2.248   8.154 -1.1013  0.3954  1.4331
   93CHL1    C3 9289   0.783   6.692   6.988 -0.6154 -0.9568  0.0108
   93CHL1    H3 9290   0.724   6.598   6.999 -2.0250  0.0138  0.8374
   93CHL1    O3 9291   0.811   6.708   6.847 -0.6301  0.4228  0.2517
   93CHL1   H3' 9292   0.878   6.776   6.840  0.4977 -0.6446  0.5558
   93CHL1    C4 9293   0.702   6.812   7.029  0.3173  0.6753  0.5211
   93CHL1   H4A 9294   0.749   6.904   6.989  1.2869  0.3112  0.8243
   93CHL1   H4B 9295   0.612   6.801   6.966 -1.3077  1.8753  2.5345
   93CHL1    C5 9296   0.679   6.822   7.181  0.4110 -0.4665  0.2088
   93CHL1    C6 9297   0.552   6.827   7.231 -0.1060 -0.4514  0.2550
   93CHL1    H6 9298   0.469   6.824   7.159 -0.0672 -0.0119  0.1939
   93CHL1    C7 9299   0.517   6.806   7.374 -0.0811  0.1566 -0.5265
   93CHL1   H7A 9300   0.455   6.895   7.401 -0.0080 -0.3852  1.5300
   93CHL1   H7B 9301   0.455   6.714   7.382  1.1189 -0.7186 -1.2667
   93CHL1    C8 9302   0.638   6.811   7.468  0.5781 -0.0170  0.4847
   93CHL1    H8 9303   0.666   6.919   7.467  1.5514 -0.2440  1.7080
   93CHL1   C14 9304   0.598   6.770   7.607 -0.0248 -0.3906  0.2069
   93CHL1   H14 9305   0.584   6.661   7.593  0.6876 -0.2965 -1.3917
   93CHL1   C15 9306   0.482   6.825   7.677  0.0264 -0.1969  0.1610
   93CHL1  H15A 9307   0.490   6.933   7.650 -0.4678  0.1056  1.1904
   93CHL1  H15B 9308   0.393   6.784   7.625  0.4456  1.1244 -1.6595
   93CHL1   C16 9309   0.499   6.806   7.827  0.1743 -0.6347 -0.2426
   93CHL1  H16A 9310   0.484   6.908   7.867  3.2687  0.2621 -1.1847
   93CHL1  H16B 9311   0.429   6.739   7.880 -0.7093  0.0454 -0.5527
   93CHL1   C17 9312   0.640   6.743   7.846 -0.2997  0.6631 -0.6978
   93CHL1   H17 9313   0.630   6.634   7.826 -2.5124  0.8410 -0.6494
   93CHL1   C13 9314   0.712   6.784   7.714 -0.2229  0.2647 -0.1459
   93CHL1   C18 9315   0.759   6.935   7.729 -0.0004  0.6505  0.0570
   93CHL1  H18A 9316   0.675   6.995   7.768 -1.6333 -1.5451  0.0016
   93CHL1  H18B 9317   0.851   6.929   7.792 -0.1588  2.8393  0.5419
   93CHL1  H18C 9318   0.797   6.979   7.635  1.6741  1.4983  1.0936
   93CHL1   C12 9319   0.838   6.699   7.659 -0.1002 -0.2011 -0.8073
   93CHL1  H12A 9320   0.926   6.715   7.725 -0.8507 -0.0701  0.1681
   93CHL1  H12B 9321   0.812   6.592   7.648 -3.1366  0.0857  2.8131
   93CHL1   C11 9322   0.874   6.740   7.507 -0.3345  0.1113  0.3766
   93CHL1  H11A 9323   0.921   6.840   7.505 -0.0118 -0.0564 -0.9521
   93CHL1  H11B 9324   0.946   6.661   7.476 -0.8178 -0.1512 -0.0820
   93CHL1    C9 9325   0.757   6.736   7.415 -0.0935  0.0967 -0.9006
   93CHL1    H9 9326   0.719   6.632   7.418 -2.1846  0.8831  2.0703
   93CHL1   C10 9327   0.800   6.781   7.272 -0.0692  0.0678 -0.1760
   93CHL1   C19 9328   0.880   6.912   7.270  0.0145 -0.8403 -0.1187
   93CHL1  H19A 9329   0.984   6.900   7.307 -0.0754  0.3696  0.5734
   93CHL1  H19B 9330   0.905   6.937   7.165  0.3862 -0.4563  0.0575
   93CHL1  H19C 9331   0.830   6.989   7.333 -2.2500 -1.1877 -1.4531
   93CHL1    C1 9332   0.882   6.664   7.210 -0.4964  0.0450  0.7658
   93CHL1   H1A 9333   0.977   6.663   7.269 -1.3109  0.1162  2.0831
   93CHL1   H1B 9334   0.831   6.566   7.222  3.7896 -1.9205  4.3059
   93CHL1    C2 9335   0.915   6.675   7.060  0.0345 -0.2507  0.1704
   93CHL1   H2A 9336   0.964   6.581   7.028 -1.2541 -1.1500  0.7716
   93CHL1   H2B 9337   0.991   6.753   7.039 -2.3535  1.4789 -2.4201
   93CHL1   C20 9338   0.710   6.773   7.989  0.3126  0.6763 -0.2178
   93CHL1   H20 9339   0.716   6.883   8.001 -2.3602  0.8132 -0.0184
   93CHL1   C21 9340   0.843   6.700   7.995  0.3686  0.2808 -0.6804
   93CHL1  H21A 9341   0.893   6.704   8.094 -0.3399  0.2744 -0.3206
   93CHL1  H21B 9342   0.911   6.726   7.910  0.6219  0.8162 -0.3207
   93CHL1  H21C 9343   0.824   6.594   7.972  0.0724 -0.6205  3.3838
   93CHL1   C22 9344   0.635   6.729   8.112 -0.1630  0.0407  0.5394
   93CHL1  H22A 9345   0.533   6.774   8.105  0.0393  0.7312  2.0025
   93CHL1  H22B 9346   0.632   6.618   8.113  2.4756 -0.1006 -1.3189
   93CHL1   C23 9347   0.697   6.781   8.242  0.4795  0.5839 -0.2450
   93CHL1  H23A 9348   0.785   6.718   8.265 -0.5438  0.0039  2.2755
   93CHL1  H23B 9349   0.742   6.882   8.231  0.3503  0.6648 -0.0449
   93CHL1   C24 9350   0.599   6.790   8.362 -1.0360 -0.3171  0.3853
   93CHL1  H24A 9351   0.532   6.873   8.330  1.2499  1.0919 -0.8655
   93CHL1  H24B 9352   0.535   6.700   8.375 -1.6090  0.5644  4.2804
   93CHL1   C25 9353   0.653   6.828   8.499  0.0712  0.5419 -0.0899
   93CHL1   H25 9354   0.564   6.873   8.547  0.0397  2.2211 -1.6678
   93CHL1   C26 9355   0.698   6.696   8.568  0.3328 -0.3680  0.2421
   93CHL1  H26A 9356   0.623   6.615   8.581  0.9664 -0.9032  0.5560
   93CHL1  H26B 9357   0.785   6.643   8.525 -0.9135 -0.7237 -1.9027
   93CHL1  H26C 9358   0.730   6.731   8.669 -1.9824 -0.6601  1.1213
   93CHL1   C27 9359   0.768   6.929   8.491  0.2798  0.2117 -0.0308
   93CHL1  H27A 9360   0.787   6.965   8.595 -0.7312  0.7520 -0.0260
   93CHL1  H27B 9361   0.864   6.889   8.454 -0.3209 -1.5627  0.2752
   93CHL1  H27C 9362   0.740   7.020   8.435 -0.1868 -0.8533 -1.5537
   94CHL1    C3 9363   2.981   2.996   6.931 -0.3407  0.4841 -0.2422
   94CHL1    H3 9364   3.082   3.015   6.974  0.4281 -2.4881 -0.5530
   94CHL1    O3 9365   3.010   2.993   6.791 -0.5154  0.1099 -0.3102
   94CHL1   H3' 9366   2.985   2.907   6.756  0.6440 -0.1168 -0.6324
   94CHL1    C4 9367   2.939   2.858   6.973  0.3416  0.3749 -0.0054
   94CHL1   H4A 9368   2.846   2.826   6.920 -1.0837  1.9100  1.4800
   94CHL1   H4B 9369   3.019   2.792   6.935 -0.0861  0.4698 -1.0984
   94CHL1    C5 9370   2.905   2.865   7.120 -0.0718  1.3024 -0.3058
   94CHL1    C6 9371   2.970   2.771   7.195  0.1804  0.2348  0.2375
   94CHL1    H6 9372   3.014   2.688   7.139  1.0970  0.2960  0.8611
   94CHL1    C7 9373   2.961   2.764   7.341 -0.3611 -0.3485  0.1319
   94CHL1   H7A 9374   2.935   2.658   7.358 -0.5427  0.0601  2.5520
   94CHL1   H7B 9375   3.056   2.787   7.395  0.5203 -1.7513 -0.7783
   94CHL1    C8 9376   2.845   2.848   7.406  0.0036  0.5135  0.0256
   94CHL1    H8 9377   2.750   2.796   7.382  0.9744 -1.4169  0.2319
   94CHL1   C14 9378   2.878   2.873   7.549 -0.5909 -0.2304 -0.2554
   94CHL1   H14 9379   2.973   2.931   7.554 -0.7442 -0.0820  1.0434
   94CHL1   C15 9380   2.898   2.753   7.645  0.6372  0.0793  0.3952
   94CHL1  H15A 9381   2.815   2.683   7.622  1.2152  0.1197 -1.9212
   94CHL1  H15B 9382   2.994   2.704   7.620 -0.3591 -2.5562  1.5524
   94CHL1   C16 9383   2.879   2.800   7.792  1.0881 -0.4277  0.3503
   94CHL1  H16A 9384   2.799   2.732   7.828 -0.6924  0.1503 -2.3230
   94CHL1  H16B 9385   2.974   2.792   7.849  1.1479  0.0953  0.3227
   94CHL1   C17 9386   2.830   2.948   7.769  0.5626  0.3031  0.2875
   94CHL1   H17 9387   2.917   3.016   7.761 -0.0209  0.7843 -2.4120
   94CHL1   C13 9388   2.777   2.953   7.625  1.0453  0.8762 -0.3784
   94CHL1   C18 9389   2.635   2.894   7.613 -0.1044 -0.2948  0.3910
   94CHL1  H18A 9390   2.638   2.802   7.676  1.8020 -0.0875  0.6339
   94CHL1  H18B 9391   2.551   2.961   7.643 -0.1283 -0.3099  0.3581
   94CHL1  H18C 9392   2.609   2.861   7.511  0.9955 -0.7605  0.2636
   94CHL1   C12 9393   2.776   3.100   7.557 -0.2546 -0.5293 -0.1430
   94CHL1  H12A 9394   2.699   3.161   7.608 -0.1977 -0.6578  0.0987
   94CHL1  H12B 9395   2.876   3.150   7.559  0.6266 -2.2655  0.2482
   94CHL1   C11 9396   2.746   3.090   7.405 -0.3151  0.0623  0.4202
   94CHL1  H11A 9397   2.639   3.072   7.382 -0.3337  0.2800  0.3278
   94CHL1  H11B 9398   2.761   3.190   7.359  1.2995 -0.3965 -0.0543
   94CHL1    C9 9399   2.845   2.984   7.336  0.1525 -0.8024  0.1060
   94CHL1    H9 9400   2.945   3.031   7.344 -0.5273  0.4897  1.1129
   94CHL1   C10 9401   2.825   2.980   7.181 -0.1685  0.8268  0.2629
   94CHL1   C19 9402   2.674   2.949   7.146 -0.4582 -0.4318  0.0114
   94CHL1  H19A 9403   2.672   2.956   7.035  0.7626  0.4508  0.0405
   94CHL1  H19B 9404   2.631   2.852   7.180 -1.3245  0.8152  2.5963
   94CHL1  H19C 9405   2.605   3.027   7.186  1.2142  0.4058  1.2843
   94CHL1    C1 9406   2.860   3.116   7.119 -0.7971 -0.3724 -0.6919
   94CHL1   H1A 9407   2.771   3.182   7.130 -0.5885 -0.5086  2.0939
   94CHL1   H1B 9408   2.947   3.162   7.169 -0.8968  0.2116 -1.0481
   94CHL1    C2 9409   2.882   3.104   6.969  0.4711  0.4412  0.3535
   94CHL1   H2A 9410   2.906   3.206   6.931 -1.6537  1.0650  0.6175
   94CHL1   H2B 9411   2.784   3.085   6.919  0.3781  0.9358  0.3375
   94CHL1   C20 9412   2.748   3.008   7.878 -0.2997 -0.2856 -0.5225
   94CHL1   H20 9413   2.701   3.104   7.849 -0.1271  0.1558  0.6193
   94CHL1   C21 9414   2.848   3.049   7.989 -0.2096 -0.5401  0.3962
   94CHL1  H21A 9415   2.792   3.093   8.075 -1.9205 -2.3786  0.2607
   94CHL1  H21B 9416   2.914   3.130   7.953 -1.0632  0.2527  0.5976
   94CHL1  H21C 9417   2.902   2.957   8.021  0.4948 -0.6549 -1.1135
   94CHL1   C22 9418   2.643   2.919   7.950 -0.3337  0.7948 -0.4783
   94CHL1  H22A 9419   2.591   2.853   7.877 -1.9900  0.5436  0.8907
   94CHL1  H22B 9420   2.689   2.848   8.022  0.3766  2.5107  0.7767
   94CHL1   C23 9421   2.524   2.993   8.010  0.2491  0.3676 -0.2916
   94CHL1  H23A 9422   2.543   3.094   8.052  1.3336 -0.2824  0.8181
   94CHL1  H23B 9423   2.455   3.014   7.925  1.1936 -0.7198 -1.3284
   94CHL1   C24 9424   2.451   2.920   8.116  0.2266  0.6254 -0.4141
   94CHL1  H24A 9425   2.356   2.967   8.149  1.6773  1.4086  2.7315
   94CHL1  H24B 9426   2.426   2.820   8.074 -1.0412  0.6287  0.2991
   94CHL1   C25 9427   2.533   2.891   8.237 -0.2619 -0.0907  0.2778
   94CHL1   H25 9428   2.631   2.848   8.208  0.2491  3.1947 -3.1046
   94CHL1   C26 9429   2.569   3.025   8.296 -0.5102  1.0305 -0.4097
   94CHL1  H26A 9430   2.473   3.079   8.311 -0.5078  0.9857 -0.2275
   94CHL1  H26B 9431   2.620   3.009   8.393 -2.7871  0.4501  0.7449
   94CHL1  H26C 9432   2.638   3.088   8.237  0.7482 -1.5587 -1.7717
   94CHL1   C27 9433   2.464   2.791   8.336 -0.0252 -0.0514  0.8716
   94CHL1  H27A 9434   2.528   2.781   8.427  1.0234 -0.6029  0.0744
   94CHL1  H27B 9435   2.367   2.836   8.366 -0.4092 -0.8097  0.7568
   94CHL1  H27C 9436   2.436   2.704   8.273 -1.6162  0.2799  1.0982
   95CHL1    C3 9437   2.755   1.749   6.729 -0.8163 -0.2380  0.6254
   95CHL1    H3 9438   2.644   1.744   6.726 -0.7235 -2.9640  0.8838
   95CHL1    O3 9439   2.796   1.761   6.597  0.3541 -0.3004  0.1890
   95CHL1   H3' 9440   2.832   1.675   6.575  1.5269  0.4956 -1.0611
   95CHL1    C4 9441   2.804   1.874   6.810 -0.4070 -0.5939 -0.0719
   95CHL1   H4A 9442   2.914   1.886   6.803 -0.1993 -0.4895  2.8588
   95CHL1   H4B 9443   2.758   1.962   6.760  0.7539  1.2327  1.9942
   95CHL1    C5 9444   2.768   1.844   6.956  0.3794 -0.3878 -0.4422
   95CHL1    C6 9445   2.686   1.931   7.012 -0.0066 -0.4440 -0.2818
   95CHL1    H6 9446   2.656   2.013   6.945 -1.3494  0.0207  0.8525
   95CHL1    C7 9447   2.649   1.943   7.154  0.0200  0.2860 -0.1327
   95CHL1   H7A 9448   2.664   2.049   7.184 -0.4309  0.5112 -0.6933
   95CHL1   H7B 9449   2.543   1.924   7.180  0.3311 -0.5307  0.5624
   95CHL1    C8 9450   2.742   1.854   7.236 -0.1419  0.0489  0.5895
   95CHL1    H8 9451   2.843   1.901   7.241 -0.2634  0.6962 -2.0599
   95CHL1   C14 9452   2.679   1.833   7.374 -0.1891  0.3682 -0.0856
   95CHL1   H14 9453   2.581   1.791   7.343 -0.3813  0.4925  0.3415
   95CHL1   C15 9454   2.645   1.957   7.455 -0.5506  0.0270 -0.3702
   95CHL1  H15A 9455   2.742   2.008   7.472 -1.1007  0.9200  0.0815
   95CHL1  H15B 9456   2.571   2.026   7.409  0.6869  1.0474 -0.8405
   95CHL1   C16 9457   2.610   1.893   7.593 -0.0649  0.1611 -0.6644
   95CHL1  H16A 9458   2.658   1.955   7.672  1.7168 -1.2643 -0.5932
   95CHL1  H16B 9459   2.502   1.881   7.615 -0.4053  1.8770 -1.3156
   95CHL1   C17 9460   2.665   1.747   7.594  0.3438  0.6519 -0.3706
   95CHL1   H17 9461   2.586   1.676   7.560  2.0984 -1.9110  0.7263
   95CHL1   C13 9462   2.759   1.740   7.468 -0.2428 -0.3130 -0.2691
   95CHL1   C18 9463   2.901   1.791   7.505  0.2254 -0.8228 -0.0048
   95CHL1  H18A 9464   2.967   1.786   7.416 -0.8622  1.3855 -0.9570
   95CHL1  H18B 9465   2.912   1.900   7.524 -1.8396 -0.2090 -2.1799
   95CHL1  H18C 9466   2.942   1.724   7.584 -1.1208  0.3406  1.7193
   95CHL1   C12 9467   2.770   1.603   7.404  0.1961 -0.2761  0.5631
   95CHL1  H12A 9468   2.838   1.545   7.469 -0.3495 -2.0280 -0.4002
   95CHL1  H12B 9469   2.670   1.554   7.397  1.2249 -2.2870 -0.4798
   95CHL1   C11 9470   2.830   1.612   7.261  0.1585 -0.2283 -0.5314
   95CHL1  H11A 9471   2.938   1.635   7.271 -0.5576  2.2330  2.1998
   95CHL1  H11B 9472   2.823   1.509   7.219  0.9413  0.1080 -1.5028
   95CHL1    C9 9473   2.768   1.719   7.168 -0.2608 -0.2552  0.2951
   95CHL1    H9 9474   2.663   1.684   7.157 -0.6379  0.5180  1.3080
   95CHL1   C10 9475   2.826   1.725   7.025  0.1864  0.1343 -0.5757
   95CHL1   C19 9476   2.976   1.728   7.031  0.2135 -0.3137  0.4303
   95CHL1  H19A 9477   3.019   1.625   7.036  1.1002  0.0341  0.0458
   95CHL1  H19B 9478   3.024   1.769   6.939  0.7454  1.1730  1.3492
   95CHL1  H19C 9479   3.017   1.787   7.116 -3.8227  1.1935  1.4680
   95CHL1    C1 9480   2.772   1.612   6.934 -0.5129  0.2269  0.4054
   95CHL1   H1A 9481   2.822   1.519   6.969  0.0796 -0.1592 -1.3624
   95CHL1   H1B 9482   2.663   1.591   6.938 -0.2176 -1.7246 -0.9475
   95CHL1    C2 9483   2.814   1.621   6.789 -0.2078  0.6385 -0.7207
   95CHL1   H2A 9484   2.766   1.541   6.730 -1.4677 -0.1104  1.2652
   95CHL1   H2B 9485   2.925   1.620   6.782  0.1463  2.9986  2.9383
   95CHL1   C20 9486   2.716   1.692   7.730 -0.4040  0.7815 -1.0964
   95CHL1   H20 9487   2.797   1.620   7.706 -1.0115  0.2184 -1.4718
   95CHL1   C21 9488   2.601   1.612   7.803  0.6174  0.1753  0.3122
   95CHL1  H21A 9489   2.568   1.534   7.731 -0.5097  0.9243  0.0131
   95CHL1  H21B 9490   2.520   1.683   7.830  1.4282  0.6396  1.5796
   95CHL1  H21C 9491   2.629   1.564   7.900 -0.0202 -1.8705 -0.4773
   95CHL1   C22 9492   2.767   1.795   7.826  0.2331  0.6207  0.2851
   95CHL1  H22A 9493   2.808   1.879   7.766 -1.7585 -0.2703 -2.4516
   95CHL1  H22B 9494   2.675   1.835   7.874 -0.5763 -0.6239 -0.2133
   95CHL1   C23 9495   2.863   1.746   7.939  0.1885 -0.2226 -0.6599
   95CHL1  H23A 9496   2.832   1.654   7.993 -1.5201 -0.4650 -2.0162
   95CHL1  H23B 9497   2.961   1.730   7.889  1.2411 -0.5129  1.4539
   95CHL1   C24 9498   2.899   1.856   8.046  0.0393  0.0897 -0.1101
   95CHL1  H24A 9499   2.978   1.816   8.113 -0.4925 -0.5637  0.1324
   95CHL1  H24B 9500   2.950   1.942   7.998  3.5886 -1.2171  1.1554
   95CHL1   C25 9501   2.781   1.903   8.131  0.2555 -0.3448  0.2172
   95CHL1   H25 9502   2.705   1.940   8.058  1.7683  1.6983 -0.3698
   95CHL1   C26 9503   2.717   1.784   8.211 -0.2715 -0.3605  0.5243
   95CHL1  H26A 9504   2.634   1.822   8.275 -0.3729  0.1355  0.1039
   95CHL1  H26B 9505   2.689   1.696   8.149  2.2844 -2.4123  2.1970
   95CHL1  H26C 9506   2.793   1.744   8.282  0.6032 -0.7179 -0.6068
   95CHL1   C27 9507   2.818   2.014   8.230 -0.1038  0.1257  0.1048
   95CHL1  H27A 9508   2.732   2.056   8.287 -0.2618  0.6193 -0.4953
   95CHL1  H27B 9509   2.874   1.970   8.315  0.8231  0.3794 -0.3758
   95CHL1  H27C 9510   2.879   2.093   8.183  0.4643  0.2842  1.0960
   96CHL1    C3 9511   3.383   1.217   6.800 -0.2604  0.6159 -0.8751
   96CHL1    H3 9512   3.421   1.121   6.841  1.8693  1.3793 -0.9930
   96CHL1    O3 9513   3.421   1.232   6.666  0.2388 -0.0190 -0.1496
   96CHL1   H3' 9514   3.406   1.325   6.646 -1.8721  0.1745  2.0433
   96CHL1    C4 9515   3.224   1.223   6.826 -0.3874  0.3912  0.5269
   96CHL1   H4A 9516   3.184   1.319   6.787 -0.9024 -0.5350 -1.2692
   96CHL1   H4B 9517   3.181   1.137   6.769  1.2244  0.1735 -0.3820
   96CHL1    C5 9518   3.187   1.198   6.972 -0.2577  0.0943  0.7837
   96CHL1    C6 9519   3.092   1.108   7.009 -0.2715  0.3053 -0.7156
   96CHL1    H6 9520   3.027   1.055   6.938 -0.9979 -1.7037  1.4058
   96CHL1    C7 9521   3.061   1.072   7.150  0.7962 -0.5051 -1.1853
   96CHL1   H7A 9522   2.950   1.077   7.162  0.8015 -2.1400 -0.3740
   96CHL1   H7B 9523   3.094   0.968   7.172 -0.8588 -1.3908 -2.7318
   96CHL1    C8 9524   3.120   1.173   7.255 -0.7200 -0.1086 -0.8679
   96CHL1    H8 9525   3.054   1.263   7.249  0.1022  0.5385 -0.3782
   96CHL1   C14 9526   3.112   1.121   7.403  0.3589  0.0510  0.1188
   96CHL1   H14 9527   3.165   1.024   7.403  0.3660  0.0426 -1.0981
   96CHL1   C15 9528   2.971   1.077   7.461 -0.4781 -0.2170  0.0254
   96CHL1  H15A 9529   2.909   1.167   7.442  0.6165  0.7676  1.0188
   96CHL1  H15B 9530   2.923   0.987   7.417 -1.4444  0.5525 -0.4919
   96CHL1   C16 9531   2.993   1.055   7.611 -0.2219 -0.4230  0.2926
   96CHL1  H16A 9532   2.916   1.116   7.663 -1.0386 -1.5483  0.4178
   96CHL1  H16B 9533   3.009   0.948   7.636 -2.4071 -0.4837  1.5398
   96CHL1   C17 9534   3.134   1.132   7.639  0.2471  0.4016  0.3882
   96CHL1   H17 9535   3.204   1.045   7.635  1.4041  1.3524 -0.5780
   96CHL1   C13 9536   3.173   1.206   7.508 -0.0001  0.4860 -1.0205
   96CHL1   C18 9537   3.103   1.339   7.521 -0.0601  0.1209  0.1445
   96CHL1  H18A 9538   3.149   1.403   7.600  1.4476  0.2255 -0.8050
   96CHL1  H18B 9539   3.108   1.406   7.433 -0.7873 -1.2740 -0.9781
   96CHL1  H18C 9540   2.999   1.328   7.558 -0.6341  0.6204 -1.2885
   96CHL1   C12 9541   3.323   1.223   7.476 -0.4362  0.7181 -0.1900
   96CHL1  H12A 9542   3.380   1.292   7.541  0.1024 -0.6940  0.8706
   96CHL1  H12B 9543   3.384   1.129   7.481  1.0150  1.4676 -2.8934
   96CHL1   C11 9544   3.341   1.296   7.337 -0.1803  1.2839  0.1239
   96CHL1  H11A 9545   3.298   1.399   7.338 -0.0296  1.4052 -2.3569
   96CHL1  H11B 9546   3.448   1.294   7.307  0.0056  0.5579  0.8341
   96CHL1    C9 9547   3.262   1.221   7.223  0.5780  0.4570  0.2952
   96CHL1    H9 9548   3.328   1.134   7.201 -1.2691 -0.6290 -1.2336
   96CHL1   C10 9549   3.264   1.274   7.078  0.1604 -0.1494  0.3141
   96CHL1   C19 9550   3.197   1.413   7.078 -0.2158 -0.8270  0.1444
   96CHL1  H19A 9551   3.088   1.398   7.089 -0.2394 -0.3796  0.5825
   96CHL1  H19B 9552   3.237   1.481   7.157 -0.5140  1.7468 -1.8517
   96CHL1  H19C 9553   3.201   1.472   6.984  0.8559  0.9326  1.2705
   96CHL1    C1 9554   3.414   1.297   7.042 -0.2416  0.6870 -0.1117
   96CHL1   H1A 9555   3.451   1.386   7.097  0.3348 -0.1316  0.8369
   96CHL1   H1B 9556   3.475   1.213   7.083 -1.0167 -0.3874 -1.1375
   96CHL1    C2 9557   3.439   1.319   6.890  0.5307 -0.7996  1.0638
   96CHL1   H2A 9558   3.548   1.331   6.878  0.2850  2.0668  1.2598
   96CHL1   H2B 9559   3.394   1.416   6.859  1.7073 -1.6126 -3.5461
   96CHL1   C20 9560   3.147   1.195   7.771 -0.4765  0.4142 -0.9230
   96CHL1   H20 9561   3.097   1.295   7.774  1.6135  1.5346 -2.0715
   96CHL1   C21 9562   3.296   1.207   7.823  0.0833 -0.0388  0.7420
   96CHL1  H21A 9563   3.341   1.106   7.829  0.1149 -0.1087 -0.4087
   96CHL1  H21B 9564   3.311   1.256   7.921  3.4726 -1.4124  0.9667
   96CHL1  H21C 9565   3.344   1.269   7.744  0.8227 -1.7901 -0.2008
   96CHL1   C22 9566   3.059   1.123   7.881 -0.2337  0.4532  0.1145
   96CHL1  H22A 9567   2.954   1.110   7.847  0.1570 -3.2400  0.1255
   96CHL1  H22B 9568   3.103   1.022   7.893 -1.8236 -0.3774 -0.9321
   96CHL1   C23 9569   3.053   1.192   8.021 -0.5488 -0.2234  0.0259
   96CHL1  H23A 9570   3.156   1.186   8.063 -0.8938 -0.5023  0.8527
   96CHL1  H23B 9571   3.040   1.298   7.991 -0.0673 -0.9480 -2.9052
   96CHL1   C24 9572   2.941   1.136   8.116 -0.4715 -0.0935 -0.0473
   96CHL1  H24A 9573   2.842   1.183   8.098  0.7761  1.3708 -3.2963
   96CHL1  H24B 9574   2.920   1.028   8.098  1.3620 -0.2312 -1.4611
   96CHL1   C25 9575   2.990   1.159   8.262  0.3556  0.5370  0.3245
   96CHL1   H25 9576   3.020   1.265   8.273  0.1984  0.6930 -0.7076
   96CHL1   C26 9577   2.868   1.141   8.347 -0.6273 -0.4351 -1.2186
   96CHL1  H26A 9578   2.894   1.140   8.455 -0.8274 -2.0291 -1.1768
   96CHL1  H26B 9579   2.798   1.226   8.334  0.2624  0.2329 -1.6991
   96CHL1  H26C 9580   2.806   1.052   8.324 -1.4493  0.1059 -1.1106
   96CHL1   C27 9581   3.100   1.063   8.306 -0.0302 -0.7927 -0.0878
   96CHL1  H27A 9582   3.147   1.116   8.392 -0.6059  1.1746 -0.9624
   96CHL1  H27B 9583   3.061   0.965   8.342  1.4721 -0.7760  1.6411
   96CHL1  H27C 9584   3.176   1.040   8.229 -1.1559 -4.3604 -0.2273
   97OSM      N 9585   1.374   2.091  11.162  0.3957 -0.2434  0.4931
   97OSM    C15 9586   1.517   2.122  11.175 -0.2371  0.4664 -0.0378
   97OSM   H15A 9587   1.582   2.038  11.195  0.8050  1.0143 -1.0267
   97OSM   H15B 9588   1.531   2.195  11.253  2.1896 -0.7605  0.7340
   97OSM   H15C 9589   1.551   2.173  11.086  0.3673  2.6213  1.3850
   97OSM    C14 9590   1.312   2.223  11.138 -0.2394  0.1421  0.3981
   97OSM   H14A 9591   1.358   2.288  11.066 -1.2564 -1.6239 -1.9230
   97OSM   H14B 9592   1.312   2.286  11.226 -2.0857  0.1860  0.3821
   97OSM   H14C 9593   1.210   2.218  11.101  0.8726 -3.0752 -2.5968
   97OSM    C13 9594   1.345   2.000  11.047  0.2228 -0.4040 -0.1878
   97OSM   H13A 9595   1.414   1.918  11.040  3.0828  1.7270  1.8953
   97OSM   H13B 9596   1.343   2.059  10.956 -3.0216  1.1069  0.7975
   97OSM   H13C 9597   1.243   1.966  11.052 -0.0606  0.5304  0.4022
   97OSM    C12 9598   1.331   2.026  11.289 -0.5047 -0.2039 -0.6728
   97OSM   H12A 9599   1.344   2.103  11.365  2.0683 -0.6124 -0.6551
   97OSM   H12B 9600   1.401   1.949  11.317 -0.7890 -0.4391 -0.6105
   97OSM    C11 9601   1.185   1.974  11.301  0.4814  0.0954  0.3580
   97OSM   H11A 9602   1.111   2.048  11.264 -0.5931 -1.3073 -0.3869
   97OSM   H11B 9603   1.155   1.951  11.405 -0.4637  0.3761  0.1530
   97OSM      P 9604   1.202   1.717  11.246  0.4334  0.1675  0.1438
   97OSM    O13 9605   1.319   1.698  11.334 -0.1354  0.6276 -0.6248
   97OSM    O14 9606   1.079   1.647  11.291 -0.6623 -0.0949 -0.6030
   97OSM    O11 9607   1.235   1.660  11.098 -0.1373 -0.6447  0.0702
   97OSM    O12 9608   1.166   1.865  11.213  0.1942  0.5165 -0.0350
   97OSM    C1S 9609   1.149   1.680  10.985  0.5073 -0.5583  0.5709
   97OSM    H1S 9610   1.117   1.786  10.977 -0.7078 -0.9096  0.8016
   97OSM    H1T 9611   1.057   1.621  10.999 -0.1173  0.6502  1.6282
   97OSM     NF 9612   1.101   1.671  10.748 -0.1140  0.0896 -0.8518
   97OSM    HNF 9613   1.052   1.588  10.722  2.8531 -1.1313 -2.7677
   97OSM    C2S 9614   1.206   1.651  10.846  0.4827 -0.5270  0.2303
   97OSM    H2S 9615   1.293   1.716  10.821 -0.7269  0.6613 -1.0073
   97OSM    C3S 9616   1.273   1.509  10.860 -0.0963  0.4450 -0.0082
   97OSM    H3S 9617   1.197   1.439  10.901 -0.5368 -0.7885 -2.8447
   97OSM     O3 9618   1.381   1.493  10.956 -0.1925  0.2034  0.1820
   97OSM    HO3 9619   1.376   1.578  11.000  1.0897  0.6896 -0.5745
   97OSM    C4S 9620   1.325   1.458  10.723  0.0529  0.2356 -0.5236
   97OSM    H4S 9621   1.409   1.516  10.682  0.1085 -0.1857 -1.0110
   97OSM    C5S 9622   1.278   1.350  10.657 -0.0962 -0.2448 -0.2240
   97OSM    H5S 9623   1.204   1.290  10.712 -1.8670  3.7354  1.9424
   97OSM    C6S 9624   1.310   1.294  10.519  0.5932 -0.3224  0.1982
   97OSM    H6S 9625   1.354   1.192  10.530  3.2073  0.6800 -0.4459
   97OSM    H6T 9626   1.393   1.354  10.476  1.9460  0.4780  3.6964
   97OSM    C7S 9627   1.185   1.296  10.424  0.0809  0.3640  0.3588
   97OSM    H7S 9628   1.143   1.398  10.414  1.1238  0.5675 -2.2944
   97OSM    H7T 9629   1.113   1.222  10.466  2.2479 -2.0860 -0.0635
   97OSM    C8S 9630   1.218   1.241  10.281  1.0205 -0.1588 -0.6035
   97OSM    H8S 9631   1.224   1.132  10.301 -2.8757  0.1111  3.0325
   97OSM    H8T 9632   1.317   1.290  10.269  0.8073  0.4944  0.2391
   97OSM    C9S 9633   1.129   1.291  10.169  0.3909  0.3958 -0.4409
   97OSM    H9S 9634   1.131   1.402  10.176 -0.1882  0.3026  1.7555
   97OSM    H9T 9635   1.030   1.245  10.187 -0.6949  1.7112 -2.8350
   97OSM   C10S 9636   1.177   1.253  10.028 -0.3600 -0.6504 -0.3460
   97OSM   H10S 9637   1.181   1.145  10.004  1.4930 -0.1210 -2.6674
   97OSM   H10T 9638   1.283   1.286  10.029 -0.0030 -1.6987 -1.6608
   97OSM   C11S 9639   1.095   1.330   9.915  0.4455  0.5286 -0.1581
   97OSM   H11S 9640   1.064   1.434   9.939 -1.2130 -0.0702  0.3558
   97OSM   H11T 9641   0.998   1.276   9.909 -0.0148  1.3379 -0.0402
   97OSM   C12S 9642   1.154   1.331   9.776 -0.2385 -0.0416  0.5415
   97OSM   H12S 9643   1.198   1.231   9.758  0.1235  0.2493 -0.1714
   97OSM   H12T 9644   1.234   1.408   9.769  0.1793 -0.2604  2.5166
   97OSM   C13S 9645   1.052   1.367   9.670 -1.0285  0.4888 -0.0585
   97OSM   H13S 9646   1.048   1.477   9.655 -4.2520  0.4143 -0.1632
   97OSM   H13T 9647   0.948   1.339   9.698 -0.7447  0.3767  0.9084
   97OSM   C14S 9648   1.081   1.308   9.527 -0.1119  0.3404 -0.8437
   97OSM   H14S 9649   1.070   1.198   9.535  0.7045  0.3121 -0.0457
   97OSM   H14T 9650   1.184   1.323   9.488 -0.1761  1.3861 -0.6228
   97OSM   C15S 9651   0.978   1.369   9.430 -0.9165  0.2640  0.0424
   97OSM   H15S 9652   0.999   1.477   9.415  3.0042 -0.3631  0.3873
   97OSM   H15T 9653   0.877   1.375   9.475 -0.3197 -1.4116  1.6850
   97OSM   C16S 9654   0.961   1.289   9.300 -0.0637  0.0285 -0.2712
   97OSM   H16S 9655   0.863   1.315   9.256 -1.5140 -0.7440  2.3425
   97OSM   H16T 9656   0.958   1.180   9.321  1.3747  0.1769  0.7761
   97OSM   C17S 9657   1.075   1.314   9.205 -1.0144  0.5664  0.6411
   97OSM   H17S 9658   1.170   1.275   9.248 -0.1681  1.6914 -0.1778
   97OSM   H17T 9659   1.093   1.417   9.169  2.5304 -0.0451  0.4992
   97OSM   C18S 9660   1.062   1.229   9.086 -0.6296  0.1286  0.2095
   97OSM   H18S 9661   0.982   1.262   9.018  1.3585  0.6341 -1.9428
   97OSM   H18T 9662   1.047   1.120   9.107 -1.1608  0.3994  1.2732
   97OSM   H18U 9663   1.154   1.240   9.025 -0.3184 -0.4268  0.5728
   97OSM    C1F 9664   1.054   1.796  10.722 -0.9965  0.4490  0.6152
   97OSM     OF 9665   1.130   1.892  10.740  0.2792  0.4055 -0.1039
   97OSM    C2F 9666   0.917   1.811  10.665 -0.1515 -0.4451 -0.2380
   97OSM    H2F 9667   0.888   1.915  10.692 -2.0987 -0.9789 -0.2129
   97OSM    H2G 9668   0.856   1.738  10.722 -1.4741  1.2177  0.4970
   97OSM    C3F 9669   0.914   1.791  10.514  0.4575 -0.8017 -0.6034
   97OSM    H3F 9670   0.987   1.710  10.495  1.2808  0.2669 -2.1648
   97OSM    H3G 9671   0.960   1.883  10.471  1.4497 -1.2422 -0.4807
   97OSM    C4F 9672   0.767   1.752  10.456 -0.5056 -0.8600  0.4635
   97OSM    H4F 9673   0.702   1.833  10.492  0.2289 -0.0844  0.0766
   97OSM    H4G 9674   0.748   1.654  10.505  1.8904 -1.6117 -0.0184
   97OSM    C5F 9675   0.769   1.744  10.304 -0.7998 -0.6145 -0.2797
   97OSM    H5F 9676   0.802   1.842  10.266 -0.1357 -0.3663  0.9082
   97OSM    H5G 9677   0.662   1.741  10.274 -0.4914  0.7989 -1.5531
   97OSM    C6F 9678   0.863   1.640  10.251  0.0583  0.2583 -0.0849
   97OSM    H6F 9679   0.838   1.542  10.297 -2.7692 -0.1588 -2.3451
   97OSM    H6G 9680   0.965   1.672  10.281  0.2770  0.5995 -1.1706
   97OSM    C7F 9681   0.857   1.616  10.102  0.1678 -0.3402 -0.2790
   97OSM    H7F 9682   0.758   1.569  10.083  0.9942 -1.2053 -2.5961
   97OSM    H7G 9683   0.935   1.543  10.071  1.0078  0.0035  1.0031
   97OSM    C8F 9684   0.874   1.744  10.010  0.4649 -0.3701 -0.2678
   97OSM    H8F 9685   0.782   1.803  10.026  1.8249  1.2922  1.5900
   97OSM    H8G 9686   0.881   1.714   9.903  1.1418 -1.3125  0.0397
   97OSM    C9F 9687   0.997   1.829  10.038  0.4009  0.4052 -0.0582
   97OSM    H9F 9688   0.988   1.889  10.129 -1.5516 -0.6797  0.5072
   97OSM   C10F 9689   1.112   1.836   9.966  0.0635  1.3264 -0.7158
   97OSM   H10F 9690   1.193   1.904   9.998  1.1816 -0.0639 -0.5482
   97OSM   C11F 9691   1.148   1.754   9.847 -0.2505  0.2100 -0.0578
   97OSM   H11F 9692   1.096   1.657   9.855  0.4439 -0.1290  0.3283
   97OSM   H11G 9693   1.256   1.738   9.863 -0.4473  0.8641  2.1424
   97OSM   C12F 9694   1.133   1.822   9.703 -0.1717  0.4425 -0.0214
   97OSM   H12F 9695   1.162   1.929   9.708 -0.2853  0.4374  0.8960
   97OSM   H12G 9696   1.022   1.824   9.694 -0.2353 -0.7390  0.3697
   97OSM   C13F 9697   1.209   1.762   9.582 -0.2270 -0.5369 -0.1953
   97OSM   H13F 9698   1.155   1.666   9.564 -2.9542  0.4925  2.0707
   97OSM   H13G 9699   1.315   1.741   9.607  0.7638 -0.6493 -4.2809
   97OSM   C14F 9700   1.211   1.833   9.452  0.5906 -0.1692 -0.1264
   97OSM   H14F 9701   1.290   1.910   9.439  0.8795 -0.4347  0.0462
   97OSM   H14G 9702   1.112   1.882   9.439  0.2869 -0.6720  0.2928
   97OSM   C15F 9703   1.235   1.734   9.333 -0.3439 -0.7186  0.1240
   97OSM   H15F 9704   1.204   1.779   9.237  0.9166 -0.7858 -0.3189
   97OSM   H15G 9705   1.156   1.657   9.347 -0.3677 -0.6900  0.1481
   97OSM   C16F 9706   1.369   1.668   9.317  0.2387  0.1086  0.2200
   97OSM   H16F 9707   1.431   1.666   9.409 -2.3981 -1.8858  2.0406
   97OSM   H16G 9708   1.427   1.731   9.247  2.0646 -2.3489 -0.5614
   97OSM   C17F 9709   1.350   1.534   9.252 -0.1441  0.3074  0.6692
   97OSM   H17F 9710   1.292   1.551   9.159 -0.3638 -1.6331  0.4281
   97OSM   H17G 9711   1.284   1.476   9.319  1.0855 -1.8630  0.0471
   97OSM   C18F 9712   1.484   1.471   9.215 -1.1783  0.2914  0.6243
   97OSM   H18F 9713   1.560   1.535   9.165 -2.0777  0.1798 -0.9140
   97OSM   H18G 9714   1.468   1.384   9.148 -0.2361 -0.9662  2.0228
   97OSM   H18H 9715   1.539   1.433   9.304  0.3388  0.3737 -0.2642
   98OSM      N 9716   0.596   1.145  11.297  0.4086  0.0410 -0.0040
   98OSM    C15 9717   0.688   1.251  11.263 -0.4513 -0.1230  0.2145
   98OSM   H15A 9718   0.790   1.223  11.286 -0.9889 -3.0306 -0.7654
   98OSM   H15B 9719   0.675   1.339  11.325  0.1897  0.1840 -0.0861
   98OSM   H15C 9720   0.679   1.280  11.160 -1.3116  1.2975  0.6700
   98OSM    C14 9721   0.621   1.029  11.208  0.4799 -0.5290  0.5822
   98OSM   H14A 9722   0.582   1.046  11.109 -0.1028 -1.4825  0.6364
   98OSM   H14B 9723   0.597   0.936  11.258 -1.2730 -0.5394 -0.2451
   98OSM   H14C 9724   0.729   1.030  11.195  0.3018  0.7391 -0.8655
   98OSM    C13 9725   0.617   1.105  11.436 -0.0390 -0.4539 -0.2335
   98OSM   H13A 9726   0.554   1.022  11.463  0.9221 -1.0595  0.2024
   98OSM   H13B 9727   0.607   1.188  11.505  0.8107  0.1563 -0.8342
   98OSM   H13C 9728   0.722   1.091  11.460  0.1300 -0.7444 -1.1064
   98OSM    C12 9729   0.449   1.192  11.283 -0.3998 -0.2571  0.1979
   98OSM   H12A 9730   0.421   1.254  11.367 -2.1885  1.6619 -1.7347
   98OSM   H12B 9731   0.387   1.104  11.292 -1.7963  0.7184  0.3050
   98OSM    C11 9732   0.407   1.257  11.142  0.1590 -0.3689 -0.0801
   98OSM   H11A 9733   0.466   1.351  11.136  1.4341 -1.1604  0.0607
   98OSM   H11B 9734   0.299   1.282  11.144  0.5827  1.5844 -0.5075
   98OSM      P 9735   0.323   1.105  10.944 -0.1041  0.0410  0.0976
   98OSM    O13 9736   0.204   1.059  11.025 -0.1834 -0.7841 -0.2059
   98OSM    O14 9737   0.290   1.181  10.826  0.3524 -0.0575 -0.3312
   98OSM    O11 9738   0.400   0.985  10.894 -0.6597  0.4315  0.1482
   98OSM    O12 9739   0.436   1.176  11.031  0.1215 -0.0702  0.0857
   98OSM    C1S 9740   0.348   0.899  10.792  0.4955 -0.3027  0.2782
   98OSM    H1S 9741   0.273   0.941  10.721 -0.1008 -0.1452  1.0000
   98OSM    H1T 9742   0.309   0.805  10.836  0.8958 -1.4036 -1.6472
   98OSM     NF 9743   0.423   0.806  10.559 -0.3604 -0.8042 -0.3753
   98OSM    HNF 9744   0.418   0.709  10.541  1.6379 -0.3960 -3.4116
   98OSM    C2S 9745   0.470   0.853  10.696 -1.1940  0.1876 -0.5682
   98OSM    H2S 9746   0.535   0.942  10.681 -3.2460  1.9220  0.5284
   98OSM    C3S 9747   0.544   0.750  10.772  0.3001 -0.2262 -0.1097
   98OSM    H3S 9748   0.477   0.665  10.795 -1.8430  1.0545 -1.4760
   98OSM     O3 9749   0.589   0.791  10.903 -0.9597 -0.9735  0.1502
   98OSM    HO3 9750   0.530   0.866  10.913 -0.9351 -1.0619  0.9966
   98OSM    C4S 9751   0.660   0.697  10.695  0.0196  0.5699  0.0420
   98OSM    H4S 9752   0.724   0.773  10.648  1.4869 -0.2937  0.6105
   98OSM    C5S 9753   0.698   0.571  10.676 -0.9066  0.7368 -0.3518
   98OSM    H5S 9754   0.641   0.485  10.715  0.4258 -0.9974 -2.1431
   98OSM    C6S 9755   0.809   0.523  10.587 -0.6491 -0.6517  0.0618
   98OSM    H6S 9756   0.803   0.413  10.571 -0.4186 -0.3159 -2.4810
   98OSM    H6T 9757   0.906   0.557  10.630 -0.6239  0.2690 -0.7294
   98OSM    C7S 9758   0.806   0.586  10.448  0.0719  0.1797  0.5109
   98OSM    H7S 9759   0.904   0.571  10.399 -1.1460  0.3052 -2.0301
   98OSM    H7T 9760   0.797   0.695  10.464 -1.9425 -0.1382  1.7787
   98OSM    C8S 9761   0.691   0.542  10.352 -0.4703  0.6406 -0.4307
   98OSM    H8S 9762   0.598   0.572  10.406  0.4024  2.0256  0.3580
   98OSM    H8T 9763   0.692   0.431  10.351 -2.1228  0.6111 -0.4646
   98OSM    C9S 9764   0.691   0.600  10.210 -0.3659 -0.3214 -0.5258
   98OSM    H9S 9765   0.798   0.600  10.181 -1.2242 -2.3662 -3.9992
   98OSM    H9T 9766   0.670   0.709  10.207 -0.6255 -0.2798  1.6481
   98OSM   C10S 9767   0.601   0.524  10.113 -0.7927 -0.3586 -0.0109
   98OSM   H10S 9768   0.493   0.528  10.141 -0.7189  0.1261  0.1932
   98OSM   H10T 9769   0.628   0.416  10.113 -1.0233 -0.4179 -1.5615
   98OSM   C11S 9770   0.620   0.583   9.973 -0.0105  0.1316  0.5054
   98OSM   H11S 9771   0.728   0.600   9.951 -0.0524 -0.3668 -0.1238
   98OSM   H11T 9772   0.567   0.680   9.966  0.9722  0.5480 -1.5440
   98OSM   C12S 9773   0.554   0.490   9.868 -0.6202  0.8173 -0.3989
   98OSM   H12S 9774   0.446   0.474   9.890 -0.0686  0.4160  2.2171
   98OSM   H12T 9775   0.607   0.393   9.882  0.4015  1.4893  0.3542
   98OSM   C13S 9776   0.582   0.537   9.718  0.1351  0.0528 -0.0891
   98OSM   H13S 9777   0.689   0.529   9.688  1.0119  1.0107  2.6184
   98OSM   H13T 9778   0.541   0.640   9.716  0.8349  0.3943  1.8886
   98OSM   C14S 9779   0.510   0.463   9.613 -0.4274  0.8625  0.1405
   98OSM   H14S 9780   0.401   0.484   9.617 -0.3649  2.0495 -2.9815
   98OSM   H14T 9781   0.523   0.354   9.627  0.7798  0.8953 -0.5994
   98OSM   C15S 9782   0.553   0.518   9.476 -0.6764 -0.8069 -0.0472
   98OSM   H15S 9783   0.661   0.495   9.468 -1.0188 -2.2115 -0.8707
   98OSM   H15T 9784   0.534   0.627   9.485 -0.1451 -0.6901 -0.3420
   98OSM   C16S 9785   0.469   0.451   9.371 -0.3053  0.6162  0.3359
   98OSM   H16S 9786   0.362   0.469   9.394 -0.2689  2.6146 -0.8730
   98OSM   H16T 9787   0.495   0.343   9.363 -3.6079 -0.0581 -2.8419
   98OSM   C17S 9788   0.480   0.506   9.227 -0.5529 -0.0718 -0.0289
   98OSM   H17S 9789   0.409   0.451   9.161  0.2894 -0.3153 -0.7458
   98OSM   H17T 9790   0.584   0.501   9.189  1.2246  2.6726  4.1584
   98OSM   C18S 9791   0.445   0.650   9.223 -0.2391 -0.0893 -0.5195
   98OSM   H18S 9792   0.436   0.691   9.120  0.0256  1.1535 -0.0540
   98OSM   H18T 9793   0.528   0.707   9.270 -0.7360  1.4230 -1.4576
   98OSM   H18U 9794   0.348   0.657   9.276 -0.8069  0.2718 -1.5942
   98OSM    C1F 9795   0.382   0.899  10.479 -0.5680 -0.0310  0.7549
   98OSM     OF 9796   0.403   1.021  10.497  0.1978 -0.1067  0.0247
   98OSM    C2F 9797   0.300   0.851  10.359  1.0604  0.3930 -0.4474
   98OSM    H2F 9798   0.249   0.758  10.390  0.5543  0.1299 -2.0486
   98OSM    H2G 9799   0.377   0.829  10.282 -0.3235  1.7237 -2.2380
   98OSM    C3F 9800   0.194   0.951  10.301 -0.4532  0.6496  0.4063
   98OSM    H3F 9801   0.250   1.046  10.283 -0.8023 -0.0360 -5.0420
   98OSM    H3G 9802   0.121   0.975  10.382 -0.3878 -0.2057  0.7251
   98OSM    C4F 9803   0.127   0.911  10.176 -0.1646  0.3910 -0.8358
   98OSM    H4F 9804   0.063   0.999  10.154  0.7060  0.8599 -1.4975
   98OSM    H4G 9805   0.061   0.823  10.194  1.8470 -0.4662  2.8233
   98OSM    C5F 9806   0.224   0.879  10.054  0.2722 -0.5870 -0.6909
   98OSM    H5F 9807   0.279   0.783  10.066 -1.7263 -1.8951 -1.8723
   98OSM    H5G 9808   0.298   0.960  10.040 -0.5322 -0.0032 -1.5400
   98OSM    C6F 9809   0.152   0.862   9.920  0.1097  0.1519  0.1775
   98OSM    H6F 9810   0.080   0.945   9.905 -0.8956 -0.6407  0.5730
   98OSM    H6G 9811   0.086   0.773   9.931  0.4603 -0.0659  0.5268
   98OSM    C7F 9812   0.248   0.829   9.807  0.4400  0.8784 -0.5486
   98OSM    H7F 9813   0.308   0.740   9.837 -0.5596 -0.0545 -1.2912
   98OSM    H7G 9814   0.318   0.915   9.794  1.6753 -0.2461 -1.4574
   98OSM    C8F 9815   0.175   0.787   9.684  0.0167  0.0742 -0.1160
   98OSM    H8F 9816   0.106   0.704   9.709 -1.3652  0.6354 -1.8933
   98OSM    H8G 9817   0.247   0.738   9.616  0.7131  1.3762 -0.3324
   98OSM    C9F 9818   0.079   0.882   9.620  0.0074  0.4621 -0.1260
   98OSM    H9F 9819  -0.013   0.897   9.679  2.1051  0.3322  3.3105
   98OSM   C10F 9820   0.090   0.955   9.511 -0.2308  0.2361  0.0322
   98OSM   H10F 9821   0.015   1.033   9.488 -2.0715 -1.5888 -0.2718
   98OSM   C11F 9822   0.212   0.955   9.419 -0.3353  0.2561  0.2176
   98OSM   H11F 9823   0.281   0.873   9.450  1.0794  1.7719  1.1986
   98OSM   H11G 9824   0.273   1.040   9.457  0.5877 -0.9823  1.5296
   98OSM   C12F 9825   0.187   0.959   9.267  0.4533  0.6095  0.3874
   98OSM   H12F 9826   0.130   0.869   9.234 -0.2451  1.1442  0.1462
   98OSM   H12G 9827   0.284   0.961   9.211  0.6929  0.8148  0.8128
   98OSM   C13F 9828   0.118   1.093   9.233 -0.6889  0.3234  0.4491
   98OSM   H13F 9829   0.168   1.181   9.278 -1.0244  0.4290  0.6198
   98OSM   H13G 9830   0.018   1.083   9.281 -0.2247 -0.7334  1.2037
   98OSM   C14F 9831   0.093   1.119   9.084  0.1498 -0.0499 -0.0120
   98OSM   H14F 9832   0.029   1.034   9.050 -1.0969  0.9889 -0.2661
   98OSM   H14G 9833   0.191   1.113   9.031 -1.4212  1.2287 -3.1478
   98OSM   C15F 9834   0.015   1.245   9.062  0.4038 -0.7786  0.2486
   98OSM   H15F 9835  -0.058   1.254   9.145  1.8066 -1.7656  1.6008
   98OSM   H15G 9836  -0.037   1.230   8.965  2.8968 -0.2218 -1.2123
   98OSM   C16F 9837   0.113   1.366   9.053 -0.0260 -0.4679 -0.1934
   98OSM   H16F 9838   0.196   1.328   8.990  1.2610 -1.6569  2.1435
   98OSM   H16G 9839   0.169   1.389   9.147  0.0913 -2.6067  0.2879
   98OSM   C17F 9840   0.057   1.494   8.980 -0.7565  0.0939  0.4249
   98OSM   H17F 9841   0.006   1.457   8.888 -1.6792  0.9308  0.5806
   98OSM   H17G 9842   0.133   1.570   8.953 -1.5549  0.4715 -0.8718
   98OSM   C18F 9843  -0.039   1.557   9.070 -0.3308  0.3862  0.1420
   98OSM   H18F 9844  -0.129   1.491   9.071 -0.8093  1.0402  0.9580
   98OSM   H18G 9845  -0.068   1.659   9.037  1.1053  0.1488 -1.9220
   98OSM   H18H 9846   0.006   1.561   9.171 -0.5718  1.2771  0.2214
   99OSM      N 9847   3.296   1.799  10.733 -0.3426 -0.8946 -0.3168
   99OSM    C15 9848   3.251   1.904  10.829  0.1717  0.0230  0.3509
   99OSM   H15A 9849   3.145   1.893  10.844  0.0941 -1.0105 -0.8451
   99OSM   H15B 9850   3.262   1.998  10.776 -0.8183 -0.3752 -0.5756
   99OSM   H15C 9851   3.304   1.905  10.923 -0.1882 -0.6261  0.5618
   99OSM    C14 9852   3.235   1.836  10.601 -0.0093 -0.1332 -0.1963
   99OSM   H14A 9853   3.264   1.767  10.523 -2.3141 -0.8480 -0.4496
   99OSM   H14B 9854   3.266   1.937  10.580  1.0446 -0.2588  0.7341
   99OSM   H14C 9855   3.128   1.828  10.605 -0.0085  0.0554  0.2410
   99OSM    C13 9856   3.446   1.815  10.733  0.5475 -0.2047  0.2095
   99OSM   H13A 9857   3.483   1.806  10.834  0.3181  0.7081  0.3758
   99OSM   H13B 9858   3.481   1.905  10.687  1.2024 -0.4373  0.2512
   99OSM   H13C 9859   3.486   1.723  10.694  1.2637 -0.9770  2.6656
   99OSM    C12 9860   3.257   1.662  10.779 -0.1831  0.3781 -0.1802
   99OSM   H12A 9861   3.294   1.653  10.880  0.4486 -0.6630 -0.5050
   99OSM   H12B 9862   3.289   1.580  10.717  2.0935 -0.8447  2.5138
   99OSM    C11 9863   3.105   1.637  10.779 -0.2790  0.4590 -0.1316
   99OSM   H11A 9864   3.083   1.531  10.801 -0.1043  0.8065  1.8013
   99OSM   H11B 9865   3.069   1.661  10.676  0.5691  3.4284  0.2162
   99OSM      P 9866   2.885   1.753  10.861 -0.2176  0.5292 -0.0415
   99OSM    O13 9867   2.814   1.726  10.986  0.1273 -0.1170  0.3562
   99OSM    O14 9868   2.876   1.884  10.799  0.5987 -0.1774  0.1744
   99OSM    O11 9869   2.838   1.651  10.749 -1.0734  0.6753  0.7773
   99OSM    O12 9870   3.038   1.712  10.882 -0.5877 -0.2788 -0.2134
   99OSM    C1S 9871   2.718   1.687  10.674  0.2802 -0.1766  0.5087
   99OSM    H1S 9872   2.686   1.793  10.683 -1.3608 -0.7954  2.3343
   99OSM    H1T 9873   2.634   1.621  10.706 -0.9541  1.7225  1.2536
   99OSM     NF 9874   2.627   1.711  10.441 -0.0773  0.0229  0.2937
   99OSM    HNF 9875   2.555   1.649  10.411  0.1671 -0.5766  0.9301
   99OSM    C2S 9876   2.743   1.669  10.517  0.2320  0.1433 -0.4703
   99OSM    H2S 9877   2.828   1.736  10.492 -0.5466  1.2479 -0.2235
   99OSM    C3S 9878   2.782   1.524  10.492  0.1739 -0.4727  0.2305
   99OSM    H3S 9879   2.704   1.458  10.535 -1.1714  0.7685 -0.2924
   99OSM     O3 9880   2.902   1.481  10.553 -0.0713 -0.5336 -0.5621
   99OSM    HO3 9881   2.897   1.540  10.629  0.3468  0.4036 -1.2454
   99OSM    C4S 9882   2.801   1.496  10.344 -0.8436 -0.1644  0.2172
   99OSM    H4S 9883   2.857   1.575  10.291 -0.6895 -0.5485 -0.1911
   99OSM    C5S 9884   2.762   1.394  10.276  0.1174 -0.4935  0.1986
   99OSM    H5S 9885   2.713   1.310  10.328 -0.7225  0.3102  0.7187
   99OSM    C6S 9886   2.773   1.378  10.125  0.2187  0.7817  0.8433
   99OSM    H6S 9887   2.670   1.390  10.086  0.2784  1.5130  0.9110
   99OSM    H6T 9888   2.799   1.272  10.105 -2.6741  0.2266 -0.1938
   99OSM    C7S 9889   2.875   1.465  10.041 -0.2526 -0.1939  0.4892
   99OSM    H7S 9890   2.971   1.475  10.095  1.1015 -2.7086 -1.3525
   99OSM    H7T 9891   2.828   1.565  10.030 -0.6019 -0.3828  0.2646
   99OSM    C8S 9892   2.884   1.414   9.899 -0.4003  0.7590 -0.4090
   99OSM    H8S 9893   2.788   1.439   9.849 -1.4374 -0.6361  0.8230
   99OSM    H8T 9894   2.877   1.303   9.900  0.4279  0.7081  0.5619
   99OSM    C9S 9895   3.002   1.472   9.823  0.0897 -0.4947  0.1189
   99OSM    H9S 9896   3.042   1.407   9.742  2.5274  3.4257 -1.9627
   99OSM    H9T 9897   3.091   1.481   9.889  1.1403  0.4782 -1.4039
   99OSM   C10S 9898   2.965   1.609   9.762  0.4179 -0.3495 -0.0394
   99OSM   H10S 9899   3.054   1.639   9.703  0.8557 -1.5289  0.0299
   99OSM   H10T 9900   2.962   1.680   9.848 -1.6978  0.3479 -0.6378
   99OSM   C11S 9901   2.843   1.611   9.673  0.4811  0.6134  0.1431
   99OSM   H11S 9902   2.756   1.649   9.732  0.0952  1.5639 -1.0332
   99OSM   H11T 9903   2.829   1.503   9.650 -0.1330  0.2100  2.2683
   99OSM   C12S 9904   2.870   1.688   9.543  0.4543 -0.7469 -0.2592
   99OSM   H12S 9905   2.887   1.793   9.575  1.8781 -1.1355  0.3074
   99OSM   H12T 9906   2.964   1.644   9.502  0.4650  0.4681 -1.5791
   99OSM   C13S 9907   2.764   1.679   9.440  0.5085 -0.0051  0.1998
   99OSM   H13S 9908   2.670   1.726   9.476  0.3930 -0.5971  0.6755
   99OSM   H13T 9909   2.743   1.570   9.442  1.5497 -0.2032  1.1024
   99OSM   C14S 9910   2.805   1.738   9.305 -0.3442  0.1403 -0.2115
   99OSM   H14S 9911   2.878   1.671   9.254  0.0504 -0.4937  1.1611
   99OSM   H14T 9912   2.862   1.831   9.325 -0.6521 -0.0115  1.4220
   99OSM   C15S 9913   2.679   1.753   9.208  0.3154  0.2598  0.0382
   99OSM   H15S 9914   2.617   1.823   9.268  0.8071  0.7336  0.0040
   99OSM   H15T 9915   2.619   1.660   9.200  1.6131 -0.6737  0.9236
   99OSM   C16S 9916   2.704   1.831   9.079  0.0144 -0.0347  0.0548
   99OSM   H16S 9917   2.749   1.756   9.010 -2.2251 -1.4038 -0.0032
   99OSM   H16T 9918   2.775   1.913   9.101 -0.9924  1.0449 -0.6547
   99OSM   C17S 9919   2.569   1.885   9.024  0.7239 -0.4493  0.4477
   99OSM   H17S 9920   2.517   1.946   9.101  0.6450  0.5811 -0.4002
   99OSM   H17T 9921   2.499   1.800   9.007  2.4608 -1.8539  0.1551
   99OSM   C18S 9922   2.584   1.979   8.897 -0.6251  0.2996  0.9134
   99OSM   H18S 9923   2.590   1.911   8.809  1.7100  1.9684 -0.2376
   99OSM   H18T 9924   2.682   2.028   8.911  0.2036 -0.6978 -1.1057
   99OSM   H18U 9925   2.493   2.042   8.887 -1.6994 -1.2034  0.9620
   99OSM    C1F 9926   2.604   1.841  10.420 -0.9724 -0.6589  0.9374
   99OSM     OF 9927   2.686   1.926  10.459  0.5528  0.5342  0.5278
   99OSM    C2F 9928   2.481   1.885  10.349  0.9730  0.0831  0.2133
   99OSM    H2F 9929   2.491   1.995  10.334 -3.0144  0.4365 -0.5292
   99OSM    H2G 9930   2.393   1.865  10.414  1.3724 -4.4435 -0.5053
   99OSM    C3F 9931   2.451   1.813  10.211  0.1747 -0.9783  0.0814
   99OSM    H3F 9932   2.435   1.705  10.228 -0.2531 -0.8588  0.4558
   99OSM    H3G 9933   2.355   1.856  10.173 -0.0954 -0.5575  1.2031
   99OSM    C4F 9934   2.548   1.833  10.092 -0.2030  0.5833 -0.4779
   99OSM    H4F 9935   2.650   1.812  10.130 -0.2177 -2.5109 -1.9411
   99OSM    H4G 9936   2.533   1.936  10.052 -1.4001  1.4050  1.9847
   99OSM    C5F 9937   2.536   1.732   9.981 -0.2004  0.1335  0.1912
   99OSM    H5F 9938   2.532   1.624  10.007  0.7297 -0.0546 -0.4106
   99OSM    H5G 9939   2.634   1.735   9.929 -1.3533 -1.5232 -2.1595
   99OSM    C6F 9940   2.428   1.769   9.875  0.5749  0.0813  0.1156
   99OSM    H6F 9941   2.385   1.869   9.900  0.3730 -0.0083  0.1347
   99OSM    H6G 9942   2.348   1.692   9.869 -1.0040  1.4093  2.8259
   99OSM    C7F 9943   2.487   1.794   9.739 -0.4952 -0.1169 -0.2576
   99OSM    H7F 9944   2.527   1.699   9.697  0.2901 -0.8767  2.0824
   99OSM    H7G 9945   2.573   1.863   9.754 -1.9154  1.8755 -1.0716
   99OSM    C8F 9946   2.399   1.861   9.637 -0.6618  0.0069 -0.9588
   99OSM    H8F 9947   2.456   1.876   9.543 -0.8155  0.8192 -0.9221
   99OSM    H8G 9948   2.372   1.961   9.676 -1.4967  0.0878 -1.7273
   99OSM    C9F 9949   2.267   1.779   9.612 -0.1195 -0.8398 -0.8515
   99OSM    H9F 9950   2.218   1.748   9.705  2.5231 -1.4484  0.4007
   99OSM   C10F 9951   2.226   1.720   9.496  0.5005  0.1059  0.2189
   99OSM   H10F 9952   2.130   1.665   9.497  0.8966 -0.6242 -1.2740
   99OSM   C11F 9953   2.296   1.721   9.364 -0.2416 -0.3401 -0.2991
   99OSM   H11F 9954   2.355   1.629   9.345 -0.0250 -0.3759  0.5371
   99OSM   H11G 9955   2.357   1.814   9.361 -2.6569  1.2920 -0.5322
   99OSM   C12F 9956   2.193   1.733   9.249  0.4107  0.7073 -0.2576
   99OSM   H12F 9957   2.134   1.826   9.265  2.3221  1.8791  0.1758
   99OSM   H12G 9958   2.136   1.638   9.248 -0.9889  1.5408 -1.0664
   99OSM   C13F 9959   2.249   1.748   9.111  0.1200  0.5242  0.4173
   99OSM   H13F 9960   2.296   1.659   9.063  1.1451  1.5173 -0.4450
   99OSM   H13G 9961   2.321   1.833   9.117 -1.1352  1.7520 -1.4975
   99OSM   C14F 9962   2.145   1.805   9.020 -0.0868 -0.4838 -0.1558
   99OSM   H14F 9963   2.106   1.897   9.069  1.2344  0.1461 -0.2723
   99OSM   H14G 9964   2.060   1.736   8.998  0.6928 -1.1903 -1.0128
   99OSM   C15F 9965   2.195   1.844   8.883  0.0440 -0.3197  0.3895
   99OSM   H15F 9966   2.218   1.752   8.825  2.2045 -0.3007  1.1591
   99OSM   H15G 9967   2.290   1.901   8.898 -0.3565  0.1668  1.1266
   99OSM   C16F 9968   2.091   1.932   8.811 -0.0928  1.0075 -0.2312
   99OSM   H16F 9969   2.042   2.000   8.883  0.7295  0.6129  0.7120
   99OSM   H16G 9970   2.013   1.862   8.775 -1.4825  1.5869  1.6115
   99OSM   C17F 9971   2.144   2.003   8.687  0.9961  0.3822 -0.4821
   99OSM   H17F 9972   2.058   2.026   8.621 -2.0059  1.0076  3.4313
   99OSM   H17G 9973   2.213   1.946   8.621  1.0811  1.9241 -1.7370
   99OSM   C18F 9974   2.212   2.138   8.723  0.3237  0.4930  0.2364
   99OSM   H18F 9975   2.254   2.190   8.635 -0.1092  1.1449  0.4103
   99OSM   H18G 9976   2.297   2.116   8.791  0.3671  2.1011  0.7087
   99OSM   H18H 9977   2.131   2.203   8.763 -1.0635 -0.4956 -0.8989
  100OSM      N 9978   4.650   2.260  11.093  0.7000  0.4419 -0.2491
  100OSM    C15 9979   4.496   2.257  11.053  0.1796 -0.0958  0.2769
  100OSM   H15A 9980   4.441   2.209  11.132  1.6521 -1.3590  0.5694
  100OSM   H15B 9981   4.481   2.214  10.956 -0.2904 -1.0176  0.7588
  100OSM   H15C 9982   4.464   2.360  11.047 -0.3766 -0.2497  0.6085
  100OSM    C14 9983   4.659   2.335  11.215  0.7465  0.1787  0.3806
  100OSM   H14A 9984   4.756   2.325  11.261  1.7893 -0.6900 -1.9723
  100OSM   H14B 9985   4.587   2.304  11.289  2.3087 -1.9734  1.0425
  100OSM   H14C 9986   4.632   2.438  11.195 -0.5645  0.3490  2.7669
  100OSM    C13 9987   4.680   2.114  11.123  0.0362  0.0168 -0.3908
  100OSM   H13A 9988   4.785   2.097  11.143  0.0350  2.0129  1.4908
  100OSM   H13B 9989   4.653   2.059  11.034  0.4810  0.2459 -0.6659
  100OSM   H13C 9990   4.620   2.078  11.205  2.9426 -1.4463  1.1468
  100OSM    C12 9991   4.733   2.312  10.980 -0.5091 -0.6278  0.3620
  100OSM   H12A 9992   4.714   2.247  10.895 -0.1147 -2.0488  1.3601
  100OSM   H12B 9993   4.836   2.291  11.000 -0.0165  1.5701  0.3321
  100OSM    C11 9994   4.718   2.459  10.935 -0.9122  0.5640 -0.5030
  100OSM   H11A 9995   4.762   2.469  10.833 -0.1813 -1.7087 -0.4231
  100OSM   H11B 9996   4.779   2.507  11.014  0.2317 -0.7161 -0.5962
  100OSM      P 9997   4.544   2.651  10.901  0.3028  0.2547  0.0556
  100OSM    O13 9998   4.397   2.671  10.916  0.4567  0.0505 -0.2370
  100OSM    O14 9999   4.620   2.742  10.987 -0.3791 -0.1724 -0.0164
  100OSM    O1110000   4.585   2.672  10.752  0.2115 -0.1113  0.0404
  100OSM    O1210001   4.579   2.504  10.938  0.3040  0.0351  0.1462
  100OSM    C1S10002   4.576   2.573  10.648 -0.3119 -0.1574 -1.0150
  100OSM    H1S10003   4.524   2.479  10.679  0.1747  0.1632  0.8575
  100OSM    H1T10004   4.679   2.533  10.639 -0.0018  0.3914  0.0017
  100OSM     NF10005   4.516   2.518  10.428 -0.3883  0.4878  0.3469
  100OSM    HNF10006   4.597   2.518  10.369 -0.6498 -0.4733 -0.0129
  100OSM    C2S10007   4.515   2.628  10.522 -0.0763  0.6261 -0.4514
  100OSM    H2S10008   4.411   2.662  10.539 -0.8081 -1.2142 -1.0904
  100OSM    C3S10009   4.592   2.755  10.469  1.0588  0.0574 -0.1429
  100OSM    H3S10010   4.694   2.716  10.448  0.3703 -2.2774  0.7027
  100OSM     O310011   4.613   2.862  10.563 -0.4025  0.7675  0.1300
  100OSM    HO310012   4.559   2.822  10.631 -0.4179 -1.4617 -1.1649
  100OSM    C4S10013   4.532   2.801  10.337  0.0278  0.3819 -0.0660
  100OSM    H4S10014   4.557   2.740  10.249  2.7531  0.9436  0.2732
  100OSM    C5S10015   4.454   2.904  10.308 -0.2558 -0.1825 -0.4993
  100OSM    H5S10016   4.416   2.968  10.389  1.7866  0.5456 -0.0594
  100OSM    C6S10017   4.417   2.938  10.173  0.1664 -0.4095  0.0616
  100OSM    H6S10018   4.396   3.047  10.180  0.7495 -0.3644  1.1274
  100OSM    H6T10019   4.314   2.902  10.151 -1.3771  3.9061 -0.1194
  100OSM    C7S10020   4.505   2.893  10.054 -0.3615 -0.0941  0.4878
  100OSM    H7S10021   4.517   2.783  10.049 -0.2652 -0.0464 -0.4931
  100OSM    H7T10022   4.605   2.940  10.066 -0.5242  0.4844 -0.3451
  100OSM    C8S10023   4.451   2.950   9.915  0.1253  0.6557  0.0114
  100OSM    H8S10024   4.432   3.059   9.927  0.9159  0.7905  0.0152
  100OSM    H8T10025   4.358   2.893   9.892  1.2465 -1.0499 -0.4160
  100OSM    C9S10026   4.550   2.939   9.796 -0.0551  0.2906 -0.0514
  100OSM    H9S10027   4.600   2.839   9.798  0.8065  0.7187  0.1555
  100OSM    H9T10028   4.619   3.025   9.811 -1.2806  1.0653  1.2086
  100OSM   C10S10029   4.480   2.958   9.657  0.1365 -0.2541 -0.2636
  100OSM   H10S10030   4.446   3.062   9.640  0.7697  0.0760  0.4379
  100OSM   H10T10031   4.394   2.887   9.661  0.8527 -1.0474  1.5395
  100OSM   C11S10032   4.574   2.921   9.544 -0.2349 -0.5258 -0.4136
  100OSM   H11S10033   4.588   2.811   9.544  1.5616 -0.3202 -0.9222
  100OSM   H11T10034   4.665   2.983   9.557 -1.0311  0.3737  1.0329
  100OSM   C12S10035   4.518   2.946   9.401 -0.7527  0.2320 -0.2824
  100OSM   H12S10036   4.534   3.054   9.378 -2.0450 -0.0374 -2.5619
  100OSM   H12T10037   4.415   2.906   9.393 -1.6115  2.7177 -2.2272
  100OSM   C13S10038   4.598   2.876   9.293 -0.2815 -0.2517 -0.8396
  100OSM   H13S10039   4.579   2.770   9.321 -1.9145  0.1097 -0.5320
  100OSM   H13T10040   4.708   2.888   9.305 -0.6425  2.8826 -0.2859
  100OSM   C14S10041   4.550   2.916   9.158  0.1332 -1.0081  0.4796
  100OSM   H14S10042   4.566   3.024   9.141 -0.8916 -0.7963  0.8436
  100OSM   H14T10043   4.439   2.914   9.168 -0.2775  1.2342 -2.7228
  100OSM   C15S10044   4.600   2.821   9.048 -0.7566  0.6387 -0.5676
  100OSM   H15S10045   4.562   2.718   9.059 -1.6081  1.0107  0.0262
  100OSM   H15T10046   4.711   2.814   9.045 -0.7567  0.9572 -1.3869
  100OSM   C16S10047   4.539   2.844   8.912  0.2036  0.3447  0.0271
  100OSM   H16S10048   4.567   2.947   8.883 -0.8032  0.9885  1.2708
  100OSM   H16T10049   4.430   2.824   8.920  0.2468  0.0232 -0.1713
  100OSM   C17S10050   4.601   2.757   8.804 -1.0599  0.2850 -0.5821
  100OSM   H17S10051   4.592   2.651   8.835  1.3313  1.0015  2.9894
  100OSM   H17T10052   4.710   2.778   8.799 -1.0199  0.2152 -0.0503
  100OSM   C18S10053   4.541   2.778   8.659  0.4722  0.8126 -0.2410
  100OSM   H18S10054   4.432   2.760   8.663  0.8643 -1.7786 -0.5161
  100OSM   H18T10055   4.591   2.707   8.590  0.1398  0.6551 -0.3227
  100OSM   H18U10056   4.566   2.877   8.617  2.5982 -0.3704 -1.8594
  100OSM    C1F10057   4.436   2.415  10.432  0.7426 -0.0890  0.1748
  100OSM     OF10058   4.336   2.410  10.503  0.4367 -0.3541 -0.1653
  100OSM    C2F10059   4.468   2.294  10.347  0.7129 -0.0259 -0.2658
  100OSM    H2F10060   4.483   2.205  10.412 -0.0901  1.4303  1.9655
  100OSM    H2G10061   4.561   2.317  10.292  0.7730  0.3574 -0.0065
  100OSM    C3F10062   4.349   2.271  10.252  0.4128  0.7895  0.6840
  100OSM    H3F10063   4.268   2.236  10.318  2.5480 -2.1032  1.8782
  100OSM    H3G10064   4.377   2.186  10.185 -0.4437  0.3908  0.8244
  100OSM    C4F10065   4.318   2.385  10.151 -0.1242 -0.4647  0.6501
  100OSM    H4F10066   4.307   2.486  10.196 -1.3915  0.2500 -1.2370
  100OSM    H4G10067   4.217   2.361  10.112 -0.7939  1.4797  1.1498
  100OSM    C5F10068   4.420   2.388  10.032  0.9960 -0.0664  0.2996
  100OSM    H5F10069   4.400   2.293   9.978 -2.0551  1.6618 -1.7183
  100OSM    H5G10070   4.522   2.403  10.073  1.0798 -0.5562  0.2674
  100OSM    C6F10071   4.383   2.500   9.925  0.7924  0.6931  0.2168
  100OSM    H6F10072   4.393   2.601   9.968 -0.7903  1.3288 -0.8592
  100OSM    H6G10073   4.276   2.483   9.901  0.8510  0.4595  0.1184
  100OSM    C7F10074   4.470   2.476   9.800  0.2191  0.0461  0.4145
  100OSM    H7F10075   4.462   2.380   9.745  0.1214  1.4878 -2.1960
  100OSM    H7G10076   4.578   2.475   9.827  0.7247 -2.5546 -1.5316
  100OSM    C8F10077   4.452   2.590   9.690  0.9925 -0.5659 -0.7178
  100OSM    H8F10078   4.541   2.591   9.624  0.9522  2.5476 -0.7892
  100OSM    H8G10079   4.458   2.690   9.738  0.4303 -0.3983 -0.9855
  100OSM    C9F10080   4.316   2.560   9.619  0.0648 -0.5498 -0.1733
  100OSM    H9F10081   4.234   2.563   9.692  1.0695  1.5840  0.8861
  100OSM   C10F10082   4.288   2.529   9.494 -0.3661  0.3017  0.2823
  100OSM   H10F10083   4.183   2.515   9.465 -0.6948  3.0708 -0.0451
  100OSM   C11F10084   4.393   2.506   9.388  0.2198 -0.5620 -0.1179
  100OSM   H11F10085   4.407   2.398   9.367  0.0048 -1.0745  2.3020
  100OSM   H11G10086   4.487   2.559   9.410  0.4003 -0.6309 -0.7214
  100OSM   C12F10087   4.338   2.551   9.248 -0.1693  0.2509 -0.1200
  100OSM   H12F10088   4.347   2.660   9.227  0.9425  0.3653  0.8823
  100OSM   H12G10089   4.229   2.533   9.244 -0.4651  1.7835  0.6990
  100OSM   C13F10090   4.402   2.465   9.137  0.0355  0.3597 -0.0103
  100OSM   H13F10091   4.384   2.357   9.153  2.6806 -0.1895 -0.5532
  100OSM   H13G10092   4.513   2.466   9.135  0.0815  1.2598  1.7219
  100OSM   C14F10093   4.343   2.509   9.002 -0.2388 -0.7941 -0.4263
  100OSM   H14F10094   4.358   2.617   8.982 -0.6807  0.1063  3.6149
  100OSM   H14G10095   4.236   2.483   9.013 -0.1109 -0.4232  1.9731
  100OSM   C15F10096   4.400   2.438   8.879 -0.4752  0.2127  0.8986
  100OSM   H15F10097   4.399   2.327   8.886  2.0379 -0.0774 -2.5271
  100OSM   H15G10098   4.509   2.457   8.869 -1.0035  1.8380 -2.4953
  100OSM   C16F10099   4.325   2.465   8.754  0.5473  0.3252 -0.0818
  100OSM   H16F10100   4.377   2.414   8.670  1.6353  2.5531 -0.8147
  100OSM   H16G10101   4.332   2.574   8.736 -3.3967  0.9326  1.5162
  100OSM   C17F10102   4.179   2.446   8.760  0.4880  0.3468 -0.6208
  100OSM   H17F10103   4.145   2.467   8.656 -1.7502  0.3100  0.0848
  100OSM   H17G10104   4.118   2.506   8.830 -0.4220 -0.2743 -0.8721
  100OSM   C18F10105   4.143   2.301   8.801 -0.0681  0.2800 -0.2678
  100OSM   H18F10106   4.036   2.287   8.774  0.1270 -1.7229 -0.0403
  100OSM   H18G10107   4.160   2.270   8.906  0.6470 -0.7918 -0.6953
  100OSM   H18H10108   4.193   2.232   8.730 -0.6805 -1.5820  1.0910
  101OSM      N10109   0.791   1.877  11.231  0.1893 -0.4443  0.3544
  101OSM    C1510110   0.826   2.009  11.298 -0.0612  0.1633  0.1296
  101OSM   H15A10111   0.798   2.094  11.237 -0.1334 -0.1655 -0.3029
  101OSM   H15B10112   0.933   2.025  11.299 -0.5334  3.5448  0.0805
  101OSM   H15C10113   0.793   2.017  11.400 -0.2360 -1.0613  0.1819
  101OSM    C1410114   0.819   1.772  11.332  0.1574 -0.5359 -0.0807
  101OSM   H14A10115   0.760   1.798  11.418  1.1567 -0.3397  0.5545
  101OSM   H14B10116   0.924   1.775  11.357  0.2104  1.6123 -0.4991
  101OSM   H14C10117   0.805   1.674  11.289 -3.9711 -0.2371  0.4228
  101OSM    C1310118   0.647   1.883  11.204  0.0689 -0.3874  0.6572
  101OSM   H13A10119   0.609   1.794  11.156  0.1775 -0.0502 -0.0564
  101OSM   H13B10120   0.635   1.963  11.133  3.4916 -0.8924 -0.5890
  101OSM   H13C10121   0.587   1.899  11.292  0.7420  0.0120  1.0535
  101OSM    C1210122   0.874   1.865  11.100  0.6665  0.4661  0.6080
  101OSM   H12A10123   0.855   1.772  11.048  0.4058  1.8553 -1.8628
  101OSM   H12B10124   0.978   1.851  11.125  0.2875  0.0260  1.9918
  101OSM    C1110125   0.858   1.981  11.007 -0.2969 -0.7893  0.8987
  101OSM   H11A10126   0.751   1.993  10.980 -0.5838 -0.4187  2.1919
  101OSM   H11B10127   0.901   1.932  10.916  0.8106  2.5764 -0.4760
  101OSM      P10128   0.901   2.242  11.008  0.3368 -0.3358 -0.2332
  101OSM    O1310129   0.765   2.282  11.069 -0.1384 -0.0329  0.4745
  101OSM    O1410130   1.017   2.324  11.046  0.3896  0.3505 -0.6371
  101OSM    O1110131   0.879   2.233  10.853 -0.1637 -0.2138 -0.0843
  101OSM    O1210132   0.931   2.097  11.048  0.1175  0.4398 -0.3008
  101OSM    C1S10133   0.812   2.354  10.797 -0.1791 -0.1209 -0.4201
  101OSM    H1S10134   0.891   2.429  10.775 -0.4409 -0.4155 -2.3989
  101OSM    H1T10135   0.734   2.399  10.863 -0.0810 -0.2623 -0.2066
  101OSM     NF10136   0.691   2.454  10.611  0.1817 -0.2597 -0.5088
  101OSM    HNF10137   0.597   2.484  10.623 -0.5361 -1.2545 -3.3167
  101OSM    C2S10138   0.729   2.328  10.669  0.1886  0.1980  1.3257
  101OSM    H2S10139   0.807   2.288  10.601  1.0901  1.6870  1.4520
  101OSM    C3S10140   0.611   2.224  10.685 -0.2703 -0.0952 -0.8733
  101OSM    H3S10141   0.532   2.272  10.746 -1.3304 -1.1475 -1.3961
  101OSM     O310142   0.649   2.106  10.763  0.0105  0.0218  0.0893
  101OSM    HO310143   0.738   2.129  10.790 -0.2579  1.5510 -0.3179
  101OSM    C4S10144   0.557   2.175  10.555  0.2231  0.7922  0.2906
  101OSM    H4S10145   0.642   2.150  10.490 -0.5301  0.9431 -0.7643
  101OSM    C5S10146   0.425   2.166  10.522 -0.7397  0.0785 -0.7706
  101OSM    H5S10147   0.348   2.199  10.593 -2.5752 -3.5603 -0.9391
  101OSM    C6S10148   0.376   2.106  10.390 -0.3360  0.2462 -0.2955
  101OSM    H6S10149   0.303   2.173  10.339 -0.6283 -0.4039 -0.7308
  101OSM    H6T10150   0.319   2.014  10.414  2.1890 -0.8243  1.8402
  101OSM    C7S10151   0.478   2.078  10.278  0.5278  0.5228 -0.0763
  101OSM    H7S10152   0.573   2.034  10.313 -0.3260 -0.8720  0.5320
  101OSM    H7T10153   0.500   2.179  10.238 -1.2177  0.7718 -0.4517
  101OSM    C8S10154   0.407   1.992  10.169 -0.1818 -0.6287 -0.3820
  101OSM    H8S10155   0.310   2.041  10.146  0.3740  0.4917 -0.3760
  101OSM    H8T10156   0.392   1.891  10.214  4.0515 -0.4004  1.8178
  101OSM    C9S10157   0.495   1.973  10.052  0.5194 -0.1761 -0.4126
  101OSM    H9S10158   0.603   1.952  10.070  0.6139  0.1968 -0.5330
  101OSM    H9T10159   0.495   2.076  10.009 -1.2707 -0.4962 -1.2262
  101OSM   C10S10160   0.427   1.885   9.943 -0.3688 -0.3619  0.2266
  101OSM   H10S10161   0.350   1.953   9.900 -0.1501  0.5712  1.3008
  101OSM   H10T10162   0.387   1.798  10.000 -1.3598  0.2723  0.5188
  101OSM   C11S10163   0.532   1.834   9.838 -0.3382 -0.1895  0.3315
  101OSM   H11S10164   0.601   1.762   9.887 -1.2439  0.1020  2.0896
  101OSM   H11T10165   0.596   1.914   9.796  1.4229 -1.0073  1.3691
  101OSM   C12S10166   0.450   1.756   9.737  0.4049 -0.3640 -0.1422
  101OSM   H12S10167   0.421   1.830   9.659 -0.7848  0.1820  0.7908
  101OSM   H12T10168   0.356   1.722   9.786 -0.3073 -0.3170 -1.4578
  101OSM   C13S10169   0.531   1.645   9.675 -0.3899 -0.6503 -0.5499
  101OSM   H13S10170   0.457   1.589   9.614 -0.4081  0.5703 -1.6737
  101OSM   H13T10171   0.563   1.579   9.758  2.1220  0.7229 -0.3513
  101OSM   C14S10172   0.645   1.687   9.594  0.0960 -0.8592  0.0650
  101OSM   H14S10173   0.695   1.599   9.548  2.7211 -0.8956  2.8184
  101OSM   H14T10174   0.719   1.728   9.667  0.8190  0.5979 -1.4571
  101OSM   C15S10175   0.626   1.778   9.474  0.6580 -0.0857 -0.2072
  101OSM   H15S10176   0.614   1.879   9.520 -4.1792 -0.5909 -0.0333
  101OSM   H15T10177   0.528   1.753   9.427  0.8521 -0.0401 -0.6302
  101OSM   C16S10178   0.745   1.779   9.379  0.7814  0.1186 -0.2978
  101OSM   H16S10179   0.835   1.806   9.437 -0.5790 -0.0965  1.9825
  101OSM   H16T10180   0.730   1.860   9.303  0.3611  0.4882  0.1742
  101OSM   C17S10181   0.764   1.652   9.298  0.3836  0.0844 -0.4280
  101OSM   H17S10182   0.665   1.610   9.269 -0.7004  1.5995  0.9704
  101OSM   H17T10183   0.818   1.578   9.360 -1.8771 -1.8734 -0.7212
  101OSM   C18S10184   0.843   1.668   9.163 -0.1299  0.4796 -0.3670
  101OSM   H18S10185   0.786   1.739   9.099 -0.8747 -0.6815 -1.0240
  101OSM   H18T10186   0.848   1.569   9.112 -2.4381  0.4226 -0.5203
  101OSM   H18U10187   0.943   1.712   9.185 -1.1298  1.8616  1.4855
  101OSM    C1F10188   0.775   2.529  10.553  0.1612 -0.2070  0.0816
  101OSM     OF10189   0.894   2.494  10.541 -0.3211  0.0662 -0.2148
  101OSM    C2F10190   0.733   2.667  10.520  1.0385  0.1071  0.0454
  101OSM    H2F10191   0.811   2.737  10.556  1.0643 -0.6096  1.3802
  101OSM    H2G10192   0.637   2.711  10.553 -0.7623 -3.7416  0.1793
  101OSM    C3F10193   0.746   2.678  10.364 -1.2380 -0.4122  0.3035
  101OSM    H3F10194   0.843   2.656  10.314 -1.0819 -0.1094  0.4697
  101OSM    H3G10195   0.743   2.788  10.345  2.5254 -0.2280  0.2760
  101OSM    C4F10196   0.635   2.614  10.289 -0.8714  0.5829 -0.3800
  101OSM    H4F10197   0.548   2.606  10.357 -2.2185 -1.8189 -2.3525
  101OSM    H4G10198   0.649   2.510  10.254  0.2023  0.6847 -0.2786
  101OSM    C5F10199   0.589   2.693  10.165 -0.2506  0.1664  0.3858
  101OSM    H5F10200   0.532   2.785  10.191  1.1681  1.7159 -1.7732
  101OSM    H5G10201   0.527   2.630  10.098  1.5111 -1.2361  0.0505
  101OSM    C6F10202   0.703   2.723  10.066  0.0785 -0.2750  0.0747
  101OSM    H6F10203   0.780   2.797  10.097  0.3671 -0.3825 -0.3781
  101OSM    H6G10204   0.749   2.622  10.069 -1.6969 -1.0864  0.5826
  101OSM    C7F10205   0.658   2.765   9.926 -0.5360 -0.1607 -1.0238
  101OSM    H7F10206   0.609   2.863   9.942  1.7921  1.3235 -2.6008
  101OSM    H7G10207   0.581   2.693   9.892  1.1745 -2.1667 -0.7865
  101OSM    C8F10208   0.767   2.779   9.822 -0.3404 -0.0734  0.0626
  101OSM    H8F10209   0.843   2.843   9.872  0.0323 -0.0022 -0.5786
  101OSM    H8G10210   0.722   2.844   9.744 -1.6514 -1.0990 -0.0471
  101OSM    C9F10211   0.833   2.649   9.782  0.3081  0.1817 -0.3379
  101OSM    H9F10212   0.874   2.594   9.869 -0.4379  0.4237  0.1702
  101OSM   C10F10213   0.844   2.596   9.657 -0.5253  0.6012  0.2624
  101OSM   H10F10214   0.909   2.509   9.640  2.3798  2.7089  0.1187
  101OSM   C11F10215   0.779   2.664   9.546 -0.0898  0.1194 -0.0178
  101OSM   H11F10216   0.848   2.751   9.539  1.7814 -1.4219 -1.2130
  101OSM   H11G10217   0.678   2.701   9.571  0.1366  2.7872 -2.7359
  101OSM   C12F10218   0.779   2.573   9.422  0.7360  0.3543  0.2476
  101OSM   H12F10219   0.733   2.475   9.446 -1.0970  1.4252  1.1900
  101OSM   H12G10220   0.884   2.564   9.387  0.9092 -0.7018  1.0156
  101OSM   C13F10221   0.701   2.640   9.299  0.7988  0.4505  0.0012
  101OSM   H13F10222   0.773   2.718   9.264 -0.4372  0.7376 -1.9872
  101OSM   H13G10223   0.604   2.681   9.335  1.0559  2.0857 -1.0881
  101OSM   C14F10224   0.681   2.533   9.186  0.4553 -0.7797  0.3565
  101OSM   H14F10225   0.641   2.437   9.223  3.3531 -1.5596  1.5604
  101OSM   H14G10226   0.779   2.515   9.137 -0.7310 -2.5137 -1.4689
  101OSM   C15F10227   0.591   2.589   9.075 -0.1502  0.0780 -0.3385
  101OSM   H15F10228   0.578   2.697   9.097 -1.0581 -0.2577  0.8057
  101OSM   H15G10229   0.490   2.542   9.076 -1.0812  2.0112 -0.7958
  101OSM   C16F10230   0.657   2.576   8.939 -0.1487  0.7949 -0.6190
  101OSM   H16F10231   0.652   2.467   8.921 -0.8594  0.8001 -0.4605
  101OSM   H16G10232   0.764   2.607   8.945 -0.0929  0.6441 -0.8087
  101OSM   C17F10233   0.583   2.634   8.813  0.1497  0.1752 -0.4010
  101OSM   H17F10234   0.638   2.626   8.716 -0.2182 -1.3689 -0.4925
  101OSM   H17G10235   0.570   2.744   8.818  0.0168  0.0713  1.9353
  101OSM   C18F10236   0.445   2.570   8.793 -0.1759 -0.2531  0.1389
  101OSM   H18F10237   0.441   2.469   8.745  1.7912  0.5374 -1.7317
  101OSM   H18G10238   0.390   2.643   8.730  0.3057 -1.1546 -1.3498
  101OSM   H18H10239   0.400   2.556   8.894  0.5764 -0.3141  0.4689
  102OSM      N10240   3.547   4.650  10.838  0.1185  0.6184  1.0430
  102OSM    C1510241   3.648   4.714  10.928  0.6151 -0.4205 -0.3836
  102OSM   H15A10242   3.739   4.657  10.941 -0.2228 -1.6750  0.0070
  102OSM   H15B10243   3.616   4.726  11.030  0.2857 -1.7566 -0.3240
  102OSM   H15C10244   3.671   4.809  10.882 -1.5236 -0.8662 -2.4314
  102OSM    C1410245   3.606   4.622  10.706  0.7804  0.7149 -0.4134
  102OSM   H14A10246   3.635   4.713  10.657  0.5469  0.8935 -0.2199
  102OSM   H14B10247   3.542   4.567  10.638 -0.6059 -0.5388  1.8321
  102OSM   H14C10248   3.690   4.554  10.710 -0.7314 -1.1323  0.8273
  102OSM    C1310249   3.529   4.520  10.912  0.3305 -1.0743 -0.0569
  102OSM   H13A10250   3.453   4.460  10.864 -1.9908  1.6575  0.0729
  102OSM   H13B10251   3.503   4.542  11.015  2.5474  1.0172  0.0783
  102OSM   H13C10252   3.617   4.457  10.910  1.3260  0.3138 -0.5842
  102OSM    C1210253   3.412   4.732  10.824  0.0633 -0.5329 -1.0911
  102OSM   H12A10254   3.348   4.729  10.911  2.5203  0.3786  0.8055
  102OSM   H12B10255   3.350   4.675  10.756 -1.0202 -0.2168 -0.3645
  102OSM    C1110256   3.423   4.877  10.769 -0.0199 -0.1725  0.3022
  102OSM   H11A10257   3.488   4.881  10.679 -1.0106  5.5276 -0.3178
  102OSM   H11B10258   3.462   4.943  10.850  0.2339 -1.4806  1.2710
  102OSM      P10259   3.258   5.039  10.645  0.0262  0.0954  0.0863
  102OSM    O1310260   3.117   5.041  10.626  0.1695  0.0146  0.4745
  102OSM    O1410261   3.315   5.163  10.708  0.0439 -0.2050  0.6287
  102OSM    O1110262   3.323   5.016  10.504  0.0903 -0.1253 -0.2482
  102OSM    O1210263   3.290   4.921  10.748 -0.3326 -0.6905 -0.2741
  102OSM    C1S10264   3.452   5.075  10.476 -0.0738 -0.5545  0.8294
  102OSM    H1S10265   3.523   4.993  10.501 -0.8247 -2.0663 -1.7503
  102OSM    H1T10266   3.466   5.169  10.532 -1.2039  0.2240 -0.1734
  102OSM     NF10267   3.588   5.177  10.307  0.0182  0.0040 -0.2987
  102OSM    HNF10268   3.579   5.276  10.297 -1.0000 -0.0304  0.3029
  102OSM    C2S10269   3.460   5.115  10.326  0.0944 -0.1125 -0.1787
  102OSM    H2S10270   3.462   5.021  10.267 -0.5289  0.6904 -1.5037
  102OSM    C3S10271   3.339   5.206  10.279 -0.8316  0.1139 -0.4778
  102OSM    H3S10272   3.338   5.309  10.321  0.7321  0.8018 -2.0727
  102OSM     O310273   3.206   5.157  10.301  0.6461  0.3152 -0.5842
  102OSM    HO310274   3.228   5.083  10.358 -0.9822 -0.4956 -1.0013
  102OSM    C4S10275   3.356   5.230  10.128  0.0950  0.5696  0.1619
  102OSM    H4S10276   3.409   5.323  10.102 -1.6372  0.7223 -3.1403
  102OSM    C5S10277   3.323   5.153  10.019 -0.0827 -0.0931  0.2206
  102OSM    H5S10278   3.283   5.052  10.033  0.2490 -0.0246  1.7542
  102OSM    C6S10279   3.339   5.201   9.875  0.1673  0.2322 -0.1856
  102OSM    H6S10280   3.337   5.111   9.810 -1.3729 -0.8757  1.3567
  102OSM    H6T10281   3.431   5.261   9.853  1.3144 -1.3893  0.0963
  102OSM    C7S10282   3.218   5.289   9.846 -0.3018  0.5553  0.5889
  102OSM    H7S10283   3.225   5.383   9.904 -2.2063  1.5194 -0.6980
  102OSM    H7T10284   3.120   5.239   9.854 -0.6899  1.2951  0.4974
  102OSM    C8S10285   3.229   5.328   9.696 -0.4289  0.3728 -1.0327
  102OSM    H8S10286   3.326   5.373   9.664 -0.3809  0.7731 -0.3159
  102OSM    H8T10287   3.162   5.414   9.677  0.3894  0.9296 -1.4530
  102OSM    C9S10288   3.214   5.208   9.596  0.2250 -0.1981 -0.6694
  102OSM    H9S10289   3.110   5.169   9.600  0.1686  0.0010 -0.2121
  102OSM    H9T10290   3.269   5.116   9.625  0.9568  0.4712  0.0962
  102OSM   C10S10291   3.245   5.255   9.453  0.9962  0.6390  0.1216
  102OSM   H10S10292   3.352   5.278   9.435  1.3850 -1.0495  0.1217
  102OSM   H10T10293   3.171   5.333   9.428 -1.7639 -1.4464  1.5482
  102OSM   C11S10294   3.209   5.147   9.345  0.3821 -0.5408 -0.0237
  102OSM   H11S10295   3.102   5.117   9.352 -0.3879  2.3194  1.1710
  102OSM   H11T10296   3.265   5.056   9.374  1.4075  0.4228  1.0701
  102OSM   C12S10297   3.223   5.201   9.201 -0.8471  0.0806  0.6187
  102OSM   H12S10298   3.323   5.245   9.183 -0.2143 -1.7967 -0.5102
  102OSM   H12T10299   3.151   5.285   9.189  0.7914  1.1749 -1.7829
  102OSM   C13S10300   3.183   5.097   9.091 -0.1189  0.1059  0.1709
  102OSM   H13S10301   3.074   5.076   9.087  0.4210 -2.5550 -1.8844
  102OSM   H13T10302   3.235   5.001   9.111 -1.0610 -0.6165 -0.7753
  102OSM   C14S10303   3.222   5.144   8.949 -0.1546  0.1261  0.6744
  102OSM   H14S10304   3.333   5.137   8.950 -0.1940 -0.4277  1.2683
  102OSM   H14T10305   3.188   5.247   8.924  0.3021  0.4002  1.1722
  102OSM   C15S10306   3.162   5.050   8.838 -0.7970 -0.0155  0.2505
  102OSM   H15S10307   3.121   4.955   8.880 -1.1286 -0.4240 -0.9841
  102OSM   H15T10308   3.244   5.017   8.771  0.4053  1.8957  0.7650
  102OSM   C16S10309   3.052   5.122   8.761 -0.0100 -0.0004 -0.2133
  102OSM   H16S10310   3.091   5.206   8.700 -0.5092  1.8423  1.9562
  102OSM   H16T10311   2.969   5.155   8.827 -1.6097 -1.0480 -1.6511
  102OSM   C17S10312   2.994   5.032   8.656  0.4327  0.2775  0.4936
  102OSM   H17S10313   2.934   4.954   8.709  1.1150 -0.8885 -0.4140
  102OSM   H17T10314   3.074   4.985   8.594  0.2522  0.4254  0.1465
  102OSM   C18S10315   2.900   5.102   8.554  0.1825 -0.3728 -0.7530
  102OSM   H18S10316   2.830   5.032   8.504 -0.3481 -1.2499  1.1846
  102OSM   H18T10317   2.965   5.131   8.469 -0.1678 -1.6203 -1.4429
  102OSM   H18U10318   2.859   5.197   8.595  0.5562 -0.3823 -0.3469
  102OSM    C1F10319   3.706   5.116  10.341  1.0266 -0.2480  0.2208
  102OSM     OF10320   3.718   4.993  10.355 -0.5255 -0.3943  0.1120
  102OSM    C2F10321   3.826   5.205  10.346  0.0263  0.2775 -0.2316
  102OSM    H2F10322   3.792   5.302  10.387 -5.6597 -1.8491  0.5092
  102OSM    H2G10323   3.839   5.233  10.239  2.2046  0.2136 -0.0027
  102OSM    C3F10324   3.961   5.143  10.400 -0.4982  0.3900 -0.2187
  102OSM    H3F10325   3.930   5.102  10.499  0.5463 -0.2430 -0.1461
  102OSM    H3G10326   4.036   5.225  10.395  1.7540 -1.6859 -1.5213
  102OSM    C4F10327   4.005   5.028  10.314 -0.2381 -0.4357 -0.5004
  102OSM    H4F10328   3.928   4.948  10.303  0.7671 -1.7431  1.6218
  102OSM    H4G10329   4.092   4.976  10.359  1.6348  1.3443 -1.9465
  102OSM    C5F10330   4.044   5.073  10.169 -0.3373  0.0281 -0.5260
  102OSM    H5F10331   4.132   5.140  10.180 -0.3539 -0.2934  1.7723
  102OSM    H5G10332   3.954   5.113  10.119  0.1541 -1.6167 -2.8518
  102OSM    C6F10333   4.083   4.960  10.079  0.5953  0.3239 -0.1581
  102OSM    H6F10334   4.006   4.880  10.090  3.3077 -2.3848 -0.1291
  102OSM    H6G10335   4.181   4.915  10.107 -0.4637 -1.0133  1.5344
  102OSM    C7F10336   4.119   5.009   9.935  0.6217  0.7528 -0.5111
  102OSM    H7F10337   4.203   5.081   9.929  0.9259  0.6417  1.8574
  102OSM    H7G10338   4.036   5.062   9.884  0.0078  0.5999  0.3082
  102OSM    C8F10339   4.140   4.884   9.843 -0.1084 -0.3698 -0.5905
  102OSM    H8F10340   4.217   4.818   9.888  2.7811  0.7781 -3.6251
  102OSM    H8G10341   4.197   4.922   9.755  2.6733 -3.3354 -0.1735
  102OSM    C9F10342   4.027   4.797   9.809 -0.4299  0.7986  0.5153
  102OSM    H9F10343   3.983   4.757   9.901 -2.4737 -1.7489 -1.4981
  102OSM   C10F10344   3.962   4.775   9.694  0.1194  0.8509  0.4115
  102OSM   H10F10345   3.881   4.701   9.693  0.5369  0.3731 -2.5583
  102OSM   C11F10346   3.991   4.851   9.568  0.0207 -0.1407  0.0792
  102OSM   H11F10347   4.059   4.938   9.583  0.1120 -0.0419 -0.8840
  102OSM   H11G10348   3.900   4.890   9.518  0.8128 -2.1624 -3.0524
  102OSM   C12F10349   4.068   4.770   9.458 -0.7764 -0.1226 -0.1906
  102OSM   H12F10350   4.016   4.680   9.420 -0.8006 -0.8495  1.5447
  102OSM   H12G10351   4.159   4.723   9.502  0.3671  1.8070 -0.4084
  102OSM   C13F10352   4.121   4.864   9.345 -0.4821  0.1378 -0.6023
  102OSM   H13F10353   4.135   4.971   9.374  0.7255  0.1385 -1.1857
  102OSM   H13G10354   4.042   4.867   9.267 -0.4048  1.6954 -0.6281
  102OSM   C14F10355   4.252   4.812   9.280 -0.0952  0.2858  0.4664
  102OSM   H14F10356   4.316   4.790   9.368 -1.4313  3.1323  2.2352
  102OSM   H14G10357   4.294   4.887   9.210 -1.4993  0.0833 -0.6226
  102OSM   C15F10358   4.232   4.685   9.194 -0.4596  0.3790 -0.3521
  102OSM   H15F10359   4.138   4.633   9.224  0.7606 -1.6953 -0.0357
  102OSM   H15G10360   4.313   4.616   9.225  1.5848  2.5226 -0.8227
  102OSM   C16F10361   4.238   4.706   9.045 -0.0023  0.0507  0.0238
  102OSM   H16F10362   4.313   4.770   8.992 -1.9253 -0.1289 -3.0298
  102OSM   H16G10363   4.137   4.747   9.025 -0.1022 -1.0483 -1.8050
  102OSM   C17F10364   4.236   4.561   8.977 -0.4336  0.6108 -0.3798
  102OSM   H17F10365   4.159   4.505   9.035  1.7066  0.5675  2.5208
  102OSM   H17G10366   4.329   4.510   9.010 -0.2918  1.8721  1.2021
  102OSM   C18F10367   4.209   4.566   8.827  0.6310 -0.2410  0.5226
  102OSM   H18F10368   4.281   4.621   8.763 -0.4937  1.2920  0.5661
  102OSM   H18G10369   4.110   4.610   8.802  0.9211  0.0679 -0.0731
  102OSM   H18H10370   4.213   4.461   8.790  1.3119 -0.3878  1.0004
  103OSM      N10371   2.391   0.900  11.111 -0.4800  0.3230  0.6843
  103OSM    C1510372   2.490   0.788  11.127  0.1070 -0.6874 -1.0407
  103OSM   H15A10373   2.567   0.797  11.053  0.2894 -1.0821 -0.8996
  103OSM   H15B10374   2.441   0.692  11.112 -1.5460  0.3882 -2.7762
  103OSM   H15C10375   2.540   0.795  11.222  1.0926  1.1263 -1.6749
  103OSM    C1410376   2.296   0.887  11.223 -0.1742 -0.1899 -0.3080
  103OSM   H14A10377   2.348   0.889  11.317  0.8645 -0.9361 -0.8458
  103OSM   H14B10378   2.246   0.791  11.227  1.1941 -0.9396 -0.8106
  103OSM   H14C10379   2.228   0.970  11.232 -1.0890 -1.0003  0.2664
  103OSM    C1310380   2.463   1.036  11.125 -0.3375  0.7795 -0.4827
  103OSM   H13A10381   2.392   1.117  11.108 -2.8994 -1.1419  0.6344
  103OSM   H13B10382   2.540   1.046  11.051 -0.6553  2.8274 -0.5627
  103OSM   H13C10383   2.506   1.040  11.224  0.9902 -0.1680 -1.0272
  103OSM    C1210384   2.316   0.891  10.975 -0.0712 -0.2346  0.6076
  103OSM   H12A10385   2.297   0.788  10.948 -1.1778  0.9795 -3.5687
  103OSM   H12B10386   2.388   0.923  10.901  0.6476 -0.9329  0.9899
  103OSM    C1110387   2.197   0.983  10.954 -0.0373 -0.7581 -0.4690
  103OSM   H11A10388   2.129   0.976  11.042  0.5649 -0.7887  0.0023
  103OSM   H11B10389   2.140   0.943  10.868 -1.9143  3.3202 -1.2138
  103OSM      P10390   2.299   1.179  10.823  0.3889 -0.2722  1.0749
  103OSM    O1310391   2.346   1.316  10.844 -0.1738 -0.4342 -0.0982
  103OSM    O1410392   2.403   1.089  10.769 -0.3971  0.2869 -0.7104
  103OSM    O1110393   2.173   1.181  10.731  0.1955 -0.7079  0.0783
  103OSM    O1210394   2.240   1.118  10.950  0.1246 -0.2378  0.7121
  103OSM    C1S10395   2.161   1.278  10.618 -0.2568 -0.2175 -0.7205
  103OSM    H1S10396   2.259   1.315  10.579 -0.4073  1.3014  0.2984
  103OSM    H1T10397   2.106   1.363  10.663 -0.0197 -1.0192  1.1284
  103OSM     NF10398   2.100   1.292  10.383 -0.8094  0.1627 -0.6199
  103OSM    HNF10399   2.054   1.380  10.370  0.3918  0.7211 -1.1167
  103OSM    C2S10400   2.075   1.218  10.503 -0.0422 -0.5781 -0.5674
  103OSM    H2S10401   2.116   1.115  10.500 -1.0362 -1.0469  1.2006
  103OSM    C3S10402   1.927   1.214  10.545 -0.3578 -0.3975 -0.4937
  103OSM    H3S10403   1.891   1.318  10.530  2.3577  0.3405 -2.1835
  103OSM     O310404   1.906   1.180  10.683  0.6290 -0.1960 -0.3475
  103OSM    HO310405   1.993   1.176  10.723  0.7082  1.1499 -0.3688
  103OSM    C4S10406   1.848   1.128  10.448  0.5438 -0.1596 -0.4866
  103OSM    H4S10407   1.899   1.033  10.424 -1.0377 -0.8659 -1.1389
  103OSM    C5S10408   1.728   1.157  10.388  0.2415 -0.2335 -0.1101
  103OSM    H5S10409   1.678   1.253  10.404  1.8338  0.7002 -0.5769
  103OSM    C6S10410   1.658   1.064  10.294 -0.0547  0.2767 -0.3902
  103OSM    H6S10411   1.549   1.065  10.314  0.2999  1.7754  1.7924
  103OSM    H6T10412   1.686   0.960  10.318  0.1328  0.7825  1.7143
  103OSM    C7S10413   1.691   1.076  10.142  0.0398 -0.4875 -0.6535
  103OSM    H7S10414   1.801   1.090  10.128 -0.1149  0.4140 -0.9705
  103OSM    H7T10415   1.646   1.174  10.116 -1.5449 -0.7298  1.0961
  103OSM    C8S10416   1.624   0.970  10.051  0.0127  0.4028  0.3551
  103OSM    H8S10417   1.532   0.933  10.101  1.2054 -3.1149  0.0444
  103OSM    H8T10418   1.683   0.880  10.025 -0.0860  0.6913 -0.8824
  103OSM    C9S10419   1.583   1.026   9.912 -0.6056  1.0605 -0.0969
  103OSM    H9S10420   1.679   1.032   9.856 -1.4843  0.5492 -1.7007
  103OSM    H9T10421   1.538   1.126   9.926 -0.5862  0.7495  2.4261
  103OSM   C10S10422   1.476   0.944   9.842  0.5119  0.0170 -0.4788
  103OSM   H10S10423   1.394   0.928   9.915  1.6423 -0.4350  0.7128
  103OSM   H10T10424   1.517   0.844   9.812 -0.1050 -0.9577  1.8524
  103OSM   C11S10425   1.417   1.015   9.722  0.3600  0.0871  0.1806
  103OSM   H11S10426   1.389   1.120   9.746  0.3290  0.5186 -1.6550
  103OSM   H11T10427   1.322   0.964   9.699  0.7276  0.1769 -1.5933
  103OSM   C12S10428   1.516   1.019   9.595 -0.8520  0.9871  0.4909
  103OSM   H12S10429   1.544   0.913   9.578  0.2927  1.2819  0.5182
  103OSM   H12T10430   1.602   1.088   9.609 -0.4046  0.2484  1.4129
  103OSM   C13S10431   1.447   1.065   9.468 -0.2493  0.0886 -0.2855
  103OSM   H13S10432   1.450   1.176   9.472 -0.0340  0.1141 -1.1456
  103OSM   H13T10433   1.343   1.027   9.469  0.5019 -1.9947 -0.2438
  103OSM   C14S10434   1.514   1.022   9.335 -0.2598  0.5411 -1.2073
  103OSM   H14S10435   1.524   0.911   9.330  0.9099  0.6630 -1.9670
  103OSM   H14T10436   1.619   1.059   9.328  0.1734 -0.3390  0.5009
  103OSM   C15S10437   1.429   1.066   9.213  0.0023 -0.1300  0.0478
  103OSM   H15S10438   1.428   1.176   9.206 -1.4987  0.0306  2.4480
  103OSM   H15T10439   1.335   1.008   9.215  1.3129 -2.4088 -1.8054
  103OSM   C16S10440   1.500   1.007   9.088 -0.7096 -0.3737 -0.8411
  103OSM   H16S10441   1.528   0.904   9.121  0.6127  0.0373 -0.6204
  103OSM   H16T10442   1.601   1.049   9.068 -0.1551 -0.6606  1.1957
  103OSM   C17S10443   1.407   1.025   8.967  0.8179 -0.2193  0.0365
  103OSM   H17S10444   1.398   1.133   8.942  1.3038 -0.3395 -0.6723
  103OSM   H17T10445   1.302   0.998   8.988  0.8822 -1.5209 -1.2646
  103OSM   C18S10446   1.464   0.961   8.840  0.0744 -0.0550 -0.2413
  103OSM   H18S10447   1.415   0.994   8.746  0.3551  0.1341 -0.3214
  103OSM   H18T10448   1.488   0.853   8.846 -0.1552 -0.3336 -3.3832
  103OSM   H18U10449   1.565   1.009   8.836 -0.2063  0.5176 -0.4657
  103OSM    C1F10450   2.214   1.271  10.312  0.0562  0.0588 -0.0858
  103OSM     OF10451   2.305   1.199  10.354  0.6869  0.7743 -0.1348
  103OSM    C2F10452   2.244   1.355  10.191 -0.0025  0.0338 -0.1432
  103OSM    H2F10453   2.309   1.443  10.207 -0.2082  0.0366  0.7204
  103OSM    H2G10454   2.147   1.390  10.152 -1.4306 -3.1176  0.3647
  103OSM    C3F10455   2.308   1.283  10.077 -0.3791 -0.6889 -0.1175
  103OSM    H3F10456   2.259   1.186  10.057 -2.9406  0.8981 -1.8209
  103OSM    H3G10457   2.405   1.248  10.119 -0.4005 -0.3477  0.2276
  103OSM    C4F10458   2.328   1.377   9.951  0.1779  0.0501 -0.4103
  103OSM    H4F10459   2.386   1.464   9.989 -1.6486  0.8339  0.6394
  103OSM    H4G10460   2.228   1.414   9.919 -0.8694 -1.6987  0.7852
  103OSM    C5F10461   2.402   1.304   9.843  0.3776 -0.0639 -0.1034
  103OSM    H5F10462   2.335   1.226   9.800 -1.0906  0.5063  1.0991
  103OSM    H5G10463   2.494   1.248   9.871  1.2917  2.1597  1.4707
  103OSM    C6F10464   2.430   1.404   9.732  0.1250  0.1578 -0.1223
  103OSM    H6F10465   2.499   1.484   9.767 -0.3992  1.0371 -1.0565
  103OSM    H6G10466   2.333   1.445   9.697  1.1025  1.1500 -1.7309
  103OSM    C7F10467   2.513   1.337   9.623  0.3256  0.1998  1.0169
  103OSM    H7F10468   2.601   1.300   9.681  1.3896  0.8732 -0.1218
  103OSM    H7G10469   2.560   1.416   9.560 -0.4997  0.0988  0.2687
  103OSM    C8F10470   2.439   1.230   9.544  1.1965 -0.1934  0.5025
  103OSM    H8F10471   2.407   1.146   9.610 -1.1010  0.7443  0.6324
  103OSM    H8G10472   2.514   1.177   9.481 -0.7795 -1.2486 -1.0410
  103OSM    C9F10473   2.316   1.293   9.467 -1.0742 -1.3047 -0.2543
  103OSM    H9F10474   2.215   1.290   9.512 -1.2494  1.2040 -0.3841
  103OSM   C10F10475   2.325   1.359   9.349  0.6086 -0.2514  0.7575
  103OSM   H10F10476   2.239   1.401   9.294  1.7152  2.4476  0.9871
  103OSM   C11F10477   2.459   1.364   9.269 -0.7624 -0.1366  0.2364
  103OSM   H11F10478   2.534   1.287   9.296 -1.4356 -0.5736  0.9245
  103OSM   H11G10479   2.514   1.460   9.275 -0.0104 -0.5995  0.8486
  103OSM   C12F10480   2.418   1.347   9.123 -0.3481 -0.2507  0.5945
  103OSM   H12F10481   2.331   1.413   9.100  0.3592  0.6001  0.3512
  103OSM   H12G10482   2.381   1.246   9.095  1.4112 -0.6416 -0.3696
  103OSM   C13F10483   2.527   1.372   9.019 -0.3917 -0.3423 -0.6723
  103OSM   H13F10484   2.611   1.306   9.049 -0.3416  0.2860  0.5674
  103OSM   H13G10485   2.566   1.475   9.036 -0.0400 -0.4791 -0.6496
  103OSM   C14F10486   2.488   1.342   8.871 -0.1736  0.3086  0.2500
  103OSM   H14F10487   2.421   1.253   8.871  1.5397 -0.9946  0.1821
  103OSM   H14G10488   2.579   1.316   8.813  0.0155  1.0284  0.2240
  103OSM   C15F10489   2.422   1.457   8.792  0.2704 -1.2015  0.6075
  103OSM   H15F10490   2.331   1.499   8.839 -2.7386 -1.7020 -4.4914
  103OSM   H15G10491   2.404   1.421   8.689  2.1851 -1.7229  0.4257
  103OSM   C16F10492   2.502   1.588   8.780 -0.5241 -0.1943 -0.5561
  103OSM   H16F10493   2.517   1.639   8.877  1.2057 -0.6135 -0.5894
  103OSM   H16G10494   2.436   1.647   8.712 -0.7852  0.1784  0.0184
  103OSM   C17F10495   2.647   1.572   8.726 -0.3186  0.2738  0.0162
  103OSM   H17F10496   2.695   1.491   8.785 -2.5391 -1.2006 -0.1535
  103OSM   H17G10497   2.707   1.658   8.762 -0.4522  0.1790  0.4728
  103OSM   C18F10498   2.661   1.558   8.571  0.1752  0.4357  0.0188
  103OSM   H18F10499   2.632   1.454   8.545 -1.0140  0.4867  1.1032
  103OSM   H18G10500   2.766   1.578   8.538 -0.3126  2.3509 -0.4281
  103OSM   H18H10501   2.597   1.637   8.525 -0.3114  0.5320  0.8618
  104OSM      N10502   3.804   5.933  10.726 -0.5107  0.1536  0.2116
  104OSM    C1510503   3.848   5.791  10.690 -0.1534  0.3292  0.4293
  104OSM   H15A10504   3.955   5.792  10.681 -0.1751  3.9331 -0.0797
  104OSM   H15B10505   3.803   5.755  10.599  1.3051 -0.7873  0.1277
  104OSM   H15C10506   3.822   5.726  10.773 -0.6842  0.4813  0.3888
  104OSM    C1410507   3.657   5.935  10.724  0.1077 -0.0689  0.5401
  104OSM   H14A10508   3.611   5.868  10.795  1.2421 -1.4625 -0.0147
  104OSM   H14B10509   3.619   5.909  10.627  0.5516 -0.0461  0.3594
  104OSM   H14C10510   3.614   6.032  10.746 -1.8815 -0.9279  0.5209
  104OSM    C1310511   3.847   5.966  10.865  0.4069 -0.0202  0.2917
  104OSM   H13A10512   3.818   5.894  10.940  0.2192 -0.9007 -0.6189
  104OSM   H13B10513   3.796   6.059  10.888 -0.4589  0.0599 -1.7682
  104OSM   H13C10514   3.953   5.984  10.864  0.7810 -1.9582  1.9999
  104OSM    C1210515   3.866   6.037  10.633 -0.0764 -0.0623 -0.3080
  104OSM   H12A10516   3.845   6.001  10.533 -1.5176  2.0094 -0.7911
  104OSM   H12B10517   3.973   6.042  10.652 -0.0910  2.9472 -0.6201
  104OSM    C1110518   3.827   6.188  10.632  0.2864  0.1431 -0.0865
  104OSM   H11A10519   3.879   6.242  10.549 -2.7570 -0.4377 -2.4446
  104OSM   H11B10520   3.856   6.224  10.733 -0.2390 -1.8134  0.7802
  104OSM      P10521   3.600   6.304  10.698 -0.6893 -0.1163  0.3979
  104OSM    O1310522   3.463   6.251  10.714  0.2115 -0.2981 -0.6175
  104OSM    O1410523   3.668   6.333  10.827  0.3651 -0.1904 -0.2284
  104OSM    O1110524   3.610   6.430  10.605 -0.9203 -0.8277  0.1194
  104OSM    O1210525   3.686   6.202  10.617 -0.1268 -0.1639  0.1357
  104OSM    C1S10526   3.560   6.434  10.475 -0.6016 -0.1921 -0.4549
  104OSM    H1S10527   3.450   6.427  10.484 -0.4780  0.2504  1.5978
  104OSM    H1T10528   3.606   6.350  10.417 -0.8033  0.2071 -1.1975
  104OSM     NF10529   3.510   6.598  10.302 -0.5129 -0.0472  0.0517
  104OSM    HNF10530   3.551   6.580  10.214  0.6656 -0.4897  0.6850
  104OSM    C2S10531   3.591   6.576  10.420  0.5330 -0.2766  0.4321
  104OSM    H2S10532   3.560   6.651  10.495 -1.0149 -0.1319 -0.3303
  104OSM    C3S10533   3.751   6.594  10.398 -0.5882 -0.9291 -0.5342
  104OSM    H3S10534   3.787   6.511  10.333  0.9989 -1.4034  0.9319
  104OSM     O310535   3.817   6.589  10.520 -0.0483 -0.0397  0.1725
  104OSM    HO310536   3.754   6.552  10.583  1.2896 -3.5851 -0.4571
  104OSM    C4S10537   3.778   6.719  10.321 -0.8155  0.5100  0.0329
  104OSM    H4S10538   3.740   6.809  10.371  0.0991  1.3405 -0.7426
  104OSM    C5S10539   3.854   6.730  10.208  0.3689  0.2660  0.2898
  104OSM    H5S10540   3.862   6.638  10.148 -1.2824 -0.2509  0.8359
  104OSM    C6S10541   3.869   6.853  10.131 -0.6475  0.5130 -0.8442
  104OSM    H6S10542   3.977   6.881  10.130  0.2339 -2.7142 -0.1008
  104OSM    H6T10543   3.822   6.943  10.177 -2.3774  0.2191 -1.9956
  104OSM    C7S10544   3.822   6.864   9.986  0.1160  0.0985  0.3477
  104OSM    H7S10545   3.829   6.968   9.949  2.7046 -0.3425 -0.5194
  104OSM    H7T10546   3.716   6.830   9.991  0.4335 -1.3348 -1.7445
  104OSM    C8S10547   3.902   6.778   9.887  0.1005  0.5925  0.6503
  104OSM    H8S10548   3.890   6.672   9.918  1.0671  0.6387  1.1991
  104OSM    H8T10549   4.012   6.795   9.891  0.7491 -3.1608  0.2415
  104OSM    C9S10550   3.867   6.791   9.737  0.0139  0.2620 -0.1623
  104OSM    H9S10551   3.874   6.895   9.699  0.3085  0.3000 -0.0066
  104OSM    H9T10552   3.760   6.766   9.722 -0.5502  1.5620  1.4762
  104OSM   C10S10553   3.949   6.692   9.653  0.1808 -0.2161 -0.4240
  104OSM   H10S10554   3.939   6.584   9.675  1.8073 -0.2040  0.5221
  104OSM   H10T10555   4.056   6.708   9.677 -0.2531  0.6484  1.0176
  104OSM   C11S10556   3.921   6.697   9.498 -0.5808 -0.2472 -0.2059
  104OSM   H11S10557   4.008   6.644   9.453 -1.8746 -1.9844 -0.7378
  104OSM   H11T10558   3.933   6.798   9.454 -1.2106  0.2715  0.8157
  104OSM   C12S10559   3.788   6.625   9.459 -0.7537  0.5799  0.2414
  104OSM   H12S10560   3.708   6.673   9.519  0.4986  0.6826  1.8839
  104OSM   H12T10561   3.795   6.519   9.494 -0.5895  0.5790  0.2105
  104OSM   C13S10562   3.755   6.649   9.312  0.1067 -0.1158  0.3428
  104OSM   H13S10563   3.768   6.757   9.291  0.4269 -0.4427 -1.2407
  104OSM   H13T10564   3.651   6.620   9.286  0.5089 -1.3314  0.0550
  104OSM   C14S10565   3.854   6.577   9.222  0.0558 -0.1357 -0.3254
  104OSM   H14S10566   3.853   6.477   9.270  0.9179  0.8664  1.8638
  104OSM   H14T10567   3.959   6.611   9.237  0.9923 -2.2075 -2.0010
  104OSM   C15S10568   3.822   6.553   9.074 -0.2145 -0.3278  0.0867
  104OSM   H15S10569   3.718   6.518   9.061 -1.2616  2.5604  0.3497
  104OSM   H15T10570   3.890   6.475   9.035 -0.3390 -0.4373  0.0931
  104OSM   C16S10571   3.822   6.677   8.992  0.4075 -0.0519  0.6803
  104OSM   H16S10572   3.915   6.738   8.997 -0.4782  1.4215 -0.1688
  104OSM   H16T10573   3.740   6.742   9.031 -2.2104 -2.5532 -0.5057
  104OSM   C17S10574   3.780   6.640   8.846 -0.7293  0.2699 -0.3222
  104OSM   H17S10575   3.837   6.547   8.823  0.7336  0.8256  0.9396
  104OSM   H17T10576   3.831   6.710   8.776 -2.1230  0.6527 -0.9673
  104OSM   C18S10577   3.633   6.631   8.805 -0.4612  0.2704 -1.0006
  104OSM   H18S10578   3.576   6.549   8.854 -1.3356  2.0450  1.0206
  104OSM   H18T10579   3.612   6.638   8.696  2.0029  0.3203 -1.5095
  104OSM   H18U10580   3.586   6.716   8.859  0.2283  0.2699 -0.3903
  104OSM    C1F10581   3.375   6.625  10.309  0.1573  0.3661 -0.3738
  104OSM     OF10582   3.314   6.648  10.416  0.2698  0.3052  0.7697
  104OSM    C2F10583   3.302   6.617  10.172 -0.1675  0.0531 -0.0828
  104OSM    H2F10584   3.302   6.511  10.141  0.5327  0.1506 -0.4217
  104OSM    H2G10585   3.347   6.687  10.098 -1.1787  0.5215 -0.2666
  104OSM    C3F10586   3.152   6.663  10.192  0.1565 -0.3909 -0.1162
  104OSM    H3F10587   3.143   6.748  10.263  1.1583 -1.9673  1.9273
  104OSM    H3G10588   3.101   6.581  10.246  1.5171 -0.1504  1.5477
  104OSM    C4F10589   3.079   6.678  10.067 -0.2443 -0.8521 -0.1436
  104OSM    H4F10590   3.140   6.742  10.000 -0.3043 -1.7542 -1.0719
  104OSM    H4G10591   2.979   6.726  10.078 -0.1928  0.1935 -3.5036
  104OSM    C5F10592   3.055   6.542  10.005 -0.3173 -0.0926  0.6084
  104OSM    H5F10593   2.970   6.495  10.059  0.3754 -1.7204  0.3111
  104OSM    H5G10594   3.142   6.475  10.023 -1.3787 -1.0576  2.3542
  104OSM    C6F10595   3.011   6.546   9.856  0.5648 -0.7110 -0.7142
  104OSM    H6F10596   2.992   6.438   9.836 -0.2696 -1.0421  1.7680
  104OSM    H6G10597   3.094   6.586   9.794  0.6281  1.5905  0.8005
  104OSM    C7F10598   2.878   6.612   9.814  0.3649 -0.4495  0.1382
  104OSM    H7F10599   2.886   6.720   9.838  0.4740  0.2713 -2.8834
  104OSM    H7G10600   2.792   6.578   9.876  0.9380 -0.8253  0.7239
  104OSM    C8F10601   2.854   6.616   9.659  0.2367 -0.2506  0.7463
  104OSM    H8F10602   2.930   6.689   9.624 -0.5938 -0.4007 -1.4359
  104OSM    H8G10603   2.751   6.656   9.645 -0.5746 -1.0692  3.8414
  104OSM    C9F10604   2.863   6.481   9.591  0.7114 -0.1921 -0.0106
  104OSM    H9F10605   2.843   6.397   9.659  0.5996  0.0678  0.2758
  104OSM   C10F10606   2.890   6.457   9.465  0.2214 -0.4235  0.7006
  104OSM   H10F10607   2.907   6.352   9.438  0.4541 -0.0867 -0.4759
  104OSM   C11F10608   2.921   6.557   9.356 -0.7862 -0.0750 -0.3448
  104OSM   H11F10609   3.006   6.519   9.295 -0.7163  0.9460 -0.9028
  104OSM   H11G10610   2.963   6.651   9.398 -1.4220  0.4572 -0.8660
  104OSM   C12F10611   2.807   6.603   9.267 -0.7564  0.1880 -0.6137
  104OSM   H12F10612   2.720   6.641   9.324 -1.0400 -0.0326 -0.8969
  104OSM   H12G10613   2.776   6.520   9.199 -2.0722  0.2259 -0.0751
  104OSM   C13F10614   2.850   6.720   9.173 -0.0196  0.1760  0.0111
  104OSM   H13F10615   2.955   6.702   9.142 -0.0938  0.2880 -0.3061
  104OSM   H13G10616   2.846   6.821   9.220  1.9474  0.6227 -0.7608
  104OSM   C14F10617   2.772   6.713   9.046 -0.0060  0.7533 -0.8843
  104OSM   H14F10618   2.663   6.704   9.064  0.1713  3.6203  1.9688
  104OSM   H14G10619   2.799   6.619   8.992 -2.5873 -0.6973  0.2333
  104OSM   C15F10620   2.797   6.836   8.960  0.3055 -0.6164 -0.5992
  104OSM   H15F10621   2.906   6.833   8.939  0.7155 -0.2646  1.3981
  104OSM   H15G10622   2.783   6.935   9.009 -2.4379 -0.6827 -1.1460
  104OSM   C16F10623   2.717   6.817   8.833  0.5138 -0.0301  0.1208
  104OSM   H16F10624   2.611   6.799   8.860  0.1883  1.4861 -0.1276
  104OSM   H16G10625   2.755   6.721   8.790 -2.2289 -1.0273 -0.1785
  104OSM   C17F10626   2.741   6.933   8.739 -0.4675  0.8196  0.0169
  104OSM   H17F10627   2.851   6.946   8.732 -0.4701  2.0439  1.6718
  104OSM   H17G10628   2.700   7.026   8.784 -1.0475  0.2784  0.6236
  104OSM   C18F10629   2.696   6.909   8.594  0.0558  0.3805  0.0671
  104OSM   H18F10630   2.732   6.995   8.534  0.4099 -0.5473 -1.0516
  104OSM   H18G10631   2.585   6.898   8.587  0.3316 -1.0719 -2.3895
  104OSM   H18H10632   2.735   6.816   8.549 -0.3681  0.7512 -1.0776
  105OSM      N10633   0.004   3.404  10.976 -0.4485  0.1119 -0.3126
  105OSM    C1510634  -0.133   3.360  11.017 -0.2963  0.3438  0.5930
  105OSM   H15A10635  -0.139   3.346  11.124  2.5302 -1.6536  0.5377
  105OSM   H15B10636  -0.176   3.268  10.979 -0.8672  0.7088  0.3452
  105OSM   H15C10637  -0.204   3.436  10.988 -1.7730  0.0126  3.1373
  105OSM    C1410638   0.001   3.454  10.839 -0.3883 -0.1088  0.5532
  105OSM   H14A10639  -0.040   3.385  10.766 -3.2894  1.6405  0.4266
  105OSM   H14B10640   0.098   3.491  10.810 -0.3092 -0.5816  0.2075
  105OSM   H14C10641  -0.062   3.541  10.829  1.4328  1.1865  0.1380
  105OSM    C1310642   0.043   3.509  11.075  0.4081 -0.7531 -0.4602
  105OSM   H13A10643   0.130   3.563  11.040  0.1273  0.2478  0.3727
  105OSM   H13B10644   0.071   3.472  11.172  2.2816  1.7680  0.0296
  105OSM   H13C10645  -0.033   3.585  11.078  0.2357 -0.6524 -4.2301
  105OSM    C1210646   0.103   3.290  10.997  0.6628  0.3017  0.4833
  105OSM   H12A10647   0.088   3.247  11.095 -1.4731  0.3136  0.2002
  105OSM   H12B10648   0.204   3.325  10.988  1.0597 -0.6870  1.0703
  105OSM    C1110649   0.101   3.170  10.893  0.0306 -0.4758 -0.3461
  105OSM   H11A10650   0.194   3.115  10.919 -0.3515 -1.2733 -0.6536
  105OSM   H11B10651   0.112   3.218  10.793  2.8552 -0.3369 -0.0128
  105OSM      P10652  -0.024   2.953  10.819 -0.4539  0.1360 -0.1169
  105OSM    O1310653   0.105   2.877  10.817 -0.2872  0.4587  0.7520
  105OSM    O1410654  -0.133   2.868  10.875  0.0801 -0.0645  0.0190
  105OSM    O1110655  -0.074   3.005  10.678 -0.3437  0.4630  0.2549
  105OSM    O1210656  -0.008   3.083  10.909 -0.0670 -0.4147 -0.3560
  105OSM    C1S10657  -0.170   3.113  10.674 -0.5140  0.1360 -0.3160
  105OSM    H1S10658  -0.115   3.205  10.701 -0.7729 -0.6008  2.8434
  105OSM    H1T10659  -0.248   3.098  10.751 -0.6407  2.1601 -0.0166
  105OSM     NF10660  -0.336   3.242  10.543 -0.0446  0.9708  0.5581
  105OSM    HNF10661  -0.429   3.210  10.558 -0.1579  1.9358  1.9976
  105OSM    C2S10662  -0.240   3.129  10.536  0.3118  0.0494 -0.2798
  105OSM    H2S10663  -0.161   3.146  10.460  1.0746 -3.1510 -0.2794
  105OSM    C3S10664  -0.308   2.998  10.490  0.0686 -0.0334 -0.6217
  105OSM    H3S10665  -0.374   2.956  10.569  1.5733  0.5937  1.0217
  105OSM     O310666  -0.214   2.896  10.489  0.2821 -0.0689 -0.1391
  105OSM    HO310667  -0.141   2.928  10.543  0.6704  0.9762 -1.2623
  105OSM    C4S10668  -0.389   3.018  10.372 -0.1372  0.4308 -0.4224
  105OSM    H4S10669  -0.497   3.003  10.388  0.0507 -1.3341 -0.7376
  105OSM    C5S10670  -0.358   3.035  10.245 -0.1122 -0.0938 -0.1270
  105OSM    H5S10671  -0.257   3.030  10.200 -0.8502  1.8347 -2.1321
  105OSM    C6S10672  -0.459   3.047  10.134  0.0925 -0.3380 -0.4057
  105OSM    H6S10673  -0.475   3.154  10.112 -2.8114 -0.6846 -0.1787
  105OSM    H6T10674  -0.554   3.002  10.170 -0.5050  0.8194 -0.5087
  105OSM    C7S10675  -0.411   2.990   9.996 -0.1917 -0.2695 -0.1154
  105OSM    H7S10676  -0.505   2.977   9.937 -0.7423 -0.1292  0.7155
  105OSM    H7T10677  -0.369   2.889  10.015  0.8503  0.6287  2.6148
  105OSM    C8S10678  -0.304   3.081   9.936 -0.4490  0.6695 -0.2729
  105OSM    H8S10679  -0.221   3.098  10.008 -0.1047  1.1025 -0.7705
  105OSM    H8T10680  -0.351   3.180   9.920  0.9935  1.4427  0.2272
  105OSM    C9S10681  -0.255   3.034   9.797 -0.2256  0.4303  0.0604
  105OSM    H9S10682  -0.193   3.116   9.755 -1.0026  1.0765  0.1823
  105OSM    H9T10683  -0.342   3.014   9.731  1.5780 -1.4341 -1.8330
  105OSM   C10S10684  -0.163   2.908   9.814  0.0374  0.3749  0.3570
  105OSM   H10S10685  -0.207   2.816   9.859  1.9591 -1.9218 -2.2870
  105OSM   H10T10686  -0.074   2.927   9.877  0.0760  2.1737 -0.2093
  105OSM   C11S10687  -0.095   2.851   9.684  0.2176 -0.9470 -0.6740
  105OSM   H11S10688  -0.169   2.823   9.606 -1.2578  1.3407 -0.1489
  105OSM   H11T10689  -0.044   2.758   9.718  1.1161 -0.8640 -1.7597
  105OSM   C12S10690   0.011   2.954   9.624  0.3779 -0.2952 -0.3671
  105OSM   H12S10691   0.064   3.004   9.707  0.9652 -0.8777 -0.3829
  105OSM   H12T10692  -0.048   3.032   9.573  1.7586  0.8025 -0.3073
  105OSM   C13S10693   0.098   2.887   9.515 -0.0909 -0.5407  0.2449
  105OSM   H13S10694   0.141   2.791   9.551 -1.5642 -1.7598 -1.2063
  105OSM   H13T10695   0.183   2.958   9.502 -1.1559  0.7389  0.1378
  105OSM   C14S10696   0.036   2.856   9.380  0.0966 -0.1614  0.7682
  105OSM   H14S10697  -0.019   2.942   9.336 -0.2566 -0.7358  0.0677
  105OSM   H14T10698  -0.032   2.770   9.394  0.8501 -0.7351  0.9509
  105OSM   C15S10699   0.124   2.804   9.266 -0.0887  0.9534  0.3424
  105OSM   H15S10700   0.062   2.780   9.177  0.2781 -2.2661  0.8910
  105OSM   H15T10701   0.159   2.700   9.285 -0.4838  0.4408 -1.5984
  105OSM   C16S10702   0.239   2.885   9.223 -0.8470  0.2862  0.3383
  105OSM   H16S10703   0.309   2.888   9.310  1.8655 -0.3911 -1.7642
  105OSM   H16T10704   0.207   2.986   9.190  2.1680  1.2087  0.1733
  105OSM   C17S10705   0.313   2.829   9.096 -0.3497 -0.2556 -0.5467
  105OSM   H17S10706   0.339   2.721   9.096  0.7239 -0.0029  0.9608
  105OSM   H17T10707   0.405   2.890   9.092  0.1850 -0.9976  0.2409
  105OSM   C18S10708   0.250   2.860   8.959  0.2384 -0.1763 -0.4447
  105OSM   H18S10709   0.322   2.818   8.885  4.6914  3.3265  1.6298
  105OSM   H18T10710   0.240   2.970   8.948 -1.9244 -0.5289 -2.3760
  105OSM   H18U10711   0.154   2.808   8.940 -0.2623 -0.1832  1.9794
  105OSM    C1F10712  -0.295   3.371  10.537  0.1923 -0.6594 -0.7792
  105OSM     OF10713  -0.187   3.403  10.496  0.1700  0.1376 -0.6123
  105OSM    C2F10714  -0.401   3.468  10.576  0.4821  0.0502  0.0534
  105OSM    H2F10715  -0.382   3.491  10.683  1.0430  0.8350 -0.2193
  105OSM    H2G10716  -0.505   3.430  10.563  0.3850 -0.5832  2.4337
  105OSM    C3F10717  -0.387   3.596  10.494  0.8312  0.2843 -0.4820
  105OSM    H3F10718  -0.280   3.625  10.490  1.0707 -0.1201  1.9371
  105OSM    H3G10719  -0.439   3.675  10.552 -0.6179 -1.2126  0.3107
  105OSM    C4F10720  -0.452   3.578  10.358 -0.1610 -0.9051 -0.3909
  105OSM    H4F10721  -0.505   3.670  10.330 -1.2096 -0.8802  1.5577
  105OSM    H4G10722  -0.516   3.487  10.369  0.8988 -1.5462  0.6897
  105OSM    C5F10723  -0.349   3.550  10.245 -0.1428  0.6037  0.0636
  105OSM    H5F10724  -0.317   3.443  10.239 -3.1272 -0.3037 -0.3967
  105OSM    H5G10725  -0.254   3.607  10.252  0.9164 -1.0891 -0.0951
  105OSM    C6F10726  -0.407   3.598  10.109  0.6376 -0.8435  0.1609
  105OSM    H6F10727  -0.408   3.708  10.123 -2.6736 -0.9420  1.1765
  105OSM    H6G10728  -0.511   3.559  10.115 -0.2736  1.2065 -1.7340
  105OSM    C7F10729  -0.329   3.538   9.993  0.0375  0.2839  0.4295
  105OSM    H7F10730  -0.303   3.431  10.006  1.9031  0.6154 -0.2944
  105OSM    H7G10731  -0.230   3.589   9.986 -0.5796  1.8476  2.5888
  105OSM    C8F10732  -0.397   3.562   9.856  0.9592 -0.3156  0.1048
  105OSM    H8F10733  -0.414   3.672   9.859  0.6782 -0.3351 -0.6196
  105OSM    H8G10734  -0.497   3.514   9.861  1.2620 -1.1221 -1.2187
  105OSM    C9F10735  -0.318   3.495   9.739 -0.0135  0.7479 -0.4081
  105OSM    H9F10736  -0.210   3.514   9.727 -0.7673  3.1956 -4.0078
  105OSM   C10F10737  -0.365   3.384   9.671  0.0667  0.8282  0.1377
  105OSM   H10F10738  -0.308   3.347   9.584  0.3232  1.3927  0.0619
  105OSM   C11F10739  -0.490   3.310   9.689 -0.4149  0.1153  0.0199
  105OSM   H11F10740  -0.527   3.318   9.793  0.8965 -1.4844  0.6356
  105OSM   H11G10741  -0.486   3.203   9.659 -3.7417 -0.5537  1.7061
  105OSM   C12F10742  -0.593   3.355   9.600 -0.0465 -0.1867 -0.0367
  105OSM   H12F10743  -0.640   3.450   9.633 -1.5359 -1.0141  0.2751
  105OSM   H12G10744  -0.677   3.283   9.607  0.0190 -0.5697 -2.5995
  105OSM   C13F10745  -0.559   3.369   9.452  0.3813 -0.0846  0.7326
  105OSM   H13F10746  -0.645   3.336   9.390  0.2484  0.7787  0.4500
  105OSM   H13G10747  -0.481   3.292   9.432  0.5683  0.2222  0.2645
  105OSM   C14F10748  -0.528   3.505   9.402 -0.1064 -0.0065  0.0848
  105OSM   H14F10749  -0.444   3.547   9.461 -0.8924  2.5522 -0.5765
  105OSM   H14G10750  -0.612   3.574   9.419  0.2972  0.0565  1.9432
  105OSM   C15F10751  -0.473   3.504   9.256  0.3759  0.6146  0.0630
  105OSM   H15F10752  -0.386   3.434   9.256  1.0846  1.4919 -0.2488
  105OSM   H15G10753  -0.450   3.611   9.237  2.2781  0.3918  1.0351
  105OSM   C16F10754  -0.576   3.456   9.158 -0.3029  0.9205  1.5347
  105OSM   H16F10755  -0.671   3.512   9.169 -1.2821 -0.0883 -1.1643
  105OSM   H16G10756  -0.599   3.348   9.167  0.9946  0.2757 -1.8998
  105OSM   C17F10757  -0.524   3.481   9.013 -0.7800  0.5719 -1.1451
  105OSM   H17F10758  -0.434   3.417   9.016  0.4470  2.2501 -1.0855
  105OSM   H17G10759  -0.475   3.581   9.008 -0.7272  0.7182  1.4171
  105OSM   C18F10760  -0.603   3.438   8.891  0.2987 -0.3357  0.0664
  105OSM   H18F10761  -0.550   3.453   8.795  2.2365 -1.8871  0.8459
  105OSM   H18G10762  -0.700   3.492   8.880  0.7705  0.2757 -1.1433
  105OSM   H18H10763  -0.641   3.334   8.899 -1.0822  0.0773 -0.9925
  106OSM      N10764   5.043   2.717  10.737 -0.1917  0.2380 -0.3897
  106OSM    C1510765   5.091   2.612  10.836  0.4763 -0.2693 -0.2777
  106OSM   H15A10766   5.030   2.523  10.848  0.2086 -0.3409 -1.9508
  106OSM   H15B10767   5.102   2.658  10.933  1.6522 -0.3787 -0.3452
  106OSM   H15C10768   5.190   2.572  10.814  1.1365  0.3118  1.6221
  106OSM    C1410769   5.015   2.654  10.606 -0.1277 -0.4898 -0.0524
  106OSM   H14A10770   4.941   2.576  10.618  0.7788 -1.7130 -2.0681
  106OSM   H14B10771   5.103   2.606  10.565 -0.4012 -2.0938  1.1858
  106OSM   H14C10772   4.978   2.727  10.535  1.4753  1.5620  1.2080
  106OSM    C1310773   4.918   2.772  10.798  0.2780  0.0342 -1.5379
  106OSM   H13A10774   4.892   2.861  10.742  0.3275  0.3069 -1.1295
  106OSM   H13B10775   4.933   2.805  10.900  1.6294  1.3805 -2.1501
  106OSM   H13C10776   4.839   2.698  10.800  0.8759 -0.5811 -0.3628
  106OSM    C1210777   5.148   2.821  10.719  0.5343 -0.5107 -0.4591
  106OSM   H12A10778   5.182   2.849  10.818  1.7779 -1.3104 -0.6566
  106OSM   H12B10779   5.103   2.910  10.678  1.2216  0.0073 -0.0864
  106OSM    C1110780   5.284   2.798  10.644 -0.2222 -0.1397 -0.1280
  106OSM   H11A10781   5.350   2.885  10.663 -2.0524  1.3683 -0.5450
  106OSM   H11B10782   5.275   2.775  10.536  0.0601  1.6952 -0.5549
  106OSM      P10783   5.490   2.685  10.771 -0.0056  0.1879 -0.0736
  106OSM    O1310784   5.489   2.777  10.890  0.3212 -0.9545 -0.1379
  106OSM    O1410785   5.536   2.548  10.800 -0.3360  0.0901  0.4000
  106OSM    O1110786   5.591   2.745  10.665 -1.0466  0.1425  0.3712
  106OSM    O1210787   5.346   2.683  10.699 -0.1986 -0.1529  0.4961
  106OSM    C1S10788   5.613   2.691  10.535 -0.3258  0.6349 -0.0197
  106OSM    H1S10789   5.581   2.585  10.534 -0.8450  0.7515  2.3947
  106OSM    H1T10790   5.721   2.681  10.514  0.0447  0.0772  2.1045
  106OSM     NF10791   5.576   2.718  10.295  0.1392  0.1288 -0.0242
  106OSM    HNF10792   5.650   2.754  10.238 -0.4806 -0.2480 -1.0885
  106OSM    C2S10793   5.553   2.777  10.415 -0.3379 -0.4130 -0.2440
  106OSM    H2S10794   5.445   2.795  10.435 -0.2946  0.2072 -0.5481
  106OSM    C3S10795   5.607   2.923  10.420  0.5435 -0.1173 -0.4119
  106OSM    H3S10796   5.717   2.922  10.407  0.4856  1.3095 -1.2070
  106OSM     O310797   5.599   2.984  10.553  0.4514  0.4608 -0.4070
  106OSM    HO310798   5.580   2.912  10.614  1.3620  0.0673 -0.5770
  106OSM    C4S10799   5.530   2.991  10.314 -0.1796  0.9516 -0.1836
  106OSM    H4S10800   5.422   2.988  10.331 -0.0924  1.0122  0.4110
  106OSM    C5S10801   5.582   3.066  10.222  0.9930 -0.4897 -0.2808
  106OSM    H5S10802   5.691   3.078  10.228  1.0954 -1.8448  1.1260
  106OSM    C6S10803   5.509   3.142  10.112 -0.2016  0.3929  0.1037
  106OSM    H6S10804   5.558   3.239  10.092 -1.3937  0.8720 -0.5176
  106OSM    H6T10805   5.402   3.155  10.140 -0.1439  1.0289  0.0276
  106OSM    C7S10806   5.514   3.055   9.985 -0.0316 -0.1104 -0.0287
  106OSM    H7S10807   5.489   2.950  10.010 -1.7130  0.3959  0.5029
  106OSM    H7T10808   5.615   3.049   9.940 -0.4250 -2.0344 -0.6726
  106OSM    C8S10809   5.423   3.116   9.879 -0.6813  0.5102 -0.1882
  106OSM    H8S10810   5.440   3.226   9.870 -1.5774  0.6422 -0.3733
  106OSM    H8T10811   5.319   3.115   9.918 -0.5694 -1.0239  0.0878
  106OSM    C9S10812   5.411   3.039   9.746  0.9170  0.6279 -0.7191
  106OSM    H9S10813   5.377   2.935   9.766 -0.6645  0.9064 -1.8089
  106OSM    H9T10814   5.515   3.050   9.709  0.7974  2.3893 -0.5852
  106OSM   C10S10815   5.329   3.118   9.644  0.4273 -0.0045 -0.2354
  106OSM   H10S10816   5.363   3.224   9.636 -1.1589  0.5375  0.1576
  106OSM   H10T10817   5.228   3.128   9.688  0.3836  0.1320 -0.3647
  106OSM   C11S10818   5.312   3.050   9.513  0.6514  0.1536  0.9431
  106OSM   H11S10819   5.253   3.121   9.450  4.2706  1.0331 -1.6662
  106OSM   H11T10820   5.253   2.956   9.514 -1.4332  1.3623 -1.7882
  106OSM   C12S10821   5.435   3.026   9.431 -0.1214 -0.4178 -0.2829
  106OSM   H12S10822   5.508   2.963   9.487 -1.1067 -0.9769  0.3712
  106OSM   H12T10823   5.496   3.117   9.417  1.0948 -0.9332  1.4455
  106OSM   C13S10824   5.422   2.961   9.293  0.3090  0.0669 -0.6021
  106OSM   H13S10825   5.356   3.028   9.235  0.9281  1.9296  0.7773
  106OSM   H13T10826   5.374   2.861   9.301 -1.7279  1.1787  1.4335
  106OSM   C14S10827   5.551   2.958   9.203 -0.0517 -0.1334  0.2505
  106OSM   H14S10828   5.633   2.907   9.258  1.3770  0.7695 -0.9846
  106OSM   H14T10829   5.597   3.059   9.199  1.2785 -0.7532 -0.6272
  106OSM   C15S10830   5.538   2.900   9.063  0.1304 -0.0871  0.4665
  106OSM   H15S10831   5.449   2.937   9.008 -0.6972 -1.5904  0.7562
  106OSM   H15T10832   5.530   2.789   9.068 -1.1169 -0.2383 -3.1281
  106OSM   C16S10833   5.656   2.921   8.983  0.1018 -0.5481  0.4129
  106OSM   H16S10834   5.744   2.911   9.051  1.5810 -1.5809 -1.5748
  106OSM   H16T10835   5.659   3.024   8.943  2.0629 -1.1416 -1.0749
  106OSM   C17S10836   5.671   2.821   8.866  0.2184 -0.1362  0.1253
  106OSM   H17S10837   5.575   2.817   8.810  0.4175  0.2211 -0.2445
  106OSM   H17T10838   5.692   2.724   8.916  1.7617 -0.6492 -1.4913
  106OSM   C18S10839   5.799   2.841   8.783  0.1545 -0.0067  0.5221
  106OSM   H18S10840   5.885   2.829   8.852  0.8115  2.3162  0.1440
  106OSM   H18T10841   5.824   2.947   8.758 -1.7317  0.5223  0.7933
  106OSM   H18U10842   5.798   2.764   8.704  0.5378 -1.2610  1.7269
  106OSM    C1F10843   5.521   2.601  10.261  0.4805 -0.1524  0.6193
  106OSM     OF10844   5.434   2.549  10.330 -0.3335 -0.3277  0.4830
  106OSM    C2F10845   5.582   2.526  10.151 -0.2297 -0.4797  0.4320
  106OSM    H2F10846   5.669   2.477  10.200  1.3962  1.8009 -0.0915
  106OSM    H2G10847   5.625   2.601  10.081 -2.4464 -1.6917 -2.3244
  106OSM    C3F10848   5.478   2.436  10.076 -0.0894  0.3995  0.2871
  106OSM    H3F10849   5.391   2.502  10.057  0.2417  0.6655 -0.3224
  106OSM    H3G10850   5.442   2.359  10.148 -2.4118  2.6430  1.6266
  106OSM    C4F10851   5.524   2.380   9.942  0.5883 -0.3009 -0.4839
  106OSM    H4F10852   5.439   2.325   9.897 -1.1399  1.9816 -0.1039
  106OSM    H4G10853   5.606   2.308   9.959  0.2957 -0.5708 -0.2048
  106OSM    C5F10854   5.570   2.485   9.842  0.5620  0.5060  0.5522
  106OSM    H5F10855   5.647   2.547   9.893  1.5091 -1.4138  1.4980
  106OSM    H5G10856   5.483   2.548   9.813  1.4593  1.1658 -0.7825
  106OSM    C6F10857   5.607   2.426   9.701 -0.2753 -0.3159 -0.0027
  106OSM    H6F10858   5.535   2.347   9.669 -0.7382  0.3652 -0.6550
  106OSM    H6G10859   5.702   2.375   9.730  0.3427 -0.2088 -1.7478
  106OSM    C7F10860   5.636   2.528   9.594  0.5106  0.8560  0.1467
  106OSM    H7F10861   5.700   2.604   9.643  0.8236  0.9082 -0.3428
  106OSM    H7G10862   5.534   2.562   9.569  0.3002 -1.0731 -1.7567
  106OSM    C8F10863   5.704   2.465   9.470 -0.2730 -0.7598 -0.4051
  106OSM    H8F10864   5.638   2.381   9.443 -2.8303  1.3556 -0.9229
  106OSM    H8G10865   5.804   2.423   9.494  0.0465  0.8837  1.2031
  106OSM    C9F10866   5.712   2.567   9.358 -0.5011  0.2563 -0.1773
  106OSM    H9F10867   5.737   2.670   9.387  1.4826 -0.8712  2.3142
  106OSM   C10F10868   5.676   2.540   9.230 -0.4166 -0.9320 -0.1336
  106OSM   H10F10869   5.688   2.627   9.163 -0.9544 -1.4291 -0.8904
  106OSM   C11F10870   5.623   2.418   9.175  0.1113  0.7997 -0.2391
  106OSM   H11F10871   5.514   2.424   9.196 -0.1120  1.1757 -1.4596
  106OSM   H11G10872   5.660   2.330   9.230 -0.1209  0.5179 -0.5338
  106OSM   C12F10873   5.629   2.395   9.023 -0.4293 -0.0003 -0.3165
  106OSM   H12F10874   5.573   2.473   8.968 -1.5596 -1.6259 -1.5394
  106OSM   H12G10875   5.592   2.297   8.987  0.5845 -0.4311 -0.2280
  106OSM   C13F10876   5.777   2.396   8.974 -0.3284  0.2928 -0.4217
  106OSM   H13F10877   5.848   2.332   9.031 -1.8112 -0.4293  0.6573
  106OSM   H13G10878   5.824   2.496   8.992 -1.9717  1.0888 -0.4830
  106OSM   C14F10879   5.788   2.359   8.826 -0.1197 -0.7568 -0.1572
  106OSM   H14F10880   5.719   2.276   8.802 -0.9646 -0.0229 -0.2665
  106OSM   H14G10881   5.889   2.321   8.799  0.6647  0.6469  0.7061
  106OSM   C15F10882   5.762   2.471   8.729 -0.3546 -0.7597 -0.3520
  106OSM   H15F10883   5.838   2.549   8.752 -0.7049 -0.5796  0.2160
  106OSM   H15G10884   5.658   2.509   8.741 -0.4719 -1.3614  0.5810
  106OSM   C16F10885   5.793   2.435   8.579  0.7814 -0.7623 -0.4811
  106OSM   H16F10886   5.710   2.376   8.536 -0.0623  0.4123 -0.4969
  106OSM   H16G10887   5.885   2.378   8.555  1.8544  2.0426 -3.4130
  106OSM   C17F10888   5.831   2.564   8.491 -0.7318  0.2262 -0.5782
  106OSM   H17F10889   5.765   2.645   8.529 -0.1610 -0.1358  1.2283
  106OSM   H17G10890   5.808   2.546   8.384  0.0345 -0.7063 -0.5917
  106OSM   C18F10891   5.980   2.591   8.504  0.0185 -0.2027 -0.0646
  106OSM   H18F10892   6.046   2.502   8.495 -1.4728 -1.0349 -3.2355
  106OSM   H18G10893   5.992   2.633   8.606 -1.2186 -0.6921  0.2855
  106OSM   H18H10894   6.009   2.668   8.429 -1.2770 -0.1384 -0.5054
  107OSM      N10895   1.727   6.571  10.789  0.2783  0.8835  0.1278
  107OSM    C1510896   1.808   6.472  10.717 -0.0429  0.3489  0.3411
  107OSM   H15A10897   1.911   6.502  10.712 -0.0485  0.5687  1.4049
  107OSM   H15B10898   1.763   6.441  10.624 -0.8269 -1.4397  1.2842
  107OSM   H15C10899   1.823   6.382  10.776  0.4989  0.5171  0.4589
  107OSM    C1410900   1.598   6.498  10.827  0.5978  0.4648 -0.0400
  107OSM   H14A10901   1.545   6.474  10.736  1.7491  1.6338 -1.0475
  107OSM   H14B10902   1.542   6.560  10.896  0.1546 -0.2948  0.2889
  107OSM   H14C10903   1.622   6.408  10.883 -1.4123  0.6898  1.2535
  107OSM    C1310904   1.808   6.602  10.913 -0.0070  0.1753 -0.3754
  107OSM   H13A10905   1.897   6.656  10.885 -0.2813 -0.2138 -2.0283
  107OSM   H13B10906   1.838   6.515  10.970  1.4341  1.6235  1.1431
  107OSM   H13C10907   1.758   6.666  10.984  0.0623  1.8246 -1.7999
  107OSM    C1210908   1.700   6.689  10.702  0.3092 -0.0399 -0.7491
  107OSM   H12A10909   1.611   6.738  10.740 -0.3867 -1.6507 -0.2411
  107OSM   H12B10910   1.669   6.657  10.604  0.9244 -0.8478 -0.6836
  107OSM    C1110911   1.808   6.804  10.693  0.3452  0.0387  0.2045
  107OSM   H11A10912   1.795   6.885  10.618  1.5716  1.3611  1.3747
  107OSM   H11B10913   1.906   6.762  10.660  0.7687  1.6730 -0.6820
  107OSM      P10914   1.738   6.974  10.881  0.0817 -0.1715  0.4263
  107OSM    O1310915   1.611   6.914  10.929  0.6132  0.3158  0.8579
  107OSM    O1410916   1.813   7.033  10.992  0.8878 -0.4901 -0.0584
  107OSM    O1110917   1.701   7.078  10.772 -0.4953 -0.1890 -0.6599
  107OSM    O1210918   1.835   6.868  10.815 -0.5415 -0.2953 -0.2022
  107OSM    C1S10919   1.790   7.188  10.742  0.2609 -0.4319 -0.2592
  107OSM    H1S10920   1.897   7.159  10.751 -0.1032 -1.5011  0.7403
  107OSM    H1T10921   1.779   7.270  10.816 -0.3010  0.9389 -1.8299
  107OSM     NF10922   1.876   7.315  10.535  0.3397  0.5014  0.8808
  107OSM    HNF10923   1.870   7.412  10.513 -0.1788 -0.0459 -1.4746
  107OSM    C2S10924   1.761   7.243  10.598  0.0725  0.4430 -0.0696
  107OSM    H2S10925   1.752   7.148  10.542 -1.4542  0.8586 -0.5551
  107OSM    C3S10926   1.626   7.311  10.580  0.4375  0.3746  0.5531
  107OSM    H3S10927   1.604   7.396  10.648  0.3607  1.6015 -0.9770
  107OSM     O310928   1.526   7.215  10.618  0.3468 -0.5146 -0.2822
  107OSM    HO310929   1.576   7.136  10.639  2.8532  1.1210  0.0916
  107OSM    C4S10930   1.596   7.351  10.442  0.2314  0.3165 -0.3758
  107OSM    H4S10931   1.601   7.272  10.365  0.0221 -1.6743  1.6016
  107OSM    C5S10932   1.559   7.470  10.397 -0.1879  0.2287 -0.2074
  107OSM    H5S10933   1.550   7.539  10.482  2.9030 -0.9049  1.1215
  107OSM    C6S10934   1.540   7.510  10.254  0.1417 -0.3627 -0.1307
  107OSM    H6S10935   1.633   7.559  10.217 -0.0881 -0.5908 -1.0202
  107OSM    H6T10936   1.454   7.581  10.248  0.9725  0.9756  2.7891
  107OSM    C7S10937   1.510   7.396  10.154  0.5489 -0.3351  0.1459
  107OSM    H7S10938   1.430   7.336  10.202  0.5734 -0.1092  0.4725
  107OSM    H7T10939   1.592   7.327  10.126 -2.0497 -3.2753 -0.5090
  107OSM    C8S10940   1.437   7.456  10.029 -0.1242  0.1392  0.2035
  107OSM    H8S10941   1.513   7.500   9.961  1.4281 -2.5310  0.1442
  107OSM    H8T10942   1.368   7.536  10.064 -0.2318  0.5812 -1.0119
  107OSM    C9S10943   1.366   7.347   9.951 -0.7292  0.2607 -0.2471
  107OSM    H9S10944   1.292   7.296  10.016 -0.8354  1.6797  0.7563
  107OSM    H9T10945   1.439   7.267   9.928 -1.9724 -2.2008  3.7980
  107OSM   C10S10946   1.303   7.388   9.820 -0.2178 -0.4704  0.3967
  107OSM   H10S10947   1.226   7.469   9.822  0.7213  0.4892 -0.8973
  107OSM   H10T10948   1.243   7.297   9.800 -0.1674 -0.3832 -0.1656
  107OSM   C11S10949   1.396   7.398   9.696  0.5747 -0.4887 -0.4493
  107OSM   H11S10950   1.466   7.313   9.686 -1.9226 -2.6872  0.1904
  107OSM   H11T10951   1.463   7.484   9.717 -0.1083 -0.0725  0.0293
  107OSM   C12S10952   1.314   7.420   9.569 -0.0020 -0.3287  0.5476
  107OSM   H12S10953   1.251   7.511   9.579 -0.4118 -0.1037 -3.2872
  107OSM   H12T10954   1.253   7.327   9.569  1.1086 -1.0733  1.9333
  107OSM   C13S10955   1.389   7.422   9.442  0.1861 -0.2335  0.5431
  107OSM   H13S10956   1.493   7.383   9.443  0.1649 -0.3141 -0.0499
  107OSM   H13T10957   1.413   7.529   9.421  0.5839 -0.2253  1.0298
  107OSM   C14S10958   1.307   7.377   9.318 -0.3889  0.1889 -1.0181
  107OSM   H14S10959   1.207   7.425   9.316 -0.2173  0.6234  0.3501
  107OSM   H14T10960   1.295   7.267   9.329 -0.0970  0.2138 -0.4210
  107OSM   C15S10961   1.384   7.406   9.186  0.4581  0.0442  0.2728
  107OSM   H15S10962   1.483   7.358   9.190 -0.2734 -1.3737  1.9233
  107OSM   H15T10963   1.407   7.515   9.180 -0.7953  0.3013 -0.0502
  107OSM   C16S10964   1.306   7.379   9.059 -0.3127  0.4893 -0.1061
  107OSM   H16S10965   1.212   7.438   9.055 -1.1565 -0.8729 -0.7203
  107OSM   H16T10966   1.279   7.273   9.042 -0.0845  0.5715 -0.9931
  107OSM   C17S10967   1.376   7.414   8.929 -0.1880  0.4415 -0.2343
  107OSM   H17S10968   1.459   7.347   8.901  0.0180 -0.3080  2.0924
  107OSM   H17T10969   1.425   7.510   8.956 -1.5438  0.7208  1.3807
  107OSM   C18S10970   1.276   7.427   8.821  0.3350 -0.1622  0.0093
  107OSM   H18S10971   1.326   7.431   8.722  0.6610 -1.2068  0.1223
  107OSM   H18T10972   1.222   7.524   8.819 -0.2809 -0.5137 -0.6755
  107OSM   H18U10973   1.199   7.348   8.833  0.0801  0.2595  1.2099
  107OSM    C1F10974   1.991   7.259  10.518  0.1091  0.3626  0.2448
  107OSM     OF10975   2.008   7.145  10.557  0.1052  0.1652  0.4426
  107OSM    C2F10976   2.099   7.338  10.459 -0.4089 -0.7461  0.2765
  107OSM    H2F10977   2.109   7.441  10.500 -0.1990 -1.7955  2.9209
  107OSM    H2G10978   2.079   7.350  10.350  2.9226  1.7878 -0.1432
  107OSM    C3F10979   2.238   7.282  10.478 -1.0771 -0.1369  0.4620
  107OSM    H3F10980   2.244   7.178  10.440  1.5730 -0.3326  1.3739
  107OSM    H3G10981   2.270   7.290  10.584  0.5973  0.7300 -0.0959
  107OSM    C4F10982   2.352   7.355  10.401  0.0479  0.3208  0.4435
  107OSM    H4F10983   2.450   7.335  10.449 -0.5996  0.5857  1.9100
  107OSM    H4G10984   2.341   7.465  10.400 -1.0895  0.2342  2.0325
  107OSM    C5F10985   2.364   7.299  10.257  0.0518  0.0314  0.3426
  107OSM    H5F10986   2.266   7.314  10.208  0.9345  1.1026 -1.1251
  107OSM    H5G10987   2.376   7.189  10.261 -3.4112 -0.4050 -0.4855
  107OSM    C6F10988   2.477   7.358  10.173  0.2077 -0.1204  0.1238
  107OSM    H6F10989   2.578   7.348  10.219 -0.7047  0.9716  2.4559
  107OSM    H6G10990   2.460   7.466  10.154  1.1284 -0.0810 -0.5021
  107OSM    C7F10991   2.496   7.283  10.037  0.4006  0.1241  0.0699
  107OSM    H7F10992   2.398   7.277   9.984  0.2073 -1.7396  0.5909
  107OSM    H7G10993   2.516   7.175  10.056  3.5263  0.1020 -2.9892
  107OSM    C8F10994   2.600   7.351   9.945 -0.3567  0.1014 -0.4798
  107OSM    H8F10995   2.696   7.351  10.001 -0.0661 -0.0653 -0.9751
  107OSM    H8G10996   2.563   7.455   9.929  0.5414  0.3380 -1.0166
  107OSM    C9F10997   2.598   7.274   9.819 -0.0836 -0.2506  0.4476
  107OSM    H9F10998   2.672   7.192   9.815 -0.7261 -0.8237  0.3173
  107OSM   C10F10999   2.514   7.299   9.711 -0.6644 -0.1040 -1.0613
  107OSM   H10F11000   2.524   7.238   9.620  0.7208 -2.6529  0.7585
  107OSM   C11F11001   2.408   7.401   9.698  0.4670 -0.3618 -0.5286
  107OSM   H11F11002   2.445   7.488   9.756  1.3817 -0.9298 -0.2504
  107OSM   H11G11003   2.314   7.373   9.750  1.6542 -2.1554  0.7071
  107OSM   C12F11004   2.377   7.455   9.552  0.6133 -0.9954  0.0585
  107OSM   H12F11005   2.312   7.545   9.556  2.3240  0.2021  3.0267
  107OSM   H12G11006   2.312   7.378   9.505 -1.7887 -0.4926  2.3855
  107OSM   C13F11007   2.500   7.485   9.469  0.0084 -0.5876 -0.1386
  107OSM   H13F11008   2.549   7.388   9.443 -1.1595 -0.7837 -1.7293
  107OSM   H13G11009   2.581   7.536   9.525  0.5111 -1.2907 -0.2181
  107OSM   C14F11010   2.483   7.557   9.335 -0.3365  0.5908 -0.7620
  107OSM   H14F11011   2.424   7.494   9.266  2.7974 -2.1710 -1.0237
  107OSM   H14G11012   2.579   7.564   9.280 -0.0514  0.8138 -0.2437
  107OSM   C15F11013   2.418   7.695   9.343  0.3252 -0.0480  0.2115
  107OSM   H15F11014   2.477   7.752   9.418 -1.3305  0.4188  1.1661
  107OSM   H15G11015   2.316   7.685   9.384 -0.1264  0.6082 -0.7194
  107OSM   C16F11016   2.405   7.771   9.212  0.3360 -0.1353 -0.1847
  107OSM   H16F11017   2.493   7.832   9.185 -0.8117  0.8429 -1.8006
  107OSM   H16G11018   2.327   7.847   9.236  1.8486  1.4794 -0.2874
  107OSM   C17F11019   2.385   7.681   9.089 -0.2964  0.0235  0.0863
  107OSM   H17F11020   2.312   7.600   9.111 -0.5338  0.0652 -0.5455
  107OSM   H17G11021   2.482   7.630   9.072  0.5702  1.7758 -0.3142
  107OSM   C18F11022   2.345   7.750   8.959 -0.0075  0.0448 -0.1816
  107OSM   H18F11023   2.424   7.815   8.916 -0.3993  0.2730 -0.5554
  107OSM   H18G11024   2.254   7.811   8.979  0.9668  2.2793 -2.2925
  107OSM   H18H11025   2.319   7.664   8.894  0.1388 -0.6332  0.6515
  108OSM      N11026   5.398   2.267  10.606  0.4689 -0.2713  0.2046
  108OSM    C1511027   5.444   2.229  10.474  0.1482  0.1688 -0.2727
  108OSM   H15A11028   5.363   2.213  10.405 -0.7248  2.0979  0.2673
  108OSM   H15B11029   5.502   2.137  10.472 -0.4414 -0.2073 -0.1486
  108OSM   H15C11030   5.500   2.313  10.437  0.1604 -0.0416 -0.7310
  108OSM    C1411031   5.515   2.295  10.693  0.2506  0.7015  0.6132
  108OSM   H14A11032   5.501   2.275  10.798 -2.0366 -1.1152  0.0143
  108OSM   H14B11033   5.549   2.396  10.676 -1.2233  1.6505  3.1175
  108OSM   H14C11034   5.598   2.230  10.668 -0.1298 -0.2282  1.7139
  108OSM    C1311035   5.335   2.404  10.595 -0.0327  0.0862 -0.0483
  108OSM   H13A11036   5.237   2.404  10.547  0.0644  0.7869 -0.2573
  108OSM   H13B11037   5.405   2.466  10.541  0.3111 -1.0215 -0.8742
  108OSM   H13C11038   5.332   2.450  10.692  0.8008 -1.2077  0.5981
  108OSM    C1211039   5.299   2.164  10.667 -0.0283  0.0278  0.4617
  108OSM   H12A11040   5.255   2.218  10.750  0.0964  2.5948 -1.0962
  108OSM   H12B11041   5.356   2.085  10.712  1.7268  1.6480  1.1334
  108OSM    C1111042   5.171   2.116  10.588  0.2801 -0.4925 -0.2219
  108OSM   H11A11043   5.118   2.025  10.622  1.6385 -1.2733 -0.1532
  108OSM   H11B11044   5.227   2.096  10.494  0.5905 -2.3945  0.3510
  108OSM      P11045   4.960   2.260  10.646 -0.2255 -0.0386  0.1449
  108OSM    O1311046   5.006   2.271  10.783 -0.1534  0.1821  0.6200
  108OSM    O1411047   4.892   2.378  10.593  0.5857 -0.1618  0.0217
  108OSM    O1111048   4.862   2.139  10.643 -0.3371 -0.0412  0.4568
  108OSM    O1211049   5.077   2.230  10.556  0.1139 -0.0707  0.2029
  108OSM    C1S11050   4.771   2.116  10.531 -0.0794 -0.7068 -0.6935
  108OSM    H1S11051   4.733   2.208  10.480  0.4457  0.0865  0.3369
  108OSM    H1T11052   4.679   2.068  10.572 -1.9379  1.7851 -1.7775
  108OSM     NF11053   4.778   2.026  10.291 -0.0149  0.4114 -0.6214
  108OSM    HNF11054   4.709   1.962  10.258 -0.2785 -0.6170  1.8026
  108OSM    C2S11055   4.834   2.015  10.426  0.3735 -0.1098  0.6830
  108OSM    H2S11056   4.944   2.029  10.415  0.6259 -1.2268  1.5643
  108OSM    C3S11057   4.829   1.872  10.487 -0.3354 -0.1653 -0.2560
  108OSM    H3S11058   4.721   1.867  10.515 -0.5638 -0.4826 -1.1743
  108OSM     O311059   4.904   1.865  10.613 -0.4087  0.4834  0.5199
  108OSM    HO311060   4.891   1.950  10.656 -1.3626  0.9401 -0.6399
  108OSM    C4S11061   4.878   1.769  10.385 -0.2078 -0.3799  0.6740
  108OSM    H4S11062   4.977   1.780  10.340  0.2170  1.9637  2.0960
  108OSM    C5S11063   4.792   1.681  10.327 -0.3116 -0.2850 -0.6018
  108OSM    H5S11064   4.700   1.653  10.379  1.0575 -0.5680  1.7536
  108OSM    C6S11065   4.830   1.583  10.222  0.0563 -0.0281  0.1498
  108OSM    H6S11066   4.787   1.484  10.250  1.4053 -0.7889 -0.4410
  108OSM    H6T11067   4.940   1.578  10.215  0.1943  2.6684  0.0853
  108OSM    C7S11068   4.789   1.615  10.082  0.2955 -0.0072  0.4153
  108OSM    H7S11069   4.680   1.635  10.077 -0.0863 -2.2745 -0.9772
  108OSM    H7T11070   4.802   1.524  10.021 -0.0077  0.1195  0.1646
  108OSM    C8S11071   4.867   1.729  10.018 -0.2964  0.2558 -0.9121
  108OSM    H8S11072   4.976   1.704  10.021 -0.9284 -2.6069 -0.7666
  108OSM    H8T11073   4.843   1.825  10.068  0.6006 -0.1614  0.3604
  108OSM    C9S11074   4.825   1.747   9.879 -0.7722  0.4227  0.1423
  108OSM    H9S11075   4.828   1.854   9.850 -1.4645  0.3484 -0.2242
  108OSM    H9T11076   4.721   1.717   9.854  0.0837 -3.0126  0.5443
  108OSM   C10S11077   4.898   1.670   9.771  0.1121  0.3177  0.3839
  108OSM   H10S11078   4.906   1.562   9.795 -0.8273 -0.1556 -1.3075
  108OSM   H10T11079   5.004   1.699   9.755  0.8019 -2.5150 -0.3684
  108OSM   C11S11080   4.835   1.690   9.625 -0.2546 -0.3537  0.0248
  108OSM   H11S11081   4.854   1.797   9.598 -1.3634  0.3175  1.8115
  108OSM   H11T11082   4.725   1.680   9.631 -0.6144  3.3038  1.0831
  108OSM   C12S11083   4.903   1.595   9.516  0.0909  0.4068 -0.4272
  108OSM   H12S11084   4.865   1.493   9.537  2.5195 -0.7359 -1.3752
  108OSM   H12T11085   5.012   1.595   9.535 -0.4882 -0.0100  3.2187
  108OSM   C13S11086   4.865   1.641   9.374  0.5543  0.3990 -0.1359
  108OSM   H13S11087   4.900   1.744   9.352  0.3014  0.8437  1.4328
  108OSM   H13T11088   4.757   1.665   9.370  0.3453 -0.7431 -1.8233
  108OSM   C14S11089   4.900   1.530   9.267 -0.8197  0.0523  0.6439
  108OSM   H14S11090   4.864   1.431   9.303 -0.7065 -0.6044 -0.9831
  108OSM   H14T11091   5.009   1.534   9.249 -0.9094 -0.2687  0.0206
  108OSM   C15S11092   4.856   1.562   9.123  0.5485  0.0002 -0.7022
  108OSM   H15S11093   4.747   1.548   9.107  0.3027  2.2000 -1.0868
  108OSM   H15T11094   4.894   1.490   9.047 -0.6389 -1.2062 -0.1759
  108OSM   C16S11095   4.881   1.708   9.088 -0.1862  0.5824 -0.0878
  108OSM   H16S11096   4.990   1.728   9.095 -0.3161  0.7036  1.9595
  108OSM   H16T11097   4.814   1.764   9.157 -0.7012  2.5229 -2.0767
  108OSM   C17S11098   4.837   1.747   8.948 -1.1405  0.3110 -0.5216
  108OSM   H17S11099   4.748   1.683   8.929 -1.6788  0.6494  0.8696
  108OSM   H17T11100   4.910   1.720   8.868 -1.7925 -0.4225 -0.8784
  108OSM   C18S11101   4.800   1.889   8.928  0.1137  0.9926  0.4407
  108OSM   H18S11102   4.758   1.922   9.025  0.2334 -1.6231  1.4303
  108OSM   H18T11103   4.740   1.919   8.840 -2.2885 -0.3005  1.6134
  108OSM   H18U11104   4.897   1.942   8.918 -0.6602  2.6546  1.6744
  108OSM    C1F11105   4.811   2.133  10.225 -0.0650  0.8943  0.5267
  108OSM     OF11106   4.892   2.214  10.264 -0.4125 -0.0459 -0.3206
  108OSM    C2F11107   4.736   2.149  10.091  0.5572 -0.0982  0.0883
  108OSM    H2F11108   4.630   2.177  10.112  0.7436  1.2909 -0.8228
  108OSM    H2G11109   4.724   2.045  10.054  1.2023 -0.2337  0.2486
  108OSM    C3F11110   4.801   2.244   9.998 -0.0495  0.1206  0.6549
  108OSM    H3F11111   4.911   2.250  10.006  0.0907 -1.9796  0.5795
  108OSM    H3G11112   4.773   2.352  10.004  4.4635  1.5482 -1.6967
  108OSM    C4F11113   4.755   2.202   9.859  0.5530 -0.0188 -0.2410
  108OSM    H4F11114   4.649   2.215   9.830  1.3199  0.7402 -2.9057
  108OSM    H4G11115   4.791   2.098   9.850  4.8441  1.3062  0.3867
  108OSM    C5F11116   4.839   2.274   9.755  1.1969 -0.4438 -0.5714
  108OSM    H5F11117   4.946   2.244   9.767  1.7104  2.0384  1.6544
  108OSM    H5G11118   4.840   2.383   9.779 -0.9486 -0.7703  1.0847
  108OSM    C6F11119   4.780   2.256   9.622 -0.0784  0.5195  0.2138
  108OSM    H6F11120   4.836   2.320   9.550 -0.3675  1.6396  0.9732
  108OSM    H6G11121   4.680   2.303   9.619 -0.4022 -0.2172 -0.8073
  108OSM    C7F11122   4.772   2.111   9.567  0.9506 -0.1156  0.1382
  108OSM    H7F11123   4.691   2.053   9.614  1.2092 -0.2714  0.3915
  108OSM    H7G11124   4.863   2.053   9.593  1.6845  0.7844 -0.3778
  108OSM    C8F11125   4.734   2.105   9.416  0.9088  0.2213 -0.4009
  108OSM    H8F11126   4.650   2.175   9.397  0.1824 -0.6723 -0.5005
  108OSM    H8G11127   4.681   2.010   9.394  0.9068  0.3332 -0.8845
  108OSM    C9F11128   4.846   2.120   9.322  0.6014  0.3693  0.6369
  108OSM    H9F11129   4.931   2.057   9.351  0.4147 -0.8628 -1.4666
  108OSM   C10F11130   4.848   2.206   9.220  0.1397  0.2120  0.4833
  108OSM   H10F11131   4.940   2.201   9.161  0.5057  0.5142  1.0291
  108OSM   C11F11132   4.738   2.297   9.165 -0.2872 -0.2636 -0.2445
  108OSM   H11F11133   4.745   2.405   9.192  1.8988 -0.9174  2.0470
  108OSM   H11G11134   4.645   2.266   9.217  0.2032 -0.2449  0.6618
  108OSM   C12F11135   4.718   2.285   9.016  0.0062 -0.1573 -0.1647
  108OSM   H12F11136   4.610   2.296   8.994 -0.4023 -0.9292  1.3887
  108OSM   H12G11137   4.738   2.182   8.981  0.5804 -0.0539 -0.1567
  108OSM   C13F11138   4.809   2.392   8.948  0.6057 -0.0282  0.1143
  108OSM   H13F11139   4.914   2.393   8.982  0.4673 -0.0917  0.5417
  108OSM   H13G11140   4.773   2.486   8.995 -0.9790 -0.4429 -0.2212
  108OSM   C14F11141   4.798   2.386   8.796 -0.4710 -0.0526 -0.0442
  108OSM   H14F11142   4.840   2.479   8.753 -1.6805  1.1239  1.2477
  108OSM   H14G11143   4.693   2.389   8.758 -0.3188  0.8294 -0.3911
  108OSM   C15F11144   4.872   2.264   8.743  0.1247  0.6161  0.4108
  108OSM   H15F11145   4.816   2.173   8.776 -1.1402  1.5338  0.8278
  108OSM   H15G11146   4.967   2.251   8.799  0.4242 -0.7298 -0.3786
  108OSM   C16F11147   4.897   2.257   8.592  0.0374  0.1882 -0.3293
  108OSM   H16F11148   4.959   2.166   8.579 -1.6199 -1.1084  0.8062
  108OSM   H16G11149   4.939   2.351   8.548  1.2172  1.1201  2.6545
  108OSM   C17F11150   4.766   2.232   8.516  0.8865  0.6956  0.3338
  108OSM   H17F11151   4.703   2.314   8.556 -0.7530 -0.5467  0.3458
  108OSM   H17G11152   4.730   2.138   8.564  0.9691  1.1997  1.3937
  108OSM   C18F11153   4.768   2.218   8.366  0.5410 -0.2677  0.1095
  108OSM   H18F11154   4.783   2.317   8.318 -3.6125  1.0573  1.3343
  108OSM   H18G11155   4.667   2.180   8.337  0.1539 -0.5162  1.7281
  108OSM   H18H11156   4.839   2.142   8.328 -1.1913 -1.1348 -1.4940
  109OSM      N11157   4.442   0.091  11.241 -0.0722  0.0019  0.2910
  109OSM    C1511158   4.421   0.225  11.188 -0.0985  0.0740 -0.0713
  109OSM   H15A11159   4.347   0.228  11.109  1.5201  2.3058 -1.5982
  109OSM   H15B11160   4.509   0.269  11.141 -1.7566  0.8003 -2.6255
  109OSM   H15C11161   4.381   0.294  11.260 -0.0891 -0.0376  0.0386
  109OSM    C1411162   4.534   0.097  11.361  0.4724 -1.1294 -0.2560
  109OSM   H14A11163   4.478   0.115  11.451  2.0844 -0.6334  0.6757
  109OSM   H14B11164   4.604   0.177  11.341 -0.0469 -1.1969 -2.5653
  109OSM   H14C11165   4.577   0.001  11.385 -0.2384 -1.6094 -0.8841
  109OSM    C1311166   4.319   0.028  11.287  0.0670 -0.7431 -0.0272
  109OSM   H13A11167   4.250   0.018  11.205  2.0016 -0.5203 -1.7285
  109OSM   H13B11168   4.267   0.071  11.371  1.5272 -1.7202  1.4229
  109OSM   H13C11169   4.334  -0.075  11.319  0.9963 -0.0516  1.8686
  109OSM    C1211170   4.513   0.001  11.139 -0.6558 -0.1022 -0.8788
  109OSM   H12A11171   4.522  -0.099  11.177  1.5259  0.1857 -0.5727
  109OSM   H12B11172   4.615   0.037  11.133  0.1145 -1.7886  1.5057
  109OSM    C1111173   4.453  -0.011  11.002 -0.1619 -0.2655  1.1545
  109OSM   H11A11174   4.510  -0.085  10.941 -0.8770  0.1019  0.0171
  109OSM   H11B11175   4.468   0.087  10.951  0.3831 -0.7156  0.4376
  109OSM      P11176   4.284  -0.202  11.021 -0.0166 -0.8209  0.1704
  109OSM    O1311177   4.402  -0.269  11.075 -0.5673 -0.6355  0.2560
  109OSM    O1411178   4.157  -0.212  11.093  0.0465 -0.0542 -0.3607
  109OSM    O1111179   4.265  -0.247  10.870  0.2825  0.3416  0.1104
  109OSM    O1211180   4.312  -0.048  11.004  0.4070 -0.2330 -0.1239
  109OSM    C1S11181   4.180  -0.170  10.786 -0.3916  0.0641 -0.5804
  109OSM    H1S11182   4.189  -0.061  10.805 -0.9368  0.1606 -0.8608
  109OSM    H1T11183   4.076  -0.201  10.811  0.3367 -0.0791  2.5133
  109OSM     NF11184   4.144  -0.080  10.565 -0.0772  0.2679  0.5231
  109OSM    HNF11185   4.063  -0.106  10.513 -0.3737  0.4498  0.8938
  109OSM    C2S11186   4.207  -0.185  10.634  0.6529 -0.5350 -0.7924
  109OSM    H2S11187   4.317  -0.188  10.621  0.6092  0.2095 -1.3781
  109OSM    C3S11188   4.156  -0.320  10.581 -0.7010  0.6979  0.1261
  109OSM    H3S11189   4.045  -0.323  10.589 -0.8043  1.0404 -1.1016
  109OSM     O311190   4.218  -0.432  10.651 -0.5081  0.5663  0.1740
  109OSM    HO311191   4.263  -0.396  10.728 -0.3908  0.7120  0.0393
  109OSM    C4S11192   4.195  -0.353  10.435 -0.3125  0.4383  0.2428
  109OSM    H4S11193   4.302  -0.341  10.418 -0.0583 -1.6244  0.2401
  109OSM    C5S11194   4.098  -0.362  10.346 -0.7037  0.3570  0.1342
  109OSM    H5S11195   3.991  -0.345  10.367 -0.4343  3.1562 -0.5123
  109OSM    C6S11196   4.120  -0.367  10.198 -0.2371 -0.1122  0.0344
  109OSM    H6S11197   4.065  -0.279  10.158 -0.9318  0.1003  1.4563
  109OSM    H6T11198   4.076  -0.460  10.156  1.5256 -0.8879 -0.1343
  109OSM    C7S11199   4.265  -0.343  10.151  0.3144 -0.4605  0.0683
  109OSM    H7S11200   4.334  -0.428  10.168  0.1548 -0.6492 -0.2354
  109OSM    H7T11201   4.309  -0.263  10.215 -1.4924  0.3734  0.3051
  109OSM    C8S11202   4.269  -0.307  10.004 -0.5388 -0.3880  0.7420
  109OSM    H8S11203   4.376  -0.292   9.980 -0.8155  0.2689 -0.0966
  109OSM    H8T11204   4.211  -0.215   9.982 -0.4756 -0.0522  1.9391
  109OSM    C9S11205   4.210  -0.416   9.909  0.3345  0.8219  1.2217
  109OSM    H9S11206   4.100  -0.432   9.917  0.2532 -0.4444 -1.9346
  109OSM    H9T11207   4.257  -0.516   9.914  0.6769  0.8443 -1.2757
  109OSM   C10S11208   4.230  -0.384   9.763 -0.5424 -0.0978  0.2307
  109OSM   H10S11209   4.336  -0.361   9.741 -0.7621  0.6580 -0.0542
  109OSM   H10T11210   4.172  -0.293   9.736  0.4829  0.5033  0.0278
  109OSM   C11S11211   4.178  -0.499   9.679  0.1305  0.1734 -0.2159
  109OSM   H11S11212   4.083  -0.548   9.708 -1.3506  2.6899 -0.6365
  109OSM   H11T11213   4.265  -0.569   9.682 -0.7784 -0.9387  0.6236
  109OSM   C12S11214   4.163  -0.450   9.531  0.4092  0.0570 -0.3570
  109OSM   H12S11215   4.252  -0.390   9.502  0.4385 -0.7776 -2.0284
  109OSM   H12T11216   4.062  -0.406   9.526  0.0923 -0.8720 -2.7126
  109OSM   C13S11217   4.160  -0.577   9.439  0.3162 -0.5660  0.4793
  109OSM   H13S11218   4.071  -0.636   9.471 -1.2178  0.4868 -1.7631
  109OSM   H13T11219   4.254  -0.636   9.449  0.1693 -0.8053  0.4587
  109OSM   C14S11220   4.148  -0.543   9.288  0.3200 -0.1142  0.8641
  109OSM   H14S11221   4.236  -0.486   9.253 -0.5251  0.9675  0.4691
  109OSM   H14T11222   4.055  -0.484   9.273 -0.1548 -0.9295  0.5343
  109OSM   C15S11223   4.122  -0.674   9.207 -0.0505  0.9141  1.2507
  109OSM   H15S11224   4.036  -0.726   9.255  0.2044 -1.0602 -0.3489
  109OSM   H15T11225   4.205  -0.746   9.222 -1.2107 -0.3733  1.6220
  109OSM   C16S11226   4.096  -0.662   9.057 -0.7077 -0.4092 -0.3662
  109OSM   H16S11227   4.003  -0.603   9.039  1.2080  2.1663 -2.0672
  109OSM   H16T11228   4.076  -0.760   9.010 -0.8597 -1.7466  2.4018
  109OSM   C17S11229   4.211  -0.593   8.984 -0.5048  0.1633  0.1674
  109OSM   H17S11230   4.211  -0.486   9.016 -0.4709 -0.9412  4.2064
  109OSM   H17T11231   4.192  -0.588   8.875  2.9773 -0.9127 -0.5444
  109OSM   C18S11232   4.346  -0.651   9.015 -0.3948 -0.3458 -0.3189
  109OSM   H18S11233   4.345  -0.759   8.989 -2.5589 -0.8757  1.8790
  109OSM   H18T11234   4.375  -0.654   9.122 -1.0566  0.6002 -0.1081
  109OSM   H18U11235   4.420  -0.596   8.953 -1.8213 -0.1966 -1.9281
  109OSM    C1F11236   4.193   0.048  10.565  0.0106 -0.3862 -0.6043
  109OSM     OF11237   4.291   0.076  10.632 -0.2520  0.3648  0.1254
  109OSM    C2F11238   4.130   0.146  10.469  0.1883 -0.2007  0.3358
  109OSM    H2F11239   4.114   0.238  10.529 -1.5465  0.7144 -1.4487
  109OSM    H2G11240   4.034   0.102  10.434  1.2755 -0.9707 -1.7280
  109OSM    C3F11241   4.231   0.177  10.353 -0.2551  0.1810  0.5442
  109OSM    H3F11242   4.320   0.235  10.385  2.1188 -0.7191 -4.0110
  109OSM    H3G11243   4.177   0.245  10.284  0.8237  0.8796  0.3725
  109OSM    C4F11244   4.284   0.060  10.260  1.0953  0.1093  0.0644
  109OSM    H4F11245   4.217   0.027  10.179  0.1255  0.7885  0.5804
  109OSM    H4G11246   4.290  -0.023  10.334  1.8274 -1.6062 -1.8979
  109OSM    C5F11247   4.419   0.087  10.195 -0.2744  0.2376  0.9062
  109OSM    H5F11248   4.439   0.002  10.126 -2.0853 -1.1263  2.0224
  109OSM    H5G11249   4.502   0.073  10.267  1.9048  2.4388 -1.0800
  109OSM    C6F11250   4.435   0.231  10.127 -0.2625 -0.2882 -0.2227
  109OSM    H6F11251   4.539   0.237  10.088  0.3525 -0.7720  1.2991
  109OSM    H6G11252   4.421   0.304  10.210 -0.8758 -1.2213  0.5170
  109OSM    C7F11253   4.335   0.268  10.023  0.1629 -0.0890  0.3913
  109OSM    H7F11254   4.350   0.373   9.991 -1.2590  0.8302  2.6233
  109OSM    H7G11255   4.232   0.258  10.064 -0.0269  0.1648 -0.0200
  109OSM    C8F11256   4.351   0.183   9.892 -0.5910 -0.3888  0.8105
  109OSM    H8F11257   4.360   0.078   9.925  0.7306 -1.5076 -2.8454
  109OSM    H8G11258   4.441   0.222   9.839 -2.5098  0.7798 -1.7092
  109OSM    C9F11259   4.230   0.203   9.804  0.8470  1.4221  0.3820
  109OSM    H9F11260   4.148   0.138   9.837  0.6311  0.3803 -2.1368
  109OSM   C10F11261   4.217   0.267   9.688  0.5326  0.4289 -0.7170
  109OSM   H10F11262   4.114   0.278   9.649  0.7446 -0.1011 -1.4554
  109OSM   C11F11263   4.331   0.334   9.605  0.1341  0.2981  0.4674
  109OSM   H11F11264   4.402   0.255   9.572 -0.3885  0.1052 -0.2155
  109OSM   H11G11265   4.389   0.403   9.670  1.0231  0.1842 -0.1840
  109OSM   C12F11266   4.284   0.404   9.469 -0.0030  0.6241  0.0440
  109OSM   H12F11267   4.382   0.447   9.437  0.6433 -1.3520 -0.7200
  109OSM   H12G11268   4.210   0.482   9.498  0.5401  1.1576  0.0167
  109OSM   C13F11269   4.240   0.303   9.359 -0.4213 -0.5018  0.2296
  109OSM   H13F11270   4.143   0.257   9.390 -0.4068 -1.0548 -0.5264
  109OSM   H13G11271   4.315   0.221   9.353  0.8905  0.6004  1.2588
  109OSM   C14F11272   4.225   0.365   9.219  0.1241  0.0373  0.5124
  109OSM   H14F11273   4.320   0.411   9.185 -0.5924  0.1618 -1.3680
  109OSM   H14G11274   4.140   0.436   9.212  0.3495  0.2851  0.3113
  109OSM   C15F11275   4.192   0.251   9.117  0.2273  0.1229  0.4271
  109OSM   H15F11276   4.121   0.174   9.154  3.3101 -2.7022  0.6900
  109OSM   H15G11277   4.286   0.194   9.105 -0.4642 -0.6839 -1.4081
  109OSM   C16F11278   4.142   0.301   8.977  0.1421  0.1881  0.1913
  109OSM   H16F11279   4.052   0.363   8.995 -0.0266 -0.3005  1.0573
  109OSM   H16G11280   4.121   0.214   8.912  1.1591 -0.8229  1.1849
  109OSM   C17F11281   4.237   0.396   8.897 -0.4435  0.3321 -0.8698
  109OSM   H17F11282   4.319   0.339   8.848  1.6697  2.3636  0.2067
  109OSM   H17G11283   4.267   0.468   8.976  0.1303 -1.0281  0.1638
  109OSM   C18F11284   4.158   0.465   8.789 -0.1525  0.0341  0.1057
  109OSM   H18F11285   4.080   0.527   8.839 -1.3413  0.0808 -1.7719
  109OSM   H18G11286   4.107   0.396   8.718  1.8433 -1.0095 -0.3353
  109OSM   H18H11287   4.226   0.536   8.737 -0.9158  1.6724  1.2739
  110OSM      N11288   5.079   5.147  10.774  0.4845 -0.5120 -0.3274
  110OSM    C1511289   5.117   5.056  10.659  0.6038 -0.3980  0.2672
  110OSM   H15A11290   5.206   5.082  10.605 -0.3057  0.6519 -0.7560
  110OSM   H15B11291   5.038   5.056  10.585 -0.9835 -3.2809  1.8190
  110OSM   H15C11292   5.124   4.951  10.685  0.5764  0.0406  2.1259
  110OSM    C1411293   5.061   5.290  10.721 -0.1207  0.2613  0.1306
  110OSM   H14A11294   5.150   5.328  10.673 -1.8273  2.9737 -0.9427
  110OSM   H14B11295   5.057   5.360  10.803 -0.3202 -0.5662  0.8435
  110OSM   H14C11296   4.968   5.298  10.666 -1.1977 -0.1101  1.8635
  110OSM    C1311297   4.951   5.103  10.834 -0.4349  0.2584  0.8193
  110OSM   H13A11298   4.933   5.178  10.909  1.1615  0.8509  0.6338
  110OSM   H13B11299   4.944   5.000  10.867  0.2998 -0.6853 -1.8113
  110OSM   H13C11300   4.871   5.120  10.764  1.0970  1.7517 -0.6052
  110OSM    C1211301   5.191   5.137  10.874 -0.1634 -0.1137 -0.1228
  110OSM   H12A11302   5.279   5.155  10.816 -0.3566  2.6655  0.3874
  110OSM   H12B11303   5.191   5.035  10.909 -1.7988  1.2141  4.0725
  110OSM    C1111304   5.191   5.232  10.998  0.1846  0.2177 -0.3878
  110OSM   H11A11305   5.270   5.195  11.067 -0.5876 -0.2525  0.2527
  110OSM   H11B11306   5.093   5.231  11.051  0.6152 -0.4381  0.4087
  110OSM      P11307   5.316   5.471  11.023 -0.2360  0.1693  0.2245
  110OSM    O1311308   5.288   5.611  10.975  0.7804 -0.1777 -0.5080
  110OSM    O1411309   5.338   5.461  11.169 -0.8974 -0.0206 -0.0429
  110OSM    O1111310   5.447   5.411  10.960  0.2190 -0.3723 -0.2384
  110OSM    O1211311   5.209   5.366  10.956  0.4029  0.1876 -0.1434
  110OSM    C1S11312   5.466   5.368  10.827 -0.2693  0.2281  0.2787
  110OSM    H1S11313   5.385   5.309  10.779 -0.0081 -0.1742  0.3298
  110OSM    H1T11314   5.538   5.285  10.835  1.4539  1.8327  2.0433
  110OSM     NF11315   5.502   5.423  10.594 -0.3855 -0.1843 -0.5418
  110OSM    HNF11316   5.583   5.378  10.558 -0.8482 -0.5901 -1.0935
  110OSM    C2S11317   5.517   5.474  10.724  0.2889  0.2340  0.3332
  110OSM    H2S11318   5.457   5.565  10.746 -1.5147 -0.8637  0.0344
  110OSM    C3S11319   5.666   5.507  10.752 -0.0782 -0.1549  0.2607
  110OSM    H3S11320   5.736   5.425  10.724 -1.3298 -0.6378 -1.5701
  110OSM     O311321   5.698   5.536  10.885 -0.5384 -0.7628 -0.6385
  110OSM    HO311322   5.620   5.500  10.927 -1.4848  1.3801 -0.5157
  110OSM    C4S11323   5.700   5.628  10.671 -0.8543  0.2669 -0.0058
  110OSM    H4S11324   5.624   5.708  10.670 -2.5956 -1.3818 -0.4957
  110OSM    C5S11325   5.816   5.648  10.609  0.3414 -0.8440  0.9353
  110OSM    H5S11326   5.895   5.571  10.607  0.3654 -0.7971 -0.1213
  110OSM    C6S11327   5.853   5.758  10.512 -0.1160 -0.6587 -0.0853
  110OSM    H6S11328   5.960   5.773  10.538 -0.2543  1.3214 -0.6024
  110OSM    H6T11329   5.799   5.852  10.538  0.6004 -0.8023  2.0476
  110OSM    C7S11330   5.810   5.731  10.364  0.3123 -0.3009  0.1150
  110OSM    H7S11331   5.700   5.740  10.349  0.5730  0.0690 -1.5676
  110OSM    H7T11332   5.848   5.633  10.330 -0.2615  0.1340 -1.8399
  110OSM    C8S11333   5.863   5.847  10.279 -0.6005  0.1804 -0.3239
  110OSM    H8S11334   5.857   5.826  10.170 -0.2949 -0.1847 -0.2680
  110OSM    H8T11335   5.966   5.868  10.314 -1.0794  1.8390  0.1554
  110OSM    C9S11336   5.789   5.981  10.308 -0.2039  0.2763 -0.1625
  110OSM    H9S11337   5.816   6.019  10.409  0.5752 -0.2712 -0.1569
  110OSM    H9T11338   5.680   5.963  10.316 -0.0915 -1.8284 -2.6336
  110OSM   C10S11339   5.797   6.098  10.212 -0.2836 -0.3944 -0.4310
  110OSM   H10S11340   5.707   6.162  10.220 -0.0241  0.0097 -0.7400
  110OSM   H10T11341   5.797   6.067  10.106 -1.8125  0.5640 -0.7230
  110OSM   C11S11342   5.920   6.181  10.242  0.0281 -0.0350  0.8509
  110OSM   H11S11343   6.003   6.112  10.216 -2.3745 -2.1390 -1.5373
  110OSM   H11T11344   5.928   6.219  10.346 -0.2124  1.7416  0.2309
  110OSM   C12S11345   5.931   6.311  10.157 -0.7717 -0.5167 -0.2269
  110OSM   H12S11346   6.035   6.346  10.166 -0.9887  0.5042 -1.5000
  110OSM   H12T11347   5.876   6.400  10.193 -0.6310 -0.5901  0.1690
  110OSM   C13S11348   5.916   6.288  10.005  0.2145 -0.0169  0.1307
  110OSM   H13S11349   5.815   6.246   9.986  0.5300 -1.3697  1.3319
  110OSM   H13T11350   5.981   6.200   9.981  1.9320  0.7837  1.7342
  110OSM   C14S11351   5.949   6.401   9.909  0.0453  1.0129 -0.0183
  110OSM   H14S11352   6.046   6.437   9.947  1.1232 -2.5278  0.8083
  110OSM   H14T11353   5.884   6.490   9.900 -1.5382  0.0297  1.4159
  110OSM   C15S11354   5.968   6.339   9.767  0.3149 -0.3133  0.0667
  110OSM   H15S11355   5.879   6.282   9.733 -0.6973  1.5332 -0.4415
  110OSM   H15T11356   6.051   6.265   9.774  1.5428  0.8682 -1.5084
  110OSM   C16S11357   6.002   6.449   9.665  0.0388 -0.2261  0.2955
  110OSM   H16S11358   6.068   6.522   9.716 -1.6387  2.2178 -0.9124
  110OSM   H16T11359   5.908   6.506   9.650 -0.5800 -0.7884  1.9442
  110OSM   C17S11360   6.053   6.382   9.532 -0.9419 -0.5967  0.2518
  110OSM   H17S11361   6.153   6.348   9.568 -0.8207 -1.2014 -0.6519
  110OSM   H17T11362   6.075   6.467   9.464 -0.8548 -0.0665  0.9241
  110OSM   C18S11363   5.974   6.280   9.456 -0.5844 -0.2364  0.2720
  110OSM   H18S11364   5.971   6.184   9.513  0.8766 -0.8614 -0.6660
  110OSM   H18T11365   6.007   6.268   9.350 -1.3672 -2.4835  0.2454
  110OSM   H18U11366   5.866   6.306   9.453 -0.5514 -0.2232 -1.7836
  110OSM    C1F11367   5.386   5.418  10.541 -0.7732  0.6810 -0.1277
  110OSM     OF11368   5.282   5.445  10.604  0.5475 -0.7846 -0.6598
  110OSM    C2F11369   5.373   5.368  10.398 -0.9915 -0.2135  0.3845
  110OSM    H2F11370   5.286   5.420  10.353 -1.6659 -0.1587  1.7345
  110OSM    H2G11371   5.353   5.259  10.397 -0.4414 -0.3188 -1.1176
  110OSM    C3F11372   5.493   5.389  10.291 -0.3374  0.2992 -0.4220
  110OSM    H3F11373   5.578   5.325  10.324  0.2317  1.4436  0.3643
  110OSM    H3G11374   5.527   5.493  10.309  2.2096 -0.0511 -2.9097
  110OSM    C4F11375   5.443   5.385  10.149 -0.2540  0.2133 -0.0025
  110OSM    H4F11376   5.353   5.449  10.140 -0.2438  0.2553  0.1764
  110OSM    H4G11377   5.407   5.282  10.132  2.4751 -0.5749 -1.2870
  110OSM    C5F11378   5.541   5.426  10.034 -0.5500  0.1491  0.1098
  110OSM    H5F11379   5.621   5.350  10.018 -0.8372  0.2704 -2.0862
  110OSM    H5G11380   5.587   5.523  10.060 -2.6202  1.4707 -1.0221
  110OSM    C6F11381   5.479   5.448   9.896 -0.2219 -0.1530 -0.6360
  110OSM    H6F11382   5.386   5.504   9.921  0.8510  0.7307  1.5092
  110OSM    H6G11383   5.442   5.352   9.854  0.2807 -0.1947 -0.9941
  110OSM    C7F11384   5.573   5.514   9.786  0.1061 -0.0472  0.6848
  110OSM    H7F11385   5.648   5.437   9.758 -1.3297 -1.4362  0.5309
  110OSM    H7G11386   5.637   5.594   9.828  2.3330 -1.4069 -0.0363
  110OSM    C8F11387   5.506   5.561   9.656 -0.0904 -0.2888 -0.4825
  110OSM    H8F11388   5.464   5.466   9.617 -2.8068  0.6411  0.0669
  110OSM    H8G11389   5.585   5.597   9.587 -1.1196  0.5140 -1.2516
  110OSM    C9F11390   5.398   5.669   9.679  0.0212 -0.4436 -0.3061
  110OSM    H9F11391   5.386   5.691   9.786  2.7683 -0.8787  0.1368
  110OSM   C10F11392   5.330   5.734   9.584 -0.7193  0.0871  0.3881
  110OSM   H10F11393   5.258   5.811   9.615 -0.9035  0.0865 -0.0391
  110OSM   C11F11394   5.352   5.712   9.435  0.3116 -0.8291  0.2162
  110OSM   H11F11395   5.262   5.711   9.370  0.0233 -1.1785  0.6117
  110OSM   H11G11396   5.413   5.622   9.414  2.1062  0.1394  1.0966
  110OSM   C12F11397   5.448   5.825   9.391 -0.0433 -0.1687 -0.1925
  110OSM   H12F11398   5.538   5.809   9.454 -0.2473 -2.3795 -0.4181
  110OSM   H12G11399   5.408   5.925   9.414  1.8129  0.0616  2.2166
  110OSM   C13F11400   5.504   5.802   9.248 -0.2097  0.1959 -0.3744
  110OSM   H13F11401   5.563   5.709   9.260 -1.3842 -0.6178 -0.8801
  110OSM   H13G11402   5.582   5.876   9.218 -0.4488  0.5184 -0.2039
  110OSM   C14F11403   5.401   5.785   9.132 -0.1939 -0.1721  0.0307
  110OSM   H14F11404   5.330   5.871   9.132  1.3815  1.1417 -0.5290
  110OSM   H14G11405   5.347   5.688   9.145  2.4166 -1.5847  0.7282
  110OSM   C15F11406   5.467   5.757   8.995  0.4346 -0.3087 -0.4032
  110OSM   H15F11407   5.506   5.654   8.982 -1.4677 -1.6052  3.3978
  110OSM   H15G11408   5.563   5.811   8.981 -0.2843  0.9714 -0.4067
  110OSM   C16F11409   5.372   5.808   8.883 -0.3032  0.6114 -0.0867
  110OSM   H16F11410   5.360   5.918   8.890 -1.3870  0.6056 -1.5482
  110OSM   H16G11411   5.275   5.758   8.903 -0.8143  1.6211 -0.0442
  110OSM   C17F11412   5.441   5.783   8.747  0.1830 -0.0578 -0.2455
  110OSM   H17F11413   5.456   5.674   8.730  1.6693 -0.0953  1.1663
  110OSM   H17G11414   5.531   5.848   8.747  1.6853 -2.0708  1.0596
  110OSM   C18F11415   5.356   5.830   8.626  0.0533  0.8089 -0.1597
  110OSM   H18F11416   5.424   5.829   8.537  1.5980 -2.5217  0.9842
  110OSM   H18G11417   5.325   5.934   8.648 -0.5968  0.6019 -0.0940
  110OSM   H18H11418   5.266   5.771   8.599  1.3012 -2.6341  2.7279
  111OSM      N11419   5.883   2.784  10.851 -0.3323 -0.1897 -0.0145
  111OSM    C1511420   6.022   2.790  10.911 -0.1265  0.0096  0.5197
  111OSM   H15A11421   6.074   2.877  10.871 -1.3940  0.6301  0.2106
  111OSM   H15B11422   6.078   2.701  10.884 -1.1795 -0.8241  1.0593
  111OSM   H15C11423   6.017   2.786  11.018 -1.5527 -0.4616  0.4409
  111OSM    C1411424   5.841   2.640  10.832 -0.0179  0.2490  0.2439
  111OSM   H14A11425   5.831   2.593  10.928  0.6370 -0.1541  0.1191
  111OSM   H14B11426   5.921   2.583  10.786 -0.8265 -2.4246  2.0527
  111OSM   H14C11427   5.748   2.628  10.779 -1.0917 -0.6766  2.2823
  111OSM    C1311428   5.793   2.859  10.943 -0.3587 -0.2108 -0.4009
  111OSM   H13A11429   5.795   2.811  11.040 -1.5651  0.3573 -0.0897
  111OSM   H13B11430   5.693   2.872  10.904 -0.3756 -0.1578 -0.3403
  111OSM   H13C11431   5.836   2.958  10.949 -0.2447 -0.4310  3.0080
  111OSM    C1211432   5.887   2.849  10.716 -0.2606  0.7785 -0.1572
  111OSM   H12A11433   5.792   2.828  10.670 -0.1556 -2.8399  1.0826
  111OSM   H12B11434   5.962   2.791  10.664  0.7115  2.1337 -0.2795
  111OSM    C1111435   5.930   2.998  10.701 -0.2594  0.5039  0.1372
  111OSM   H11A11436   5.862   3.053  10.769  1.4469  2.2799  0.4411
  111OSM   H11B11437   5.912   3.031  10.596 -1.2073  0.5957  0.3228
  111OSM      P11438   6.131   3.167  10.709  0.6081  0.2560  0.2969
  111OSM    O1311439   6.076   3.274  10.797  0.6392  0.8834 -0.7376
  111OSM    O1411440   6.275   3.147  10.717  0.3825  0.5765  0.0120
  111OSM    O1111441   6.088   3.198  10.562  0.0843  0.5362 -0.6391
  111OSM    O1211442   6.062   3.027  10.738 -0.1983 -0.0089 -0.3143
  111OSM    C1S11443   5.979   3.294  10.539 -0.6520 -0.1539  0.2485
  111OSM    H1S11444   5.984   3.376  10.613 -3.7723 -1.3000  1.7896
  111OSM    H1T11445   5.877   3.251  10.537 -0.1204 -1.4363  0.0076
  111OSM     NF11446   5.939   3.474  10.363 -0.7703 -1.0695 -0.2275
  111OSM    HNF11447   5.871   3.469  10.290 -2.1975 -1.1254  1.1098
  111OSM    C2S11448   5.997   3.346  10.394 -1.0583 -0.4584 -0.3676
  111OSM    H2S11449   6.107   3.358  10.381 -1.1488  0.0219 -0.7086
  111OSM    C3S11450   5.954   3.224  10.295  0.7820  0.0433  0.4031
  111OSM    H3S11451   5.845   3.207  10.309  1.2142 -1.8204  1.6431
  111OSM     O311452   6.015   3.102  10.329 -0.2486  0.8496 -0.0407
  111OSM    HO311453   6.057   3.125  10.412 -0.5678  1.7067 -0.1145
  111OSM    C4S11454   5.980   3.256  10.155 -0.3983  0.6878  0.7631
  111OSM    H4S11455   6.087   3.247  10.133 -0.9273 -3.1707 -0.5875
  111OSM    C5S11456   5.909   3.280  10.044  0.0893 -0.7888 -0.7450
  111OSM    H5S11457   5.800   3.273  10.054  0.1700 -2.0179 -0.6911
  111OSM    C6S11458   5.963   3.297   9.907  0.3366  0.2710  0.0936
  111OSM    H6S11459   6.062   3.247   9.905  0.1433 -0.3501  2.8872
  111OSM    H6T11460   5.965   3.405   9.882 -0.0680  0.2301 -0.1184
  111OSM    C7S11461   5.877   3.215   9.793  0.2875  0.4279  0.1222
  111OSM    H7S11462   5.880   3.109   9.826 -0.3137  0.9578  1.9322
  111OSM    H7T11463   5.929   3.216   9.695  0.2259 -2.9199 -0.0098
  111OSM    C8S11464   5.731   3.271   9.778  0.2943  0.9432  0.0213
  111OSM    H8S11465   5.694   3.294   9.880  0.5800 -2.1327  0.8894
  111OSM    H8T11466   5.668   3.191   9.731 -0.4789  2.1571 -1.0369
  111OSM    C9S11467   5.731   3.393   9.685 -0.0991 -0.8016  0.3372
  111OSM    H9S11468   5.810   3.464   9.717 -1.6545  1.2318 -0.2493
  111OSM    H9T11469   5.639   3.453   9.703 -0.2739 -1.0657  0.3297
  111OSM   C10S11470   5.750   3.369   9.534 -0.4147  0.4213 -0.5205
  111OSM   H10S11471   5.681   3.300   9.482  3.2910 -2.3229 -2.0490
  111OSM   H10T11472   5.853   3.329   9.519 -0.1006  0.5931  1.0850
  111OSM   C11S11473   5.754   3.500   9.453 -0.2474  0.4730 -0.1886
  111OSM   H11S11474   5.798   3.579   9.517 -1.5961  2.0901 -1.2018
  111OSM   H11T11475   5.648   3.526   9.429 -1.3253 -1.9152  1.7072
  111OSM   C12S11476   5.833   3.486   9.324  0.5382 -0.6872  0.7104
  111OSM   H12S11477   5.941   3.468   9.341  0.4767 -0.7576  1.0241
  111OSM   H12T11478   5.829   3.579   9.262 -1.2016 -0.5830  0.9390
  111OSM   C13S11479   5.769   3.379   9.229 -0.0300 -0.5358  0.3862
  111OSM   H13S11480   5.664   3.407   9.207 -0.0984 -1.7470 -0.9118
  111OSM   H13T11481   5.753   3.279   9.274 -1.2670 -0.0726  1.0015
  111OSM   C14S11482   5.846   3.371   9.103  0.3337 -0.6270  0.4790
  111OSM   H14S11483   5.943   3.318   9.116 -0.6599 -2.1098  1.9689
  111OSM   H14T11484   5.875   3.473   9.068  0.8563 -0.2146  2.0846
  111OSM   C15S11485   5.786   3.282   8.994  0.4964  0.8768  1.1518
  111OSM   H15S11486   5.695   3.334   8.959 -0.1949 -0.5433  0.7915
  111OSM   H15T11487   5.747   3.184   9.031 -1.6114  1.0709 -0.4506
  111OSM   C16S11488   5.864   3.267   8.866  0.3492 -0.6461 -0.2925
  111OSM   H16S11489   5.832   3.177   8.809 -1.3273 -0.1416 -0.1527
  111OSM   H16T11490   5.972   3.254   8.888  0.1362  2.2661  2.9326
  111OSM   C17S11491   5.836   3.376   8.767 -0.3497 -0.6721  0.2341
  111OSM   H17S11492   5.863   3.472   8.817 -0.2816  0.8212 -2.5656
  111OSM   H17T11493   5.728   3.385   8.743 -0.6762 -3.8298  0.3107
  111OSM   C18S11494   5.914   3.372   8.637  1.5895  0.0480 -0.6901
  111OSM   H18S11495   6.016   3.413   8.652  1.5828 -0.3214  0.4532
  111OSM   H18T11496   5.867   3.425   8.551  0.5773  0.1600 -0.0849
  111OSM   H18U11497   5.931   3.269   8.601 -2.3834 -0.2438 -1.9397
  111OSM    C1F11498   5.969   3.588  10.425 -1.0818 -0.5008 -0.1643
  111OSM     OF11499   6.070   3.596  10.495  0.0991 -0.0581 -0.2011
  111OSM    C2F11500   5.882   3.708  10.402 -0.2567 -0.1980 -0.0611
  111OSM    H2F11501   5.788   3.697  10.460 -0.4343 -1.0854 -0.5143
  111OSM    H2G11502   5.851   3.700  10.295 -2.1570 -1.9644  0.5952
  111OSM    C3F11503   5.946   3.845  10.430 -0.5469 -0.4038 -0.4601
  111OSM    H3F11504   5.960   3.851  10.540 -1.5338  1.1727 -0.4049
  111OSM    H3G11505   5.882   3.934  10.418  0.4707  0.3299 -0.5068
  111OSM    C4F11506   6.079   3.887  10.359 -0.4407 -0.4017 -0.2986
  111OSM    H4F11507   6.151   3.809  10.392  0.1149 -0.0106 -0.5750
  111OSM    H4G11508   6.106   3.989  10.394  0.8787 -0.9400  0.2834
  111OSM    C5F11509   6.075   3.884  10.201 -0.4597 -0.3875 -0.5370
  111OSM    H5F11510   5.983   3.936  10.166  0.0062  0.3825 -0.6140
  111OSM    H5G11511   6.071   3.780  10.162  0.5087 -0.2696 -0.9487
  111OSM    C6F11512   6.211   3.939  10.154  0.1107  0.2826 -0.0959
  111OSM    H6F11513   6.293   3.884  10.206  1.4271  2.1956 -0.0766
  111OSM    H6G11514   6.219   4.045  10.187  0.1952  0.5030 -0.8064
  111OSM    C7F11515   6.243   3.917  10.001  0.1408 -0.2910 -0.0961
  111OSM    H7F11516   6.160   3.970   9.949  0.9653  0.9320 -0.1811
  111OSM    H7G11517   6.246   3.811   9.968  1.3254  0.2278 -1.7498
  111OSM    C8F11518   6.376   3.980   9.966  0.1717  0.1424 -0.2208
  111OSM    H8F11519   6.454   3.901   9.964  1.4885  1.4512 -0.9437
  111OSM    H8G11520   6.409   4.055  10.040  0.5370  1.4169 -1.6429
  111OSM    C9F11521   6.378   4.057   9.837  0.9411 -0.0913  0.3106
  111OSM    H9F11522   6.300   4.134   9.824  0.2403 -0.8335  0.0518
  111OSM   C10F11523   6.454   4.027   9.725 -0.2773  1.1511 -1.0526
  111OSM   H10F11524   6.470   4.099   9.644  2.0681  1.1448 -0.6264
  111OSM   C11F11525   6.562   3.914   9.717 -0.2303 -0.7202 -0.4004
  111OSM   H11F11526   6.560   3.842   9.801 -2.1240  1.1160  1.1797
  111OSM   H11G11527   6.663   3.962   9.719 -1.2816  1.6751 -1.9218
  111OSM   C12F11528   6.568   3.828   9.587 -0.7065  0.2995 -0.7487
  111OSM   H12F11529   6.464   3.794   9.567  0.3824 -4.0950  0.5221
  111OSM   H12G11530   6.641   3.747   9.607  0.0775  1.0814 -0.4147
  111OSM   C13F11531   6.621   3.900   9.464 -0.2604 -0.1855 -0.3050
  111OSM   H13F11532   6.725   3.935   9.476 -0.5663  0.3316  0.8800
  111OSM   H13G11533   6.554   3.984   9.434 -0.6846 -0.8046 -1.1154
  111OSM   C14F11534   6.622   3.814   9.333 -0.6924  0.3506 -0.7160
  111OSM   H14F11535   6.515   3.795   9.311 -0.0431 -1.7706 -2.2434
  111OSM   H14G11536   6.670   3.721   9.368 -0.6080  0.5053 -0.4147
  111OSM   C15F11537   6.707   3.860   9.216  0.4735  0.6152 -0.3428
  111OSM   H15F11538   6.810   3.840   9.253  0.1933  0.3180  0.2774
  111OSM   H15G11539   6.688   3.966   9.191  0.0848  0.4224 -0.8968
  111OSM   C16F11540   6.701   3.761   9.100  0.5502  0.1197 -0.5111
  111OSM   H16F11541   6.687   3.657   9.135  1.1422 -0.1662 -1.1113
  111OSM   H16G11542   6.803   3.765   9.057  0.4923  1.9379 -0.5030
  111OSM   C17F11543   6.598   3.781   8.994  0.6836 -0.5092  0.2085
  111OSM   H17F11544   6.505   3.815   9.044 -0.5723 -2.2412 -0.8877
  111OSM   H17G11545   6.578   3.687   8.939  0.1948 -0.0930 -0.3351
  111OSM   C18F11546   6.640   3.895   8.902  0.5161 -0.5433 -0.3820
  111OSM   H18F11547   6.742   3.878   8.862  1.0756  0.2547  0.7020
  111OSM   H18G11548   6.637   3.984   8.968  0.5177  0.9725 -2.3969
  111OSM   H18H11549   6.565   3.910   8.821  1.3672  3.0401 -0.5898
  112OSM      N11550   4.488   1.569  11.056 -0.2876 -0.4974 -0.9287
  112OSM    C1511551   4.348   1.519  11.082  0.6336 -0.7874  0.7274
  112OSM   H15A11552   4.294   1.495  10.992 -0.1732  2.1025  0.3904
  112OSM   H15B11553   4.296   1.600  11.131 -3.8552 -2.9752 -0.2128
  112OSM   H15C11554   4.347   1.432  11.145  1.6412 -1.2059  0.1802
  112OSM    C1411555   4.547   1.630  11.182 -0.0594 -0.3927  0.2582
  112OSM   H14A11556   4.644   1.675  11.167 -0.7508  0.4986 -1.6884
  112OSM   H14B11557   4.571   1.548  11.249  0.7848  1.7835  2.6651
  112OSM   H14C11558   4.476   1.694  11.233  0.1028 -1.1529  1.4691
  112OSM    C1311559   4.579   1.467  10.998 -0.0069  0.4692 -0.1039
  112OSM   H13A11560   4.589   1.381  11.063  1.3538 -0.0751 -0.9969
  112OSM   H13B11561   4.678   1.506  10.981 -0.2747  0.8407 -0.8507
  112OSM   H13C11562   4.543   1.422  10.907 -1.9629 -0.1321  0.9382
  112OSM    C1211563   4.477   1.680  10.954 -0.9318 -0.0015  0.9090
  112OSM   H12A11564   4.420   1.650  10.867  0.5893 -1.4610  0.3731
  112OSM   H12B11565   4.576   1.696  10.913 -1.9798 -1.3085 -2.3508
  112OSM    C1111566   4.424   1.819  10.988 -1.0912  0.1283 -0.2888
  112OSM   H11A11567   4.495   1.870  11.057  0.7340 -0.6719 -1.5136
  112OSM   H11B11568   4.326   1.814  11.040 -1.9615  2.0243 -1.6693
  112OSM      P11569   4.541   1.963  10.792 -0.1253 -0.5634  0.0853
  112OSM    O1311570   4.500   2.102  10.756  0.1100 -0.0247  0.4221
  112OSM    O1411571   4.668   1.934  10.866 -0.0063  0.2018 -0.3768
  112OSM    O1111572   4.535   1.875  10.661  0.1176  0.0799  0.1366
  112OSM    O1211573   4.424   1.892  10.864 -0.0993 -0.0050  0.2471
  112OSM    C1S11574   4.456   1.899  10.539 -0.8414 -0.2560  0.8285
  112OSM    H1S11575   4.504   1.978  10.478 -2.5262  0.0162 -0.1522
  112OSM    H1T11576   4.361   1.947  10.570 -1.0003  0.1979 -0.3545
  112OSM     NF11577   4.364   1.809  10.330 -0.0752 -0.2918 -0.3193
  112OSM    HNF11578   4.266   1.793  10.341 -0.3531  1.2881 -0.2421
  112OSM    C2S11579   4.435   1.778  10.453  0.0797 -0.2295 -0.6406
  112OSM    H2S11580   4.534   1.739  10.421 -0.8535 -1.1717 -2.4549
  112OSM    C3S11581   4.375   1.659  10.534  0.4018 -0.6277  0.0687
  112OSM    H3S11582   4.284   1.706  10.578  0.0755 -1.0687 -0.1377
  112OSM     O311583   4.462   1.619  10.637  0.0056 -0.2393 -0.2738
  112OSM    HO311584   4.526   1.689  10.653 -0.6798  0.2356  0.4262
  112OSM    C4S11585   4.340   1.546  10.440  0.4095 -0.3459  0.1432
  112OSM    H4S11586   4.237   1.557  10.403  0.1616  0.6325  1.0801
  112OSM    C5S11587   4.409   1.439  10.395 -0.1690  0.8066 -0.6257
  112OSM    H5S11588   4.510   1.420  10.433 -0.2732 -1.2689 -1.3531
  112OSM    C6S11589   4.330   1.341  10.302  0.2583 -0.0395 -0.5170
  112OSM    H6S11590   4.221   1.362  10.295  0.0157 -1.4120 -0.9325
  112OSM    H6T11591   4.339   1.235  10.336 -1.3697 -0.9796 -2.8863
  112OSM    C7S11592   4.370   1.335  10.154  0.1146  0.0905 -0.5212
  112OSM    H7S11593   4.303   1.259  10.110 -0.0705 -1.0559  1.6850
  112OSM    H7T11594   4.473   1.293  10.158 -0.4085 -1.1954 -0.3703
  112OSM    C8S11595   4.352   1.466  10.083  0.0208 -0.2273 -0.8269
  112OSM    H8S11596   4.440   1.532  10.098  1.6430 -2.3192 -0.9034
  112OSM    H8T11597   4.265   1.522  10.124  0.3160 -0.5493  0.2665
  112OSM    C9S11598   4.342   1.442   9.930 -0.4488 -0.6789 -0.0080
  112OSM    H9S11599   4.233   1.422   9.924 -0.4329 -0.9272  0.4674
  112OSM    H9T11600   4.387   1.344   9.904  0.2791 -0.2619 -0.3279
  112OSM   C10S11601   4.378   1.557   9.827  0.1113 -0.0557  0.4622
  112OSM   H10S11602   4.473   1.612   9.844 -0.5094  1.0910  0.2485
  112OSM   H10T11603   4.298   1.634   9.841 -2.2770 -1.9151 -2.4877
  112OSM   C11S11604   4.381   1.522   9.676  0.2331  0.0897 -0.2062
  112OSM   H11S11605   4.290   1.468   9.644  0.8350  0.1962 -2.1283
  112OSM   H11T11606   4.462   1.449   9.658 -0.7117 -1.0285  0.0029
  112OSM   C12S11607   4.404   1.649   9.593 -0.0124 -1.0576  0.6057
  112OSM   H12S11608   4.479   1.713   9.644 -1.3122  2.0661 -1.2638
  112OSM   H12T11609   4.313   1.713   9.591  1.7166  1.6201  3.1355
  112OSM   C13S11610   4.432   1.629   9.436  0.4949  0.8559  0.1566
  112OSM   H13S11611   4.353   1.556   9.410 -0.0140  1.0140  1.2406
  112OSM   H13T11612   4.526   1.570   9.435 -0.6669 -1.0348 -0.5860
  112OSM   C14S11613   4.447   1.755   9.350 -0.3039  0.3123  0.1131
  112OSM   H14S11614   4.527   1.818   9.394 -1.1625  0.2219  1.8644
  112OSM   H14T11615   4.360   1.823   9.369  1.1773  2.2613  0.0941
  112OSM   C15S11616   4.492   1.723   9.209  0.2412 -0.3127  0.0421
  112OSM   H15S11617   4.421   1.647   9.169 -0.1933  0.6764 -1.1041
  112OSM   H15T11618   4.596   1.683   9.218  0.7084  0.6120 -1.1116
  112OSM   C16S11619   4.502   1.840   9.109 -0.4306 -0.3453 -0.2159
  112OSM   H16S11620   4.522   1.794   9.010  0.4039 -1.5774  0.5106
  112OSM   H16T11621   4.583   1.910   9.138 -0.4099 -0.6210  0.3986
  112OSM   C17S11622   4.383   1.934   9.112 -0.2923  0.1620  0.5927
  112OSM   H17S11623   4.397   1.987   9.208  0.3338  1.3498 -0.1482
  112OSM   H17T11624   4.292   1.870   9.106 -0.8250  0.9230  0.4551
  112OSM   C18S11625   4.388   2.029   8.989  0.6123  0.1866  0.2055
  112OSM   H18S11626   4.354   1.975   8.898  2.8710 -0.7359 -0.1138
  112OSM   H18T11627   4.489   2.076   8.984  0.1457  1.1181 -0.6902
  112OSM   H18U11628   4.312   2.109   9.004 -0.7140 -1.0697  0.2026
  112OSM    C1F11629   4.417   1.876  10.227  0.6488  0.4039 -0.2731
  112OSM     OF11630   4.534   1.918  10.231  0.2321  0.5860  0.1505
  112OSM    C2F11631   4.330   1.895  10.106  0.4449  0.0094  0.6772
  112OSM    H2F11632   4.262   1.978  10.134 -3.0461 -1.9394 -1.6062
  112OSM    H2G11633   4.262   1.809  10.086 -0.6898  0.7657  1.1693
  112OSM    C3F11634   4.417   1.930   9.981  0.7016  1.0137  0.0297
  112OSM    H3F11635   4.484   1.849   9.944 -0.4996 -0.3767  0.8910
  112OSM    H3G11636   4.481   2.021   9.991  1.3928  0.9549 -3.2625
  112OSM    C4F11637   4.324   1.969   9.860 -0.2308 -0.4081 -0.1071
  112OSM    H4F11638   4.233   2.026   9.888  0.7485  1.0835  0.1409
  112OSM    H4G11639   4.284   1.870   9.832  0.7854 -1.5558  2.3301
  112OSM    C5F11640   4.394   2.044   9.745 -0.2490  0.3605 -0.3781
  112OSM    H5F11641   4.498   2.013   9.721 -1.0116 -1.9299 -0.9386
  112OSM    H5G11642   4.396   2.152   9.768  0.9880 -0.0503  1.5152
  112OSM    C6F11643   4.320   2.044   9.605 -0.3760  0.4370  0.1497
  112OSM    H6F11644   4.316   1.941   9.564  0.8477  0.5652 -0.2947
  112OSM    H6G11645   4.389   2.103   9.542 -1.1817  0.6376 -0.5551
  112OSM    C7F11646   4.182   2.116   9.618 -0.2693  0.7375  0.9646
  112OSM    H7F11647   4.192   2.214   9.670 -2.1327  2.4050 -1.6344
  112OSM    H7G11648   4.110   2.064   9.685 -0.2096  0.2311  0.6342
  112OSM    C8F11649   4.117   2.138   9.486  0.6749  0.2553  0.0732
  112OSM    H8F11650   4.068   2.041   9.460 -2.1407  1.5600  0.3567
  112OSM    H8G11651   4.200   2.144   9.413  1.5515  1.8708  1.1800
  112OSM    C9F11652   4.023   2.259   9.475 -1.2781 -0.4975  0.4032
  112OSM    H9F11653   3.973   2.303   9.563 -1.0359  0.0501  0.2720
  112OSM   C10F11654   3.987   2.321   9.360 -0.8037 -0.4150  0.6517
  112OSM   H10F11655   3.915   2.404   9.372 -0.1185  0.0052  1.9082
  112OSM   C11F11656   4.029   2.290   9.220 -0.1729 -0.5280  0.0106
  112OSM   H11F11657   4.062   2.184   9.223  1.0638 -0.1620 -0.4337
  112OSM   H11G11658   4.119   2.350   9.194 -0.8273  0.7381  0.6383
  112OSM   C12F11659   3.919   2.309   9.111  0.1115  0.3563  0.4925
  112OSM   H12F11660   3.836   2.235   9.121  0.1978  0.1427 -0.3940
  112OSM   H12G11661   3.956   2.274   9.013  0.1736  0.9750  0.2955
  112OSM   C13F11662   3.884   2.451   9.084  0.5134 -0.1257  0.0536
  112OSM   H13F11663   3.970   2.521   9.098 -0.5334  1.0091  0.9151
  112OSM   H13G11664   3.822   2.482   9.170  1.4987  0.9765  0.3882
  112OSM   C14F11665   3.841   2.481   8.939  0.0723  0.1492  0.1269
  112OSM   H14F11666   3.741   2.439   8.916  0.5464  0.5004 -2.7585
  112OSM   H14G11667   3.901   2.425   8.864  0.9407  2.1416 -0.7115
  112OSM   C15F11668   3.844   2.632   8.910  0.0842 -0.4721 -0.4509
  112OSM   H15F11669   3.950   2.664   8.916 -0.4619  1.2595  0.1106
  112OSM   H15G11670   3.778   2.678   8.986  0.1785 -4.2774  2.0818
  112OSM   C16F11671   3.800   2.670   8.763  0.8620 -1.1904 -0.5824
  112OSM   H16F11672   3.817   2.777   8.740  0.1343 -0.7779  0.7347
  112OSM   H16G11673   3.695   2.635   8.752  0.5444 -1.1267  1.9740
  112OSM   C17F11674   3.896   2.610   8.653 -0.3743  0.3967  0.2798
  112OSM   H17F11675   3.898   2.500   8.671 -3.0230  0.1382 -0.6468
  112OSM   H17G11676   3.997   2.640   8.685  0.0823 -1.5311  0.7337
  112OSM   C18F11677   3.872   2.632   8.507 -0.0167  0.1690 -0.5149
  112OSM   H18F11678   3.775   2.582   8.484  0.2449 -0.7310  0.3226
  112OSM   H18G11679   3.949   2.573   8.453  0.2702  0.0980 -0.0308
  112OSM   H18H11680   3.868   2.735   8.465 -1.0487 -0.1952 -1.3224
  113OSM      N11681   5.043   0.775  11.282  0.5680  0.5565 -0.4195
  113OSM    C1511682   4.979   0.790  11.418  0.0709 -0.4051  0.5678
  113OSM   H15A11683   4.872   0.786  11.409  0.0530  3.8419 -2.2979
  113OSM   H15B11684   4.994   0.888  11.462 -0.9707  1.2155 -2.5541
  113OSM   H15C11685   5.017   0.727  11.498  1.1710  0.4991  0.7736
  113OSM    C1411686   5.185   0.812  11.295  0.2322 -0.5519 -0.2480
  113OSM   H14A11687   5.228   0.818  11.196  0.1409 -1.6565 -0.3611
  113OSM   H14B11688   5.242   0.738  11.349  0.7306  0.9329  1.3085
  113OSM   H14C11689   5.195   0.907  11.346 -1.4208  0.5009 -1.8216
  113OSM    C1311690   5.030   0.632  11.239 -0.0708  0.3227  0.8031
  113OSM   H13A11691   5.120   0.615  11.183 -0.7756 -0.0753 -0.2288
  113OSM   H13B11692   4.937   0.628  11.184  1.1581 -0.0373 -1.2738
  113OSM   H13C11693   5.031   0.571  11.328  2.0524  3.7770  3.2927
  113OSM    C1211694   4.977   0.867  11.175  0.4215  0.1735  0.0058
  113OSM   H12A11695   5.032   0.858  11.082  0.3740  0.7149 -0.0757
  113OSM   H12B11696   4.987   0.969  11.210 -0.7976  0.8077 -1.4630
  113OSM    C1111697   4.833   0.842  11.145  0.6774  0.7777  0.6160
  113OSM   H11A11698   4.792   0.933  11.098 -0.3476  0.0163  0.0260
  113OSM   H11B11699   4.779   0.840  11.242  2.1176 -0.6474  1.4194
  113OSM      P11700   4.701   0.708  10.965  0.1482  0.2958  0.0862
  113OSM    O1311701   4.710   0.577  10.895 -0.2993  0.2658  0.2983
  113OSM    O1411702   4.577   0.737  11.045 -0.1535 -0.3517 -0.0992
  113OSM    O1111703   4.730   0.822  10.868 -0.3981 -0.7534 -0.0354
  113OSM    O1211704   4.818   0.716  11.073 -0.2691  0.0932 -0.5857
  113OSM    C1S11705   4.852   0.818  10.786 -0.2034  0.6810 -0.3884
  113OSM    H1S11706   4.893   0.715  10.778  2.8124  1.9790 -2.5534
  113OSM    H1T11707   4.936   0.884  10.815 -1.4508  2.1919 -0.1387
  113OSM     NF11708   4.943   0.829  10.552 -0.6323  0.6055 -0.3937
  113OSM    HNF11709   4.995   0.908  10.522 -1.4747  0.2977 -2.7462
  113OSM    C2S11710   4.826   0.853  10.637 -0.6310 -0.3843 -0.1148
  113OSM    H2S11711   4.742   0.789  10.604 -0.4011 -1.4055  1.2473
  113OSM    C3S11712   4.779   1.004  10.633 -0.4545  0.1581  0.4098
  113OSM    H3S11713   4.859   1.066  10.679  0.6419 -0.9028 -0.0396
  113OSM     O311714   4.654   1.023  10.696 -0.0255 -0.6362 -0.5254
  113OSM    HO311715   4.641   0.946  10.752 -1.7605  1.1803  1.6597
  113OSM    C4S11716   4.761   1.042  10.496  0.2352 -0.1789  0.3290
  113OSM    H4S11717   4.677   0.996  10.442  1.7215 -1.5558 -0.8815
  113OSM    C5S11718   4.836   1.136  10.440  0.4210  0.3761  0.2667
  113OSM    H5S11719   4.915   1.186  10.497  0.0094  1.3507 -0.0080
  113OSM    C6S11720   4.817   1.188  10.300  0.0004  0.1904  0.2039
  113OSM    H6S11721   4.914   1.231  10.266 -0.9792  3.2575  1.1251
  113OSM    H6T11722   4.749   1.276  10.312 -2.7887 -1.7980 -0.4595
  113OSM    C7S11723   4.761   1.093  10.192  0.5083  0.4309 -0.8529
  113OSM    H7S11724   4.656   1.075  10.222  0.7937  0.6795  0.3094
  113OSM    H7T11725   4.828   1.006  10.172  0.1391 -0.4939  1.7713
  113OSM    C8S11726   4.756   1.172  10.057  0.0573 -0.1832 -0.7488
  113OSM    H8S11727   4.858   1.194  10.018 -0.1427  1.6574 -0.2498
  113OSM    H8T11728   4.711   1.272  10.073  1.9399  0.4029  1.0777
  113OSM    C9S11729   4.681   1.094   9.943  0.6823  0.1141 -0.0608
  113OSM    H9S11730   4.576   1.070   9.970  1.3844 -2.1379  0.7813
  113OSM    H9T11731   4.747   1.005   9.930 -1.0092 -0.8165 -2.5815
  113OSM   C10S11732   4.680   1.173   9.818  0.0638  0.6803  0.2273
  113OSM   H10S11733   4.783   1.197   9.784  1.2709 -2.5833  1.3903
  113OSM   H10T11734   4.623   1.268   9.828 -0.4213  0.2007  2.2312
  113OSM   C11S11735   4.619   1.090   9.699 -0.1588 -0.3676  0.2303
  113OSM   H11S11736   4.546   1.015   9.736 -1.0202 -0.0055 -0.6965
  113OSM   H11T11737   4.701   1.026   9.659  0.1176 -0.2700  0.6436
  113OSM   C12S11738   4.562   1.172   9.583  0.1668 -0.0259 -0.5605
  113OSM   H12S11739   4.634   1.256   9.573 -0.4613  0.4143 -1.4121
  113OSM   H12T11740   4.460   1.213   9.596  0.4611  0.7564 -0.6408
  113OSM   C13S11741   4.572   1.113   9.439 -0.2399 -0.3652 -0.3528
  113OSM   H13S11742   4.499   1.030   9.434 -0.6572  0.0386 -0.9983
  113OSM   H13T11743   4.671   1.064   9.426 -0.0988 -0.4803  1.0960
  113OSM   C14S11744   4.530   1.224   9.347  0.7497  0.7894 -0.3325
  113OSM   H14S11745   4.602   1.307   9.360  1.0302  0.6708 -1.1057
  113OSM   H14T11746   4.426   1.254   9.373 -0.0664 -1.8971 -0.3678
  113OSM   C15S11747   4.530   1.169   9.201  0.6499  0.2569 -0.3307
  113OSM   H15S11748   4.452   1.091   9.186  0.6914  0.3279 -0.9146
  113OSM   H15T11749   4.621   1.108   9.181  0.1941 -0.2492 -0.8755
  113OSM   C16S11750   4.522   1.281   9.098 -0.0043 -0.1379  0.3025
  113OSM   H16S11751   4.532   1.231   8.999  1.3257  0.0094  0.3609
  113OSM   H16T11752   4.603   1.356   9.105 -0.4950  0.4122  0.1729
  113OSM   C17S11753   4.397   1.361   9.110 -0.0395  0.1290 -0.5627
  113OSM   H17S11754   4.413   1.420   9.203  0.2918 -1.6202  0.5092
  113OSM   H17T11755   4.319   1.287   9.138  0.9597 -1.4192 -1.8242
  113OSM   C18S11756   4.358   1.442   8.980  0.0351 -0.0894 -1.6165
  113OSM   H18S11757   4.373   1.376   8.892  1.0467 -1.4629 -0.4200
  113OSM   H18T11758   4.429   1.527   8.976  1.4363 -1.1363  0.5001
  113OSM   H18U11759   4.254   1.482   8.972  0.5678  1.2107 -2.1053
  113OSM    C1F11760   4.980   0.708  10.519 -0.6898 -0.5125 -0.0073
  113OSM     OF11761   4.934   0.612  10.579  0.2180  0.7041  0.6079
  113OSM    C2F11762   5.072   0.705  10.401  0.5957  0.1566 -0.3105
  113OSM    H2F11763   5.173   0.705  10.447  0.1961  1.5495  0.5966
  113OSM    H2G11764   5.051   0.786  10.328 -0.0533 -1.5536 -2.0782
  113OSM    C3F11765   5.054   0.575  10.324  0.1349  0.0932 -0.2079
  113OSM    H3F11766   4.952   0.568  10.279  0.2107 -2.0913 -0.0951
  113OSM    H3G11767   5.073   0.486  10.387 -0.7846 -0.3774 -0.5846
  113OSM    C4F11768   5.152   0.578  10.204  0.3724  0.6442  0.5212
  113OSM    H4F11769   5.253   0.581  10.252  0.7079 -0.7592 -0.0677
  113OSM    H4G11770   5.138   0.673  10.149 -3.1904 -0.8601 -1.3452
  113OSM    C5F11771   5.129   0.448  10.115 -0.1680  0.1061  0.2798
  113OSM    H5F11772   5.019   0.430  10.112 -0.2358  0.4432  0.6273
  113OSM    H5G11773   5.180   0.364  10.166 -0.5544  0.3947  1.1522
  113OSM    C6F11774   5.188   0.462   9.968 -0.0267  0.7328  0.4538
  113OSM    H6F11775   5.299   0.466   9.970  0.0164  1.3376 -1.7755
  113OSM    H6G11776   5.151   0.548   9.909  1.0277  1.0939  0.3095
  113OSM    C7F11777   5.152   0.345   9.874 -0.4902  0.1285  0.2992
  113OSM    H7F11778   5.043   0.325   9.868 -0.3113 -0.9651  0.5878
  113OSM    H7G11779   5.185   0.263   9.941  0.3501 -0.5625 -0.9378
  113OSM    C8F11780   5.223   0.351   9.738  0.4772 -1.2239  0.3101
  113OSM    H8F11781   5.231   0.242   9.718  0.0815 -0.9992 -1.1497
  113OSM    H8G11782   5.324   0.397   9.743 -0.2490  0.3300  0.9948
  113OSM    C9F11783   5.145   0.435   9.635 -0.6583  0.7048  0.1397
  113OSM    H9F11784   5.166   0.543   9.624 -2.3858  1.0456  0.0112
  113OSM   C10F11785   5.046   0.387   9.560 -0.4368 -0.2912 -1.2030
  113OSM   H10F11786   5.016   0.448   9.473 -0.7645 -2.0776 -2.3543
  113OSM   C11F11787   4.989   0.251   9.580  0.0294  0.2197 -0.4155
  113OSM   H11F11788   4.916   0.242   9.663 -0.8515  1.1348 -1.0846
  113OSM   H11G11789   5.057   0.170   9.615 -0.5900 -0.4059 -0.6460
  113OSM   C12F11790   4.920   0.191   9.453  0.1014  0.2560 -0.2216
  113OSM   H12F11791   4.872   0.092   9.470  0.7642 -0.3990 -2.0947
  113OSM   H12G11792   4.990   0.186   9.367 -1.1976 -2.6196 -1.1991
  113OSM   C13F11793   4.800   0.277   9.399 -0.2147 -0.1636 -0.4237
  113OSM   H13F11794   4.849   0.366   9.353  0.7178 -0.4266  0.0516
  113OSM   H13G11795   4.724   0.296   9.478  2.0016  1.0930  1.4432
  113OSM   C14F11796   4.730   0.203   9.289  0.8059 -0.4430  0.1260
  113OSM   H14F11797   4.642   0.259   9.251  1.7824  1.7392  0.9943
  113OSM   H14G11798   4.693   0.106   9.329 -0.5402  0.1812  0.4261
  113OSM   C15F11799   4.823   0.166   9.172 -0.1325  0.2768  0.8525
  113OSM   H15F11800   4.887   0.082   9.206 -2.1970 -2.0618 -0.8939
  113OSM   H15G11801   4.894   0.250   9.154 -2.1886  1.6049 -1.2667
  113OSM   C16F11802   4.744   0.144   9.040 -0.0861  0.7103 -0.7373
  113OSM   H16F11803   4.646   0.093   9.052  0.3450  0.1658  0.5875
  113OSM   H16G11804   4.819   0.088   8.979 -2.1996 -1.2789 -1.5794
  113OSM   C17F11805   4.710   0.281   8.971  0.5832 -0.8219  0.7740
  113OSM   H17F11806   4.699   0.360   9.048 -0.0584  0.4614 -0.5908
  113OSM   H17G11807   4.614   0.277   8.915 -0.0707  1.2654  1.6783
  113OSM   C18F11808   4.820   0.329   8.874 -0.1364 -0.3535 -0.0817
  113OSM   H18F11809   4.835   0.248   8.799 -1.1760 -0.2152 -0.4479
  113OSM   H18G11810   4.909   0.348   8.937 -0.2191 -3.0885  0.9488
  113OSM   H18H11811   4.812   0.425   8.820 -0.9767 -0.8865 -0.9344
  114OSM      N11812   0.081   6.294  11.719  0.2443  0.2157  0.1806
  114OSM    C1511813   0.068   6.175  11.628 -0.0653  0.4504 -0.4453
  114OSM   H15A11814   0.159   6.162  11.571 -0.0681  0.9814 -0.5787
  114OSM   H15B11815  -0.013   6.195  11.560  0.2923  1.1165 -0.6857
  114OSM   H15C11816   0.050   6.083  11.681  0.2440  0.8737  0.4065
  114OSM    C1411817  -0.057   6.308  11.780 -0.5668 -0.1457  0.3692
  114OSM   H14A11818  -0.079   6.213  11.828  2.7284 -1.1376  0.0349
  114OSM   H14B11819  -0.135   6.323  11.707  2.3623  3.3731 -2.1687
  114OSM   H14C11820  -0.053   6.390  11.850 -0.2724  1.8476 -1.9161
  114OSM    C1311821   0.170   6.260  11.830  0.1955  1.6683 -0.1256
  114OSM   H13A11822   0.270   6.252  11.789 -0.0523  0.6262 -0.5511
  114OSM   H13B11823   0.142   6.161  11.862  1.1127  1.8521  1.3211
  114OSM   H13C11824   0.156   6.323  11.917 -1.5569  1.5424 -0.2927
  114OSM    C1211825   0.127   6.422  11.651 -0.4269  0.8747  0.0268
  114OSM   H12A11826   0.234   6.410  11.651 -0.3731  1.3156  0.4838
  114OSM   H12B11827   0.093   6.510  11.705 -4.0533 -0.8546  0.6942
  114OSM    C1111828   0.086   6.440  11.502 -0.7002  0.4002 -0.1091
  114OSM   H11A11829   0.063   6.344  11.451  1.7030  1.1079 -2.6746
  114OSM   H11B11830   0.172   6.480  11.444  0.3368  0.7123  1.6067
  114OSM      P11831  -0.029   6.677  11.496 -0.2361  0.1688  0.1161
  114OSM    O1311832  -0.173   6.710  11.499  0.2888 -0.0112 -0.3650
  114OSM    O1411833   0.056   6.736  11.599 -0.5478 -0.7809  0.1088
  114OSM    O1111834   0.030   6.713  11.349  0.3653 -0.7908  0.0725
  114OSM    O1211835  -0.023   6.523  11.497  0.1416 -0.5795  0.4722
  114OSM    C1S11836  -0.032   6.668  11.233 -0.2179  0.0531 -0.0734
  114OSM    H1S11837  -0.143   6.677  11.228 -0.3448 -1.6345 -0.5864
  114OSM    H1T11838  -0.018   6.558  11.222  1.4126  0.2238  0.2370
  114OSM     NF11839  -0.030   6.694  10.980  0.2005  0.1241  0.2424
  114OSM    HNF11840   0.004   6.621  10.922  1.4314  1.2756 -0.4990
  114OSM    C2S11841   0.044   6.722  11.105 -0.6745 -0.6010 -0.0500
  114OSM    H2S11842   0.034   6.829  11.136  0.4877 -1.3904  3.3418
  114OSM    C3S11843   0.192   6.683  11.097 -0.6243 -0.5758  0.7449
  114OSM    H3S11844   0.191   6.574  11.077  2.8030 -0.7397  1.0573
  114OSM     O311845   0.266   6.712  11.213 -0.1113  0.4427 -0.1816
  114OSM    HO311846   0.208   6.694  11.287  0.7463  2.1453  0.9224
  114OSM    C4S11847   0.266   6.753  10.981 -1.1269  0.6036 -0.8364
  114OSM    H4S11848   0.285   6.860  10.998  0.8029  0.4463 -1.7598
  114OSM    C5S11849   0.318   6.689  10.882  0.9370  0.2020  0.1603
  114OSM    H5S11850   0.300   6.580  10.875  3.4207 -0.2848  0.8415
  114OSM    C6S11851   0.394   6.761  10.780 -0.3784 -0.4507 -0.4996
  114OSM    H6S11852   0.480   6.692  10.761  0.2777  0.2122  0.0390
  114OSM    H6T11853   0.443   6.849  10.827 -3.2975  1.0510 -0.1855
  114OSM    C7S11854   0.312   6.794  10.652  0.4287  0.3032  0.4540
  114OSM    H7S11855   0.376   6.846  10.578  0.3958  0.6981  0.7012
  114OSM    H7T11856   0.236   6.867  10.689  0.4600  0.6669 -0.1950
  114OSM    C8S11857   0.249   6.671  10.585  0.5855  0.2260  0.1950
  114OSM    H8S11858   0.187   6.613  10.656  1.4598  0.4358  1.1401
  114OSM    H8T11859   0.338   6.606  10.572 -0.8626 -1.5419 -1.0895
  114OSM    C9S11860   0.178   6.710  10.450  1.1479  0.3967 -0.3643
  114OSM    H9S11861   0.162   6.614  10.397  1.5492  0.4942 -0.6672
  114OSM    H9T11862   0.247   6.759  10.378  1.0278  2.8180  1.1059
  114OSM   C10S11863   0.048   6.791  10.450 -0.2118 -0.5997 -0.5782
  114OSM   H10S11864   0.076   6.887  10.499  0.8325 -0.1577 -2.0018
  114OSM   H10T11865  -0.021   6.730  10.512 -1.0831  0.6797 -0.2617
  114OSM   C11S11866  -0.031   6.829  10.322 -0.0330 -0.3822 -0.2012
  114OSM   H11S11867  -0.077   6.739  10.275  0.9548 -1.0909  0.1674
  114OSM   H11T11868   0.055   6.857  10.256 -0.5074  1.7248  0.0379
  114OSM   C12S11869  -0.130   6.943  10.331  0.0439 -0.1399 -0.1003
  114OSM   H12S11870  -0.170   6.976  10.232 -1.1891 -2.2637 -0.3525
  114OSM   H12T11871  -0.080   7.027  10.383  1.9432  0.0169 -2.1041
  114OSM   C13S11872  -0.250   6.908  10.415 -0.6400  0.1013 -0.2575
  114OSM   H13S11873  -0.302   6.996  10.459 -0.3934 -0.3018  0.8482
  114OSM   H13T11874  -0.222   6.845  10.502  0.7162 -1.4872 -1.7964
  114OSM   C14S11875  -0.358   6.836  10.333  0.3344 -0.7459 -0.7513
  114OSM   H14S11876  -0.310   6.753  10.278 -0.1001 -1.0108 -0.7381
  114OSM   H14T11877  -0.399   6.907  10.257  0.8226 -0.1298 -0.4433
  114OSM   C15S11878  -0.475   6.780  10.418 -0.5342  0.1222 -0.6612
  114OSM   H15S11879  -0.509   6.853  10.494  2.8999  0.9573  0.1311
  114OSM   H15T11880  -0.457   6.684  10.472 -0.6740 -0.4106 -1.5499
  114OSM   C16S11881  -0.597   6.756  10.330 -0.4455 -1.0632 -0.0589
  114OSM   H16S11882  -0.668   6.688  10.382  1.2633 -0.8294  2.6851
  114OSM   H16T11883  -0.567   6.714  10.231 -0.5124  2.6158 -1.7489
  114OSM   C17S11884  -0.683   6.883  10.297  0.2968  0.3576  0.5117
  114OSM   H17S11885  -0.610   6.958  10.259 -0.5831  1.4972  1.0588
  114OSM   H17T11886  -0.722   6.922  10.393  2.5000  2.1385  0.7288
  114OSM   C18S11887  -0.786   6.842  10.195  0.5699 -0.7791 -0.2525
  114OSM   H18S11888  -0.862   6.768  10.229  0.1674 -0.7978 -1.1741
  114OSM   H18T11889  -0.738   6.795  10.106  0.6336 -0.9306 -0.1408
  114OSM   H18U11890  -0.847   6.929  10.161  1.7252  0.1583  0.0621
  114OSM    C1F11891  -0.152   6.745  10.951 -0.8965  0.1099  0.7208
  114OSM     OF11892  -0.204   6.830  11.023  0.3532 -0.7997  0.1295
  114OSM    C2F11893  -0.213   6.690  10.833 -0.5241  0.0885 -0.5981
  114OSM    H2F11894  -0.192   6.763  10.752 -0.5499  1.3356  0.5030
  114OSM    H2G11895  -0.323   6.695  10.843 -0.4161  0.3894  0.6455
  114OSM    C3F11896  -0.168   6.544  10.797  0.5700  0.3491 -0.1184
  114OSM    H3F11897  -0.162   6.482  10.890  0.1807  1.5387  0.7104
  114OSM    H3G11898  -0.063   6.551  10.761  1.0135  0.3163  1.1478
  114OSM    C4F11899  -0.250   6.463  10.689  0.5143 -0.8063 -0.4608
  114OSM    H4F11900  -0.359   6.482  10.689  0.6694  0.0884 -0.3536
  114OSM    H4G11901  -0.237   6.353  10.692  1.9772 -0.6321 -0.1818
  114OSM    C5F11902  -0.215   6.501  10.546  0.2469 -1.3535  0.2986
  114OSM    H5F11903  -0.108   6.472  10.537  0.1901 -2.0766  1.8025
  114OSM    H5G11904  -0.221   6.612  10.547  2.4085 -1.1926 -0.3888
  114OSM    C6F11905  -0.300   6.438  10.438 -0.7678 -0.0115  0.1435
  114OSM    H6F11906  -0.260   6.493  10.351  1.5234  1.0663  1.8294
  114OSM    H6G11907  -0.405   6.472  10.450 -0.7090  0.1975  0.0569
  114OSM    C7F11908  -0.295   6.281  10.424 -0.1971  0.4926 -0.2739
  114OSM    H7F11909  -0.357   6.218  10.492  0.2310 -1.5804 -1.7773
  114OSM    H7G11910  -0.190   6.246  10.429 -0.4759 -0.6769 -2.1093
  114OSM    C8F11911  -0.334   6.242  10.280  0.8788  0.1883 -0.1392
  114OSM    H8F11912  -0.359   6.134  10.294 -0.0908  0.5638  1.2005
  114OSM    H8G11913  -0.245   6.258  10.216  0.7727  1.5050  0.0360
  114OSM    C9F11914  -0.463   6.298  10.228  0.6861 -0.1201  0.1727
  114OSM    H9F11915  -0.550   6.300  10.296 -0.5490  0.9371 -1.4083
  114OSM   C10F11916  -0.490   6.349  10.108 -0.6035 -0.9200  0.4349
  114OSM   H10F11917  -0.585   6.401  10.088 -0.3755 -1.1376 -1.2981
  114OSM   C11F11918  -0.388   6.362  10.001  0.3245 -0.1095  0.2887
  114OSM   H11F11919  -0.349   6.264   9.965  1.8299  1.4516 -2.4655
  114OSM   H11G11920  -0.296   6.413  10.037  0.6710 -0.2444 -0.3995
  114OSM   C12F11921  -0.451   6.434   9.879 -0.0276  0.9188  0.5416
  114OSM   H12F11922  -0.499   6.525   9.922  0.0315  1.0542  0.3223
  114OSM   H12G11923  -0.530   6.371   9.834  0.2784  0.2890  0.8833
  114OSM   C13F11924  -0.342   6.475   9.773 -0.3215 -0.1175  0.1881
  114OSM   H13F11925  -0.268   6.398   9.740 -1.0434 -0.8172  0.2095
  114OSM   H13G11926  -0.288   6.568   9.802  0.3664  0.1469 -1.8553
  114OSM   C14F11927  -0.415   6.499   9.643  0.6468  0.9643  0.3060
  114OSM   H14F11928  -0.487   6.583   9.652 -0.7735 -0.2517  0.5392
  114OSM   H14G11929  -0.473   6.411   9.607  2.4418 -1.3091  2.7958
  114OSM   C15F11930  -0.318   6.558   9.528 -0.1510  0.6033 -0.6883
  114OSM   H15F11931  -0.259   6.474   9.487  1.3799  1.4934 -0.3562
  114OSM   H15G11932  -0.234   6.622   9.562  1.2576 -1.6498  0.1489
  114OSM   C16F11933  -0.385   6.637   9.417 -0.2315  0.6089  0.0927
  114OSM   H16F11934  -0.405   6.740   9.452  0.2239  0.1361  1.7619
  114OSM   H16G11935  -0.481   6.589   9.386 -0.3915  0.5120  0.7306
  114OSM   C17F11936  -0.293   6.651   9.301 -0.8869 -0.4209  0.0618
  114OSM   H17F11937  -0.244   6.551   9.294 -0.7675 -0.3741  0.2190
  114OSM   H17G11938  -0.209   6.720   9.322 -1.7703 -0.1216  2.8108
  114OSM   C18F11939  -0.352   6.681   9.160 -0.0304 -0.3582 -0.1390
  114OSM   H18F11940  -0.396   6.783   9.159  1.1809  0.1853  0.5600
  114OSM   H18G11941  -0.441   6.618   9.141  0.0230 -1.1857  2.2177
  114OSM   H18H11942  -0.281   6.688   9.075 -0.5359  0.7052 -0.4813
  115OSM      N11943   1.403   3.543   6.344 -0.1417 -0.6111  0.1816
  115OSM    C1511944   1.533   3.540   6.271  0.8222  0.4723 -0.5475
  115OSM   H15A11945   1.613   3.511   6.338 -1.3504  0.9849  2.3904
  115OSM   H15B11946   1.556   3.634   6.223  2.7539  0.1822 -0.2424
  115OSM   H15C11947   1.527   3.460   6.199  0.6985 -0.4071  0.4289
  115OSM    C1411948   1.288   3.544   6.238  0.8527 -0.1025  0.5106
  115OSM   H14A11949   1.289   3.631   6.175 -4.3952  1.5985  2.4919
  115OSM   H14B11950   1.195   3.546   6.294  0.8303 -1.2921  0.5374
  115OSM   H14C11951   1.300   3.463   6.168  1.8907  0.5320 -0.0416
  115OSM    C1311952   1.397   3.423   6.436  0.6970 -0.1956  0.5609
  115OSM   H13A11953   1.295   3.417   6.470  0.5392 -0.8457 -0.0191
  115OSM   H13B11954   1.440   3.447   6.532 -0.0865  0.2292  0.8101
  115OSM   H13C11955   1.440   3.329   6.404 -2.3623 -1.4865  0.1618
  115OSM    C1211956   1.396   3.678   6.414  0.0930 -0.4774 -0.1615
  115OSM   H12A11957   1.389   3.765   6.350 -0.9893 -1.3032 -1.1645
  115OSM   H12B11958   1.485   3.696   6.473 -1.9441  1.3068  2.4528
  115OSM    C1111959   1.278   3.698   6.516  0.8450 -0.2797  0.5465
  115OSM   H11A11960   1.302   3.784   6.582 -2.1200  2.2967 -1.5917
  115OSM   H11B11961   1.270   3.605   6.576 -2.8396 -0.1786  0.3270
  115OSM      P11962   1.098   3.848   6.396  0.5017  0.0010 -0.1062
  115OSM    O1311963   1.208   3.941   6.358 -0.5028  0.0877  0.1467
  115OSM    O1411964   1.005   3.810   6.285 -0.3120 -0.9230 -0.3323
  115OSM    O1111965   1.010   3.906   6.514  0.9415  0.3627  0.5176
  115OSM    O1211966   1.156   3.714   6.455 -0.0513 -0.1907 -0.3060
  115OSM    C1S11967   1.007   3.838   6.639  0.8222  0.1609  0.0758
  115OSM    H1S11968   1.098   3.869   6.695  0.3155 -0.1432  1.0926
  115OSM    H1T11969   0.993   3.728   6.636  0.7779  0.1771 -0.4168
  115OSM     NF11970   0.885   3.841   6.864 -0.2802  0.1923  0.3090
  115OSM    HNF11971   0.813   3.781   6.896 -0.7924  0.5787 -0.1118
  115OSM    C2S11972   0.881   3.881   6.722 -0.2992 -0.6405  1.2373
  115OSM    H2S11973   0.870   3.991   6.722  0.4963 -0.5496  0.0131
  115OSM    C3S11974   0.752   3.841   6.639  0.2923 -1.0151  0.6968
  115OSM    H3S11975   0.746   3.732   6.622 -1.8005 -0.3792 -3.3209
  115OSM     O311976   0.748   3.895   6.503 -0.0774  0.0083  0.1369
  115OSM    HO311977   0.840   3.918   6.487  0.1290 -1.4480 -0.8446
  115OSM    C4S11978   0.633   3.890   6.708 -0.0646 -0.0032  0.0108
  115OSM    H4S11979   0.643   3.994   6.743 -1.0758  0.2275 -0.3827
  115OSM    C5S11980   0.526   3.819   6.750  0.4062  0.3216 -0.0006
  115OSM    H5S11981   0.512   3.715   6.715 -0.8294  0.4662  0.0517
  115OSM    C6S11982   0.419   3.874   6.831  0.6592  0.3348  0.2522
  115OSM    H6S11983   0.319   3.854   6.787  1.2753  1.1255 -1.5341
  115OSM    H6T11984   0.433   3.983   6.843  0.5252  0.4004 -0.1735
  115OSM    C7S11985   0.402   3.827   6.982 -0.0797  0.0936 -0.3562
  115OSM    H7S11986   0.380   3.718   6.983 -0.7595  0.2228 -0.8791
  115OSM    H7T11987   0.316   3.884   7.023  0.5372  1.1838 -0.5731
  115OSM    C8S11988   0.534   3.843   7.056 -0.2109  0.8492  0.6869
  115OSM    H8S11989   0.561   3.950   7.060  0.4446  0.7493 -0.8630
  115OSM    H8T11990   0.613   3.794   6.994  0.5265  1.5638  1.0687
  115OSM    C9S11991   0.521   3.800   7.198 -0.1063  0.1450 -0.2520
  115OSM    H9S11992   0.625   3.776   7.228 -0.1662  0.7200  0.4292
  115OSM    H9T11993   0.460   3.708   7.212  2.3284 -1.4228  0.4465
  115OSM   C10S11994   0.465   3.915   7.279  0.1186  0.5280  0.2429
  115OSM   H10S11995   0.360   3.936   7.252 -0.1494 -2.7767 -1.6334
  115OSM   H10T11996   0.536   4.000   7.276  1.1509 -0.3274 -5.0523
  115OSM   C11S11997   0.455   3.893   7.433 -0.1695  0.2794  0.1589
  115OSM   H11S11998   0.402   3.799   7.460  0.6727 -0.9249 -2.2053
  115OSM   H11T11999   0.400   3.983   7.469  0.5652  0.7777  0.0331
  115OSM   C12S12000   0.579   3.867   7.511  0.3047 -0.4931 -0.7877
  115OSM   H12S12001   0.638   3.960   7.495 -0.6523  0.5275  1.3143
  115OSM   H12T12002   0.642   3.779   7.486  0.6424 -0.9310  1.4575
  115OSM   C13S12003   0.560   3.853   7.660 -0.6957 -0.3746 -0.5475
  115OSM   H13S12004   0.662   3.882   7.694 -0.3400 -0.3973 -1.5831
  115OSM   H13T12005   0.546   3.751   7.702  0.8365  0.3921  1.8846
  115OSM   C14S12006   0.452   3.933   7.733 -0.4679  0.0629  0.0015
  115OSM   H14S12007   0.345   3.922   7.705 -0.2938 -0.6729 -0.3936
  115OSM   H14T12008   0.477   4.038   7.709  2.9721 -0.0501  2.7576
  115OSM   C15S12009   0.445   3.904   7.888  0.2241 -0.0811  0.4085
  115OSM   H15S12010   0.452   3.800   7.925 -0.1302 -0.5122 -0.7101
  115OSM   H15T12011   0.344   3.937   7.921  1.0944  1.4590  1.5931
  115OSM   C16S12012   0.529   4.002   7.966 -0.2110 -0.6431  1.0064
  115OSM   H16S12013   0.503   4.107   7.940 -3.1579 -1.2153  1.4173
  115OSM   H16T12014   0.638   4.000   7.947 -0.3564  1.6546 -0.3324
  115OSM   C17S12015   0.511   3.977   8.113  0.0253  0.3164 -0.3560
  115OSM   H17S12016   0.522   3.867   8.128 -0.2014 -0.2291 -3.6978
  115OSM   H17T12017   0.411   3.998   8.156  0.6499  1.3791  0.5938
  115OSM   C18S12018   0.613   4.049   8.205 -0.3971  0.7697 -0.1421
  115OSM   H18S12019   0.716   4.015   8.179 -0.2732  1.4302 -0.5235
  115OSM   H18T12020   0.592   4.037   8.313  0.7785 -0.0697 -0.0006
  115OSM   H18U12021   0.620   4.157   8.178 -2.4422  0.5788 -1.5798
  115OSM    C1F12022   0.980   3.886   6.944  0.2220 -0.1934  0.2692
  115OSM     OF12023   1.050   3.970   6.900 -0.2437 -0.1824 -0.8746
  115OSM    C2F12024   0.995   3.828   7.082 -0.0825 -0.6354 -0.2927
  115OSM    H2F12025   1.068   3.744   7.078  0.7513  0.0907 -0.3910
  115OSM    H2G12026   0.896   3.801   7.124  1.8189 -1.7368  3.8029
  115OSM    C3F12027   1.061   3.941   7.172 -0.1583 -0.3755  0.3002
  115OSM    H3F12028   1.020   4.036   7.133 -0.8080 -1.5870 -2.0905
  115OSM    H3G12029   1.170   3.957   7.154 -0.4669  1.3180 -0.1058
  115OSM    C4F12030   1.038   3.930   7.320 -0.7883 -0.2862  0.2550
  115OSM    H4F12031   0.939   3.977   7.342 -1.0228 -1.3078  1.4482
  115OSM    H4G12032   1.115   3.988   7.376 -0.4595 -1.0889  0.6415
  115OSM    C5F12033   1.037   3.793   7.380  0.4896  0.0983  0.0788
  115OSM    H5F12034   1.128   3.734   7.361 -0.5564 -2.0041  1.4193
  115OSM    H5G12035   0.967   3.726   7.325  0.2513  0.3351  0.0892
  115OSM    C6F12036   0.988   3.790   7.524 -0.6497 -0.6829 -0.3802
  115OSM    H6F12037   0.911   3.868   7.538 -0.5886 -0.2379 -2.3871
  115OSM    H6G12038   1.073   3.827   7.585 -0.6570 -0.2906 -0.6124
  115OSM    C7F12039   0.940   3.657   7.583 -0.3120  0.2439  0.6935
  115OSM    H7F12040   1.012   3.579   7.547  0.6357  2.0162 -1.3475
  115OSM    H7G12041   0.841   3.644   7.535  0.6669 -2.1711 -0.7995
  115OSM    C8F12042   0.942   3.649   7.739 -0.8805 -0.5648  1.1773
  115OSM    H8F12043   0.904   3.747   7.776  0.6381  0.5477 -0.1534
  115OSM    H8G12044   1.043   3.635   7.783 -0.6106  0.3075  0.8590
  115OSM    C9F12045   0.841   3.545   7.774 -0.3911  0.3078 -0.2149
  115OSM    H9F12046   0.843   3.457   7.709 -1.5683  0.3808 -0.3535
  115OSM   C10F12047   0.750   3.540   7.878 -0.7571  0.3288  0.1167
  115OSM   H10F12048   0.675   3.459   7.879 -1.3272  0.8355 -0.8213
  115OSM   C11F12049   0.730   3.649   7.986  0.6183  0.1186  0.4243
  115OSM   H11F12050   0.620   3.664   7.996  0.0996 -4.0355  2.0206
  115OSM   H11G12051   0.774   3.744   7.949  0.3757  0.0306 -0.0955
  115OSM   C12F12052   0.806   3.600   8.110  0.1669 -0.3857  0.3981
  115OSM   H12F12053   0.913   3.612   8.081 -0.0044  1.5916  0.5594
  115OSM   H12G12054   0.781   3.493   8.128 -2.1393 -0.2968 -1.9117
  115OSM   C13F12055   0.793   3.687   8.236  0.2989 -0.1704  0.1890
  115OSM   H13F12056   0.687   3.681   8.271 -0.0176 -1.7948 -1.0086
  115OSM   H13G12057   0.799   3.796   8.214 -2.4176  0.0494  0.3324
  115OSM   C14F12058   0.901   3.644   8.333  0.4285  0.5555 -0.8158
  115OSM   H14F12059   0.992   3.693   8.290  0.2501  0.3507 -1.4371
  115OSM   H14G12060   0.908   3.534   8.347 -2.3582  0.4604  0.1637
  115OSM   C15F12061   0.872   3.716   8.472  0.0186  0.5948  0.0931
  115OSM   H15F12062   0.763   3.709   8.493  0.1658 -0.5547  0.4838
  115OSM   H15G12063   0.899   3.823   8.460  2.1223  0.2017  1.1546
  115OSM   C16F12064   0.951   3.649   8.586 -0.1488 -0.1946 -0.0605
  115OSM   H16F12065   0.918   3.543   8.576 -2.1071  0.4681 -0.9214
  115OSM   H16G12066   0.921   3.688   8.686 -1.2439  0.9085 -0.7986
  115OSM   C17F12067   1.097   3.670   8.584  0.1730 -0.6558  0.2214
  115OSM   H17F12068   1.095   3.778   8.555 -2.2528 -0.3339  1.4573
  115OSM   H17G12069   1.156   3.620   8.504 -1.6853 -1.7512 -0.4912
  115OSM   C18F12070   1.164   3.634   8.718 -1.1102  0.5091  0.0604
  115OSM   H18F12071   1.134   3.533   8.753  2.3913  0.5836  3.6070
  115OSM   H18G12072   1.141   3.697   8.807 -0.7635 -0.1970  0.6554
  115OSM   H18H12073   1.275   3.641   8.709 -0.8700 -1.4653  1.3772
  116OSM      N12074   6.575   0.921   5.971  0.4066  0.1325 -0.0153
  116OSM    C1512075   6.578   0.780   5.913 -0.4746  0.2821 -0.3059
  116OSM   H15A12076   6.557   0.784   5.807 -1.2351  0.4040 -0.1534
  116OSM   H15B12077   6.500   0.722   5.960 -0.7573  0.5645 -0.4230
  116OSM   H15C12078   6.667   0.723   5.934 -0.1193  1.1836  0.6759
  116OSM    C1412079   6.681   0.998   5.907 -0.3627  0.0740  0.7730
  116OSM   H14A12080   6.778   0.953   5.925  0.2796  0.7097 -1.0419
  116OSM   H14B12081   6.691   1.097   5.948 -0.6954  1.1176 -1.5679
  116OSM   H14C12082   6.652   1.003   5.803 -0.9200 -1.2463  0.8483
  116OSM    C1312083   6.443   0.980   5.940 -0.0611  0.5957 -0.3872
  116OSM   H13A12084   6.358   0.929   5.984 -0.3431 -1.4193 -3.1664
  116OSM   H13B12085   6.425   0.965   5.835  2.1605 -0.9936 -0.5679
  116OSM   H13C12086   6.436   1.087   5.952 -2.9321  0.5774 -1.3919
  116OSM    C1212087   6.588   0.918   6.120  0.3856  0.2739  0.4266
  116OSM   H12A12088   6.678   0.863   6.142  0.8568 -0.8862 -3.9557
  116OSM   H12B12089   6.519   0.852   6.171  0.2395 -0.4883 -0.7416
  116OSM    C1112090   6.599   1.049   6.199 -0.1320  0.2197 -0.0755
  116OSM   H11A12091   6.577   1.036   6.307 -2.8736  0.7025 -0.5383
  116OSM   H11B12092   6.515   1.113   6.164 -1.3815 -0.1033  2.2493
  116OSM      P12093   6.756   1.254   6.255  0.3248 -0.0854 -0.2138
  116OSM    O1312094   6.889   1.239   6.311 -0.1670  0.1730 -0.2112
  116OSM    O1412095   6.743   1.367   6.158 -0.3083 -0.1497 -0.1574
  116OSM    O1112096   6.651   1.283   6.358 -0.3040 -0.0760 -0.1115
  116OSM    O1212097   6.727   1.116   6.180  0.6391  0.3677  0.4035
  116OSM    C1S12098   6.663   1.220   6.487 -0.0612 -0.4000 -0.3939
  116OSM    H1S12099   6.761   1.251   6.530 -0.8107  0.1231  0.9546
  116OSM    H1T12100   6.668   1.109   6.483  0.2912 -0.4289  0.6883
  116OSM     NF12101   6.595   1.238   6.732  0.2983 -0.4070  0.4223
  116OSM    HNF12102   6.568   1.157   6.783  0.6057 -2.1011 -1.9923
  116OSM    C2S12103   6.552   1.260   6.590 -0.0761  0.2655  0.0690
  116OSM    H2S12104   6.533   1.369   6.582  1.0917  0.3897 -1.0726
  116OSM    C3S12105   6.418   1.190   6.552 -0.1410 -0.6934  0.0213
  116OSM    H3S12106   6.441   1.084   6.575  0.7057 -0.5298 -0.0638
  116OSM     O312107   6.376   1.204   6.419  0.4461 -0.1521  0.1141
  116OSM    HO312108   6.434   1.269   6.379 -0.6311  0.4333 -0.5353
  116OSM    C4S12109   6.311   1.233   6.652 -0.5950 -0.0830 -0.2491
  116OSM    H4S12110   6.299   1.161   6.734  1.5802  1.0361  1.0823
  116OSM    C5S12111   6.219   1.331   6.643 -0.5802  0.0183 -0.1805
  116OSM    H5S12112   6.222   1.388   6.550  0.7741 -0.3139 -0.3490
  116OSM    C6S12113   6.111   1.360   6.739  0.2597  0.0412 -0.1013
  116OSM    H6S12114   6.011   1.354   6.692  0.1563 -0.6395  0.1874
  116OSM    H6T12115   6.112   1.464   6.778  2.6645 -0.0991  0.2786
  116OSM    C7S12116   6.108   1.263   6.863  0.1959 -0.4726  0.4497
  116OSM    H7S12117   6.209   1.235   6.901 -0.2327  0.5358  2.3880
  116OSM    H7T12118   6.075   1.165   6.822 -0.7305  1.1272 -2.7631
  116OSM    C8S12119   6.013   1.302   6.977  0.3751  0.4992 -0.1964
  116OSM    H8S12120   5.952   1.214   7.006  0.8376  0.4605  0.6595
  116OSM    H8T12121   5.948   1.386   6.943 -1.0049  0.2877  1.8604
  116OSM    C9S12122   6.086   1.335   7.108 -0.1553  0.9146 -0.3300
  116OSM    H9S12123   6.139   1.433   7.105  0.5880  0.4671 -2.5006
  116OSM    H9T12124   6.162   1.256   7.122  0.2182  1.0773 -1.3633
  116OSM   C10S12125   5.984   1.352   7.227 -0.6449  0.0638 -0.1691
  116OSM   H10S12126   5.894   1.289   7.212 -0.7059  0.4920 -1.7262
  116OSM   H10T12127   5.942   1.455   7.225 -0.8194 -0.0176 -1.3639
  116OSM   C11S12128   6.053   1.323   7.355 -0.4217  0.8665 -0.1799
  116OSM   H11S12129   6.150   1.377   7.358 -1.4207  2.6723  0.2446
  116OSM   H11T12130   6.076   1.215   7.360 -0.4583  0.8246 -0.8665
  116OSM   C12S12131   5.962   1.367   7.472 -0.1827 -0.9872  0.1315
  116OSM   H12S12132   5.864   1.315   7.461 -0.0843 -1.8478  2.7772
  116OSM   H12T12133   5.952   1.476   7.459 -3.1105 -1.4018 -1.3674
  116OSM   C13S12134   6.025   1.357   7.609 -0.1878  0.0100  0.5372
  116OSM   H13S12135   6.129   1.395   7.603 -0.2274  0.4953  2.4346
  116OSM   H13T12136   6.042   1.249   7.626 -0.6498 -0.2693 -0.7577
  116OSM   C14S12137   5.935   1.419   7.715 -0.7035 -0.9586  0.0493
  116OSM   H14S12138   5.841   1.359   7.713  0.0848 -2.3633  2.2510
  116OSM   H14T12139   5.925   1.525   7.685  0.5579 -0.5750  0.9656
  116OSM   C15S12140   6.007   1.424   7.851  0.2304  0.1501  0.2191
  116OSM   H15S12141   6.092   1.492   7.829  0.2619 -0.8630 -3.1929
  116OSM   H15T12142   6.045   1.322   7.875  0.5498 -0.0464 -1.0804
  116OSM   C16S12143   5.907   1.468   7.962  0.1484 -0.4195 -0.5485
  116OSM   H16S12144   5.849   1.556   7.926  0.4124 -0.6260 -1.4869
  116OSM   H16T12145   5.965   1.497   8.053 -0.6414 -0.0312 -0.1557
  116OSM   C17S12146   5.822   1.349   8.007 -0.3357 -0.3972 -0.4919
  116OSM   H17S12147   5.903   1.286   8.049 -0.4484 -0.4038 -0.2805
  116OSM   H17T12148   5.782   1.297   7.918 -1.4907 -0.7717  0.2209
  116OSM   C18S12149   5.708   1.373   8.105 -0.0742 -0.0997 -0.4870
  116OSM   H18S12150   5.743   1.393   8.209 -3.1229 -1.0797  0.7688
  116OSM   H18T12151   5.643   1.285   8.123 -0.6833  0.8821  2.4139
  116OSM   H18U12152   5.650   1.460   8.067  1.0475  0.9399  0.1527
  116OSM    C1F12153   6.703   1.292   6.788 -0.6173 -0.3035  0.8319
  116OSM     OF12154   6.754   1.390   6.738 -1.0234 -0.2487 -0.3674
  116OSM    C2F12155   6.743   1.229   6.916 -0.1810  0.3392  0.7423
  116OSM    H2F12156   6.764   1.120   6.904 -0.4760  0.4989 -1.3986
  116OSM    H2G12157   6.656   1.241   6.984  0.1358 -0.9485  1.3980
  116OSM    C3F12158   6.867   1.292   6.974 -0.2610 -0.1485 -0.3669
  116OSM    H3F12159   6.863   1.402   6.989 -0.1186 -0.1163 -0.5548
  116OSM    H3G12160   6.950   1.286   6.900  3.7847  2.6545  3.5898
  116OSM    C4F12161   6.897   1.225   7.109  0.1671  0.1053  0.3842
  116OSM    H4F12162   6.912   1.115   7.095 -1.3937 -0.4169  2.5849
  116OSM    H4G12163   6.810   1.233   7.177  0.6735  1.6968  0.8597
  116OSM    C5F12164   7.028   1.269   7.171  0.2190  0.0084 -0.5292
  116OSM    H5F12165   7.012   1.376   7.196  2.0456 -0.5532  3.3334
  116OSM    H5G12166   7.111   1.269   7.097  0.0182  0.0307 -0.7601
  116OSM    C6F12167   7.054   1.207   7.307 -0.2612  0.1313 -0.2487
  116OSM    H6F12168   7.102   1.109   7.289 -2.1404 -1.3215  2.2859
  116OSM    H6G12169   6.967   1.193   7.376 -0.2102  1.1101  0.0340
  116OSM    C7F12170   7.135   1.288   7.405  0.3319 -0.0477 -0.1238
  116OSM    H7F12171   7.107   1.395   7.415  2.0931  0.3341  0.9794
  116OSM    H7G12172   7.238   1.288   7.363  0.7228 -1.6894  0.7893
  116OSM    C8F12173   7.140   1.218   7.542  1.0130  0.0104  0.3450
  116OSM    H8F12174   7.163   1.111   7.520  3.6745  0.5505  0.3424
  116OSM    H8G12175   7.036   1.222   7.580  0.9046 -0.6662  0.1336
  116OSM    C9F12176   7.239   1.290   7.631 -0.1222 -0.8172 -0.7856
  116OSM    H9F12177   7.323   1.337   7.577 -0.9754  0.0327 -1.3870
  116OSM   C10F12178   7.231   1.306   7.762  0.1923  0.7346 -0.0077
  116OSM   H10F12179   7.317   1.344   7.820  1.0984  0.2116 -0.9810
  116OSM   C11F12180   7.126   1.250   7.855  0.2430  0.3979 -1.1554
  116OSM   H11F12181   7.156   1.161   7.914 -2.2676 -1.3333 -2.3878
  116OSM   H11G12182   7.037   1.218   7.797 -1.7629  2.3635  0.7467
  116OSM   C12F12183   7.061   1.350   7.948  0.6117 -0.3801 -0.1124
  116OSM   H12F12184   6.964   1.309   7.983  1.9321 -2.8471  0.7346
  116OSM   H12G12185   7.045   1.440   7.884 -0.3441 -1.0427 -0.8187
  116OSM   C13F12186   7.142   1.383   8.076  0.0721 -0.7164 -0.4021
  116OSM   H13F12187   7.107   1.479   8.120  0.0980 -1.1716  0.6092
  116OSM   H13G12188   7.246   1.404   8.043 -0.4793  0.9392 -1.1401
  116OSM   C14F12189   7.146   1.284   8.187 -0.2710 -0.4632 -0.0472
  116OSM   H14F12190   7.224   1.207   8.168  0.6304  0.6800 -0.9623
  116OSM   H14G12191   7.054   1.221   8.186  0.3369 -1.3840  0.7183
  116OSM   C15F12192   7.168   1.334   8.330 -0.0981 -0.2857 -0.6239
  116OSM   H15F12193   7.071   1.378   8.363  0.6519  0.3554  0.7740
  116OSM   H15G12194   7.237   1.421   8.335  0.9650 -1.1928  1.1904
  116OSM   C16F12195   7.198   1.219   8.423 -0.0766 -0.4997 -0.0650
  116OSM   H16F12196   7.304   1.194   8.405 -0.0836 -0.3916 -0.2487
  116OSM   H16G12197   7.135   1.133   8.393 -2.5792  0.5611  1.9095
  116OSM   C17F12198   7.181   1.251   8.569  0.9296  0.0637 -0.1157
  116OSM   H17F12199   7.220   1.354   8.584  0.9476  0.0065  0.2465
  116OSM   H17G12200   7.235   1.186   8.642  1.6700  3.1595  2.2267
  116OSM   C18F12201   7.036   1.239   8.611  0.1022 -0.4165  0.0872
  116OSM   H18F12202   7.029   1.266   8.718  2.3461 -2.0613  0.6984
  116OSM   H18G12203   6.991   1.137   8.612  1.6457 -1.1098  0.4108
  116OSM   H18H12204   6.970   1.308   8.553  1.8187  1.2881  0.1417
  117OSM      N12205   5.776   2.998   6.377  0.0028 -0.1211  0.1211
  117OSM    C1512206   5.823   3.032   6.238 -0.7901  0.5476 -0.4912
  117OSM   H15A12207   5.822   3.140   6.241 -0.2976  0.5676 -1.2024
  117OSM   H15B12208   5.743   3.004   6.171 -2.3077  1.8267  0.7316
  117OSM   H15C12209   5.917   2.992   6.203 -1.0386 -0.5060  0.0194
  117OSM    C1412210   5.748   2.850   6.371  0.2237 -0.3166 -0.2431
  117OSM   H14A12211   5.667   2.831   6.303  0.6332 -1.1545 -0.4972
  117OSM   H14B12212   5.711   2.807   6.463 -0.1248 -0.1404 -0.2979
  117OSM   H14C12213   5.838   2.802   6.334  1.1938  1.1772  0.1105
  117OSM    C1312214   5.886   3.026   6.471 -0.6626 -1.0745  0.0803
  117OSM   H13A12215   5.970   2.962   6.447  0.5840  0.5533  0.0364
  117OSM   H13B12216   5.870   2.996   6.573  1.1788  0.2190  0.7821
  117OSM   H13C12217   5.917   3.129   6.463 -3.8065 -0.1583 -0.6623
  117OSM    C1212218   5.645   3.063   6.412  0.5687  0.2804  0.5992
  117OSM   H12A12219   5.603   3.018   6.500  0.5216 -1.1485 -0.1371
  117OSM   H12B12220   5.572   3.045   6.335  0.1978  0.0230  1.0123
  117OSM    C1112221   5.660   3.214   6.442 -0.0677 -0.7250 -0.0620
  117OSM   H11A12222   5.698   3.234   6.544  1.1793  0.0221 -0.6591
  117OSM   H11B12223   5.559   3.259   6.442  1.9210  3.9743 -0.6251
  117OSM      P12224   5.860   3.387   6.394  0.3706 -0.0152  0.0535
  117OSM    O1312225   5.941   3.322   6.504  0.3327  0.2750 -0.6575
  117OSM    O1412226   5.938   3.426   6.275  0.3072  0.0037  0.2223
  117OSM    O1112227   5.783   3.515   6.447 -0.0194  0.5771 -0.0349
  117OSM    O1212228   5.742   3.295   6.352 -0.3687  0.8499 -0.2575
  117OSM    C1S12229   5.727   3.531   6.577  0.2656 -0.1736  0.0683
  117OSM    H1S12230   5.743   3.438   6.636  2.1223 -0.0993 -0.2965
  117OSM    H1T12231   5.619   3.556   6.570  0.6824  2.8194  2.9065
  117OSM     NF12232   5.777   3.645   6.794 -0.2106  0.4355  0.6557
  117OSM    HNF12233   5.715   3.707   6.842 -2.1402 -2.0869  1.5158
  117OSM    C2S12234   5.788   3.656   6.650 -0.4401  0.2772  0.5852
  117OSM    H2S12235   5.897   3.656   6.633 -0.6659  1.2732 -0.9508
  117OSM    C3S12236   5.733   3.778   6.578 -0.1502  0.4330 -0.0226
  117OSM    H3S12237   5.623   3.791   6.574 -0.2447 -0.2436  0.2818
  117OSM     O312238   5.767   3.787   6.436 -0.6145  0.4323  0.3558
  117OSM    HO312239   5.784   3.695   6.414  2.2199  1.2891 -1.2030
  117OSM    C4S12240   5.783   3.899   6.650 -0.5962 -0.0010 -0.5796
  117OSM    H4S12241   5.704   3.951   6.705 -0.7768 -1.4701  0.5828
  117OSM    C5S12242   5.911   3.952   6.650 -0.0585 -0.5835  0.4644
  117OSM    H5S12243   5.998   3.908   6.599  1.5248 -0.3424  2.8686
  117OSM    C6S12244   5.942   4.075   6.736 -0.4041 -0.6260 -0.0567
  117OSM    H6S12245   5.847   4.123   6.768  0.3817  0.3837  0.7993
  117OSM    H6T12246   5.998   4.145   6.672  1.8666  0.1444  2.6636
  117OSM    C7S12247   6.019   4.055   6.867  0.1725 -0.4340 -0.1754
  117OSM    H7S12248   6.051   4.157   6.896 -3.4310  0.6717  0.2109
  117OSM    H7T12249   6.110   3.996   6.843 -0.0993 -1.2000  0.6225
  117OSM    C8S12250   5.928   3.975   6.969  0.8350  0.3666 -0.4627
  117OSM    H8S12251   5.927   3.869   6.937  1.3771  0.9998 -2.7193
  117OSM    H8T12252   5.825   4.015   6.966  0.8524  0.3211 -2.0323
  117OSM    C9S12253   5.982   3.979   7.116 -0.1354 -0.2369  0.5146
  117OSM    H9S12254   5.980   4.088   7.137  2.4926 -0.4306  1.9846
  117OSM    H9T12255   6.090   3.953   7.114  0.8453  3.5764 -0.7464
  117OSM   C10S12256   5.905   3.902   7.225  0.1489  0.0708  0.1650
  117OSM   H10S12257   5.912   3.792   7.210  1.5063 -0.0360  1.4365
  117OSM   H10T12258   5.801   3.941   7.231  0.2008  0.3241 -0.5206
  117OSM   C11S12259   5.956   3.937   7.360 -0.3693 -0.2042 -0.4536
  117OSM   H11S12260   5.950   4.047   7.356  1.2147  0.0373  2.4003
  117OSM   H11T12261   6.062   3.920   7.386 -1.2851 -0.6082  3.2717
  117OSM   C12S12262   5.876   3.882   7.485  0.1054 -0.2831 -0.5089
  117OSM   H12S12263   5.888   3.772   7.492  0.7652 -0.1310  1.0805
  117OSM   H12T12264   5.771   3.916   7.477  0.4907  1.3819  1.1119
  117OSM   C13S12265   5.916   3.950   7.618  0.2275  0.7766 -0.6371
  117OSM   H13S12266   5.925   4.059   7.599  0.1536  1.1200  1.1552
  117OSM   H13T12267   6.014   3.920   7.662  1.1250  1.6881 -1.9933
  117OSM   C14S12268   5.798   3.947   7.715  0.0077  0.2972  0.5870
  117OSM   H14S12269   5.774   3.849   7.761  1.9288  0.1789  1.3681
  117OSM   H14T12270   5.712   3.993   7.662  0.0659  0.7164  0.8503
  117OSM   C15S12271   5.834   4.039   7.827  0.5322  0.2834 -0.4251
  117OSM   H15S12272   5.855   4.143   7.795 -1.4277  0.3080 -1.7651
  117OSM   H15T12273   5.933   4.002   7.862  1.8845  2.7229 -1.4785
  117OSM   C16S12274   5.724   4.046   7.937 -0.3335  0.6073  0.0195
  117OSM   H16S12275   5.721   3.946   7.985 -0.0159  0.5343 -0.1035
  117OSM   H16T12276   5.627   4.060   7.886 -0.0573  0.6381 -0.5123
  117OSM   C17S12277   5.759   4.139   8.051  0.6093 -0.4144  0.5480
  117OSM   H17S12278   5.739   4.245   8.024  0.8788 -0.0310  1.8146
  117OSM   H17T12279   5.867   4.149   8.071  0.0575 -0.4101  3.7438
  117OSM   C18S12280   5.681   4.114   8.185 -0.0750 -0.4331  1.3212
  117OSM   H18S12281   5.572   4.110   8.160  0.0322  3.8459 -0.2808
  117OSM   H18T12282   5.698   4.198   8.255  2.3743 -1.7898  2.4217
  117OSM   H18U12283   5.713   4.014   8.221  0.3200 -0.5550  0.6501
  117OSM    C1F12284   5.842   3.550   6.867  0.0617 -0.4894  0.5835
  117OSM     OF12285   5.906   3.464   6.811 -0.0479 -0.3256 -0.0777
  117OSM    C2F12286   5.824   3.555   7.015 -0.1497  0.0062  0.7189
  117OSM    H2F12287   5.718   3.539   7.045 -0.0286 -2.1433  0.0817
  117OSM    H2G12288   5.854   3.655   7.051  1.4514  0.3677 -1.4984
  117OSM    C3F12289   5.912   3.450   7.086  0.7271  0.2810 -0.4997
  117OSM    H3F12290   6.020   3.458   7.061  0.2705  1.6575 -2.0789
  117OSM    H3G12291   5.880   3.346   7.062 -2.3384  0.7125  1.3772
  117OSM    C4F12292   5.918   3.448   7.244  0.2774  0.0417  0.0398
  117OSM    H4F12293   5.974   3.537   7.280 -2.3211  1.7878 -0.1258
  117OSM    H4G12294   5.982   3.363   7.278 -1.4465 -1.0821  0.5141
  117OSM    C5F12295   5.787   3.461   7.316 -0.1236 -0.1801 -0.1101
  117OSM    H5F12296   5.732   3.365   7.314 -1.6755  0.6651  1.0085
  117OSM    H5G12297   5.728   3.547   7.277  0.3921  0.8110  1.2248
  117OSM    C6F12298   5.806   3.479   7.470  0.3870  1.1153  0.5206
  117OSM    H6F12299   5.871   3.568   7.485 -0.6869  2.2379 -1.2057
  117OSM    H6G12300   5.845   3.388   7.519  0.1678 -0.2050 -1.7242
  117OSM    C7F12301   5.668   3.507   7.540  0.0674  0.3275 -0.0111
  117OSM    H7F12302   5.588   3.449   7.489 -0.5024  1.1069 -0.0176
  117OSM    H7G12303   5.641   3.613   7.521 -0.2448  0.2301 -0.1093
  117OSM    C8F12304   5.668   3.466   7.689 -0.3090 -0.0378  1.1129
  117OSM    H8F12305   5.696   3.359   7.693  1.1960  0.3159  0.4688
  117OSM    H8G12306   5.562   3.485   7.715 -0.7347  2.0723 -1.8651
  117OSM    C9F12307   5.766   3.548   7.764 -0.2851  0.3487 -0.5842
  117OSM    H9F12308   5.865   3.555   7.718  0.2733  0.6269  0.6314
  117OSM   C10F12309   5.740   3.600   7.882  0.1335 -0.5988  0.0063
  117OSM   H10F12310   5.821   3.660   7.926 -0.2284  1.1580 -1.6756
  117OSM   C11F12311   5.611   3.585   7.960 -0.5981 -0.4369 -0.3909
  117OSM   H11F12312   5.520   3.545   7.910  0.0804 -0.4196 -1.6669
  117OSM   H11G12313   5.591   3.682   8.010 -0.8108 -0.2738 -0.7830
  117OSM   C12F12314   5.629   3.492   8.080 -0.4175 -0.5259 -0.5227
  117OSM   H12F12315   5.721   3.516   8.137 -1.5274  0.6269  0.8516
  117OSM   H12G12316   5.637   3.384   8.055  1.5001 -0.1891 -1.4086
  117OSM   C13F12317   5.516   3.512   8.196 -0.0967  0.5147  0.1128
  117OSM   H13F12318   5.422   3.532   8.139 -0.0463 -1.3629 -0.6560
  117OSM   H13G12319   5.541   3.606   8.248  1.6382  0.3108 -0.3105
  117OSM   C14F12320   5.498   3.391   8.289 -0.3995  0.3479 -0.2636
  117OSM   H14F12321   5.595   3.365   8.336 -0.2329 -0.6289 -1.1336
  117OSM   H14G12322   5.484   3.316   8.208 -2.5521  0.2819  0.1426
  117OSM   C15F12323   5.382   3.402   8.386 -0.1472 -0.1058  0.0898
  117OSM   H15F12324   5.404   3.311   8.445  1.1886 -0.6784 -1.2619
  117OSM   H15G12325   5.280   3.375   8.349 -0.3801  0.6632  0.1653
  117OSM   C16F12326   5.355   3.525   8.469 -0.6909  0.4880 -0.2152
  117OSM   H16F12327   5.355   3.623   8.417  2.2390  0.5578 -0.1661
  117OSM   H16G12328   5.437   3.534   8.544  1.0045 -0.7095 -1.8708
  117OSM   C17F12329   5.214   3.533   8.537 -0.6367 -0.0426 -0.8664
  117OSM   H17F12330   5.199   3.451   8.611  1.1855  1.2011  0.9698
  117OSM   H17G12331   5.217   3.627   8.596 -1.8943 -0.7957  0.4406
  117OSM   C18F12332   5.092   3.540   8.451  0.1274 -0.6991 -0.2987
  117OSM   H18F12333   5.090   3.637   8.399 -0.1686 -0.9261 -0.7117
  117OSM   H18G12334   5.006   3.523   8.519  0.8151 -0.6013  0.6106
  117OSM   H18H12335   5.080   3.458   8.377  1.5362 -1.8481  0.7171
  118OSM      N12336   1.274   4.771   6.044 -0.2018 -0.3985  0.0886
  118OSM    C1512337   1.382   4.862   6.010  0.2004  0.0185 -0.2798
  118OSM   H15A12338   1.420   4.855   5.910  1.0177  0.0595  0.0246
  118OSM   H15B12339   1.465   4.846   6.077  0.1803  1.5840  0.1252
  118OSM   H15C12340   1.338   4.959   6.027  2.3721  1.1560 -1.0201
  118OSM    C1412341   1.162   4.810   5.965 -0.7472  0.2567  0.3047
  118OSM   H14A12342   1.083   4.736   5.960 -0.7918  0.2891  0.5535
  118OSM   H14B12343   1.185   4.821   5.860  0.2177  1.5929  0.6466
  118OSM   H14C12344   1.127   4.909   5.990 -1.1135  0.1807  0.0986
  118OSM    C1312345   1.323   4.639   6.015 -0.0356  0.3800 -0.7136
  118OSM   H13A12346   1.417   4.612   6.062 -0.7921 -0.1503  0.5319
  118OSM   H13B12347   1.342   4.620   5.910  1.7634 -0.1335 -0.3067
  118OSM   H13C12348   1.243   4.572   6.045  0.4159  0.7135  1.2934
  118OSM    C1212349   1.239   4.778   6.188 -0.0394 -0.2526  0.3914
  118OSM   H12A12350   1.334   4.772   6.239 -0.7939  0.8080  1.9596
  118OSM   H12B12351   1.188   4.695   6.234 -0.7458  0.3283  0.6753
  118OSM    C1112352   1.179   4.909   6.250  0.5344 -0.3318 -0.0538
  118OSM   H11A12353   1.182   4.897   6.360 -1.9218  0.4121  0.1085
  118OSM   H11B12354   1.074   4.909   6.214  0.6500  0.5689 -0.4118
  118OSM      P12355   1.382   5.072   6.283 -0.3045  0.1382 -0.1667
  118OSM    O1312356   1.477   4.962   6.286 -0.3735  0.2245  0.0397
  118OSM    O1412357   1.421   5.192   6.213 -0.7629  0.5282 -0.0919
  118OSM    O1112358   1.339   5.109   6.430 -0.3300  0.0736  0.3306
  118OSM    O1212359   1.241   5.030   6.212 -0.1435 -0.1402  0.4131
  118OSM    C1S12360   1.400   5.034   6.536  0.3145  0.5565 -0.2046
  118OSM    H1S12361   1.507   5.016   6.515 -0.0187 -0.3155 -1.1892
  118OSM    H1T12362   1.347   4.937   6.544 -2.1776  1.7582 -1.5199
  118OSM     NF12363   1.487   5.043   6.777 -0.0816  0.5974  0.5073
  118OSM    HNF12364   1.450   4.987   6.851 -0.1788 -0.0478 -0.0206
  118OSM    C2S12365   1.395   5.109   6.682  0.0012  0.2846 -0.2860
  118OSM    H2S12366   1.428   5.213   6.663 -0.6513  1.0943  2.7748
  118OSM    C3S12367   1.243   5.116   6.725  0.2375 -0.0226 -0.3604
  118OSM    H3S12368   1.217   5.008   6.734  0.3997 -0.2807 -2.6611
  118OSM     O312369   1.151   5.168   6.626 -0.0734 -0.1120 -0.0735
  118OSM    HO312370   1.199   5.151   6.545  0.0904 -1.4693  0.3034
  118OSM    C4S12371   1.236   5.198   6.861 -0.4197  0.4717  0.4661
  118OSM    H4S12372   1.271   5.145   6.951  0.0748  1.3483  0.7924
  118OSM    C5S12373   1.204   5.331   6.877 -0.0000  0.0689 -0.4085
  118OSM    H5S12374   1.176   5.385   6.786 -1.5552 -1.7761 -1.0636
  118OSM    C6S12375   1.204   5.405   7.014 -0.2284 -0.0924 -0.1327
  118OSM    H6S12376   1.099   5.427   7.046 -0.5296 -1.4864 -0.1184
  118OSM    H6T12377   1.269   5.494   7.006 -0.6460  0.4270  2.0341
  118OSM    C7S12378   1.250   5.330   7.137  0.8867  0.1572 -0.7722
  118OSM    H7S12379   1.361   5.329   7.137  0.9127 -0.6802  1.7986
  118OSM    H7T12380   1.210   5.226   7.137  1.0799  0.0636  1.7105
  118OSM    C8S12381   1.223   5.388   7.278  0.1596  0.3442 -0.8057
  118OSM    H8S12382   1.114   5.396   7.296  0.2731  1.3069 -0.5405
  118OSM    H8T12383   1.265   5.491   7.280  0.4552  0.2445 -1.4401
  118OSM    C9S12384   1.287   5.312   7.390 -0.0333  0.1044  0.3789
  118OSM    H9S12385   1.394   5.334   7.366 -0.9359  2.5717 -1.6489
  118OSM    H9T12386   1.266   5.203   7.394  0.1755  0.0691  0.5718
  118OSM   C10S12387   1.254   5.380   7.528 -0.3512  0.5016 -0.2892
  118OSM   H10S12388   1.143   5.373   7.534 -0.2401 -1.8414 -0.5615
  118OSM   H10T12389   1.279   5.488   7.529 -1.8722  0.9149 -2.5927
  118OSM   C11S12390   1.328   5.317   7.645  0.0234  0.5288  0.3747
  118OSM   H11S12391   1.434   5.347   7.633  0.1865 -0.7853 -1.7090
  118OSM   H11T12392   1.317   5.207   7.637  0.8270  0.5193 -0.6598
  118OSM   C12S12393   1.271   5.357   7.779  1.0818 -0.2412  0.2468
  118OSM   H12S12394   1.162   5.335   7.783  0.9672 -0.0599 -1.3516
  118OSM   H12T12395   1.292   5.466   7.788  3.2441 -0.4562 -1.6656
  118OSM   C13S12396   1.335   5.275   7.892 -0.2337 -0.4412  0.6398
  118OSM   H13S12397   1.441   5.295   7.916  0.0964  0.2270 -1.2592
  118OSM   H13T12398   1.337   5.167   7.865  0.1133 -0.4218  0.5926
  118OSM   C14S12399   1.248   5.291   8.021 -0.2062 -0.1782 -0.3701
  118OSM   H14S12400   1.143   5.271   7.988  0.0245  1.4760 -2.2226
  118OSM   H14T12401   1.255   5.390   8.070 -1.3827 -0.9595  1.4582
  118OSM   C15S12402   1.277   5.177   8.121  0.0794  0.1438  0.1633
  118OSM   H15S12403   1.292   5.084   8.063  1.6442 -0.2569  1.1683
  118OSM   H15T12404   1.182   5.168   8.178  0.9461 -0.3831  1.5482
  118OSM   C16S12405   1.395   5.189   8.208  0.1426 -0.4366  0.2850
  118OSM   H16S12406   1.388   5.284   8.266 -1.5186  0.2140 -0.9180
  118OSM   H16T12407   1.486   5.185   8.145 -0.0018  2.0408 -0.1339
  118OSM   C17S12408   1.419   5.061   8.302 -0.5362 -0.1056  0.0662
  118OSM   H17S12409   1.524   5.040   8.331 -0.5813  0.6943  0.8098
  118OSM   H17T12410   1.382   4.977   8.238  1.6829  0.0889 -1.5126
  118OSM   C18S12411   1.350   5.087   8.435 -0.2673  0.0888  0.1432
  118OSM   H18S12412   1.385   5.188   8.468  0.4711  0.5567 -1.9983
  118OSM   H18T12413   1.366   5.002   8.504  0.3312  0.6264  0.6724
  118OSM   H18U12414   1.242   5.098   8.412  0.1870  1.3575 -1.4670
  118OSM    C1F12415   1.621   5.045   6.753 -0.2045  0.6793  0.1865
  118OSM     OF12416   1.676   5.088   6.651  0.2508 -0.0205 -0.6193
  118OSM    C2F12417   1.707   4.986   6.858  0.2160  0.8710 -0.4013
  118OSM    H2F12418   1.776   4.915   6.807 -0.7872  0.1874 -0.8278
  118OSM    H2G12419   1.642   4.924   6.923  0.0766  0.1014 -1.2638
  118OSM    C3F12420   1.791   5.081   6.939 -0.1111 -0.6701 -0.3621
  118OSM    H3F12421   1.721   5.153   6.987  2.1285  0.9579  0.5667
  118OSM    H3G12422   1.858   5.148   6.881  0.4236 -0.6844  0.2230
  118OSM    C4F12423   1.890   5.016   7.038 -0.3522 -0.6290 -0.2354
  118OSM    H4F12424   1.960   5.096   7.071 -0.3509 -0.5681 -0.3867
  118OSM    H4G12425   1.951   4.936   6.992 -0.5996  0.5922 -2.7711
  118OSM    C5F12426   1.814   4.958   7.161 -0.0010  0.5875  0.7698
  118OSM    H5F12427   1.751   4.875   7.122  2.4605 -0.8651 -0.2313
  118OSM    H5G12428   1.750   5.042   7.195  1.1362  0.6672  2.8174
  118OSM    C6F12429   1.893   4.920   7.292 -0.7599  0.0628 -0.2095
  118OSM    H6F12430   1.946   4.825   7.269 -1.0062  0.2045 -1.3591
  118OSM    H6G12431   1.822   4.899   7.375 -1.2854 -1.6258 -1.0660
  118OSM    C7F12432   1.996   5.027   7.336  0.5914 -0.8102 -0.2843
  118OSM    H7F12433   1.940   5.124   7.337  1.0923 -0.5166 -0.3351
  118OSM    H7G12434   2.082   5.049   7.270 -0.3394 -0.4829 -1.4051
  118OSM    C8F12435   2.049   5.008   7.483 -0.1879  0.3704 -0.1209
  118OSM    H8F12436   2.123   5.084   7.517  0.2181 -1.2392  2.7987
  118OSM    H8G12437   2.113   4.917   7.477  1.2707  0.9655  4.3849
  118OSM    C9F12438   1.945   4.996   7.592 -0.6074  0.1774 -0.6861
  118OSM    H9F12439   1.889   5.087   7.618 -1.2497 -0.1631 -0.8706
  118OSM   C10F12440   1.915   4.891   7.663 -0.2308  0.0128 -0.4393
  118OSM   H10F12441   1.849   4.894   7.751  1.4635  0.6027  0.8310
  118OSM   C11F12442   1.970   4.754   7.651 -0.5066  0.7385 -0.2613
  118OSM   H11F12443   2.062   4.744   7.590  0.9555  1.1916  1.8039
  118OSM   H11G12444   1.888   4.690   7.612  1.7421 -1.4891 -1.4972
  118OSM   C12F12445   2.000   4.683   7.785 -0.2155 -0.3418 -0.1988
  118OSM   H12F12446   2.035   4.581   7.760 -0.5714 -0.7235  0.8155
  118OSM   H12G12447   1.905   4.676   7.842 -0.8509 -0.7447 -1.2903
  118OSM   C13F12448   2.110   4.747   7.867 -0.0251  0.0531 -0.2335
  118OSM   H13F12449   2.063   4.830   7.924 -1.9557  1.0636 -3.1444
  118OSM   H13G12450   2.186   4.799   7.805 -2.1770  1.0398 -2.1106
  118OSM   C14F12451   2.164   4.651   7.982  0.1651  0.1527  0.5552
  118OSM   H14F12452   2.230   4.581   7.926 -0.1941  0.8306 -0.7279
  118OSM   H14G12453   2.082   4.596   8.034 -1.0100 -1.2310 -2.5865
  118OSM   C15F12454   2.252   4.725   8.088  0.5024 -0.1684 -0.5976
  118OSM   H15F12455   2.267   4.649   8.168  1.1783 -0.9234 -1.4232
  118OSM   H15G12456   2.199   4.811   8.133  0.1892 -0.5336 -0.2675
  118OSM   C16F12457   2.392   4.769   8.030  0.1599  0.0773  0.0702
  118OSM   H16F12458   2.366   4.839   7.947  1.0081 -0.0419 -0.2988
  118OSM   H16G12459   2.435   4.676   7.988  0.0827  0.0347  0.0854
  118OSM   C17F12460   2.490   4.822   8.126 -0.5562  0.1032 -0.0258
  118OSM   H17F12461   2.454   4.918   8.168 -2.1171  0.0440 -1.1699
  118OSM   H17G12462   2.590   4.829   8.077 -1.4465 -1.7270 -2.2099
  118OSM   C18F12463   2.510   4.723   8.244 -0.6379 -0.4644 -0.6144
  118OSM   H18F12464   2.417   4.715   8.305 -0.3198 -1.3345 -0.2275
  118OSM   H18G12465   2.594   4.753   8.310 -0.6153 -1.6819 -0.0763
  118OSM   H18H12466   2.537   4.626   8.197  1.7174 -0.4214  0.5687
  119OSM      N12467   3.158   4.777   5.868  0.3957 -0.8361  0.5351
  119OSM    C1512468   3.037   4.844   5.932 -0.0639 -0.1694 -0.4282
  119OSM   H15A12469   2.955   4.823   5.864  1.6394 -0.4781 -2.4391
  119OSM   H15B12470   3.052   4.951   5.935  0.6177 -0.2812  0.3235
  119OSM   H15C12471   3.010   4.819   6.033  1.7318  0.8141  0.3059
  119OSM    C1412472   3.157   4.801   5.722  0.6174  0.4926 -0.6914
  119OSM   H14A12473   3.066   4.747   5.699  1.5519 -2.5028  2.2275
  119OSM   H14B12474   3.257   4.777   5.690  1.2022  1.8564  0.0682
  119OSM   H14C12475   3.135   4.905   5.705  0.9496  0.9521  1.5367
  119OSM    C1312476   3.285   4.837   5.928 -0.3003 -0.0422 -0.2043
  119OSM   H13A12477   3.307   4.935   5.887 -3.8457  0.4754 -1.0950
  119OSM   H13B12478   3.362   4.762   5.923  0.5720  0.7867  0.5773
  119OSM   H13C12479   3.274   4.835   6.035 -0.8893 -0.5326 -0.2715
  119OSM    C1212480   3.160   4.627   5.897  0.3511  0.1411  0.0245
  119OSM   H12A12481   3.165   4.606   6.003 -0.5949 -0.8299 -0.1197
  119OSM   H12B12482   3.236   4.571   5.845  0.4341  0.5731 -0.3184
  119OSM    C1112483   3.036   4.545   5.865  0.6417  0.1882  0.3510
  119OSM   H11A12484   3.022   4.528   5.757 -0.0808 -1.7140  0.7291
  119OSM   H11B12485   2.955   4.613   5.899  0.9871  0.1980  1.1772
  119OSM      P12486   2.922   4.352   5.979 -0.0639 -0.4570 -0.1636
  119OSM    O1312487   2.826   4.337   5.864 -0.1431  0.3663 -0.1051
  119OSM    O1412488   2.963   4.227   6.056 -0.0261  0.4162  0.3262
  119OSM    O1112489   2.858   4.450   6.080 -0.2533  0.3686 -0.2005
  119OSM    O1212490   3.051   4.430   5.943 -0.9847 -0.0617  0.0763
  119OSM    C1S12491   2.777   4.414   6.191 -0.1213 -0.2830 -0.4691
  119OSM    H1S12492   2.793   4.306   6.211  2.7456 -0.2049 -2.1679
  119OSM    H1T12493   2.671   4.435   6.163 -0.2282  0.0936  0.2076
  119OSM     NF12494   2.726   4.434   6.432  0.2121  0.1441  0.0128
  119OSM    HNF12495   2.660   4.495   6.474  0.4870  1.2055 -1.0548
  119OSM    C2S12496   2.813   4.493   6.323  0.0239  0.2739  0.5301
  119OSM    H2S12497   2.918   4.467   6.348  1.7782  4.7461 -1.6079
  119OSM    C3S12498   2.808   4.643   6.297 -0.2172 -0.2669 -0.2748
  119OSM    H3S12499   2.707   4.671   6.259 -0.9850 -2.0770  0.3520
  119OSM     O312500   2.913   4.681   6.201  0.6957  0.5485 -0.0382
  119OSM    HO312501   2.949   4.598   6.169  0.4176  1.2380 -2.1517
  119OSM    C4S12502   2.842   4.714   6.429 -0.3926 -0.1924 -0.0737
  119OSM    H4S12503   2.758   4.749   6.491  1.5532 -1.1454  3.1736
  119OSM    C5S12504   2.966   4.722   6.477  0.2026  0.1146 -0.5174
  119OSM    H5S12505   3.051   4.691   6.414  1.3921  1.5553  0.3565
  119OSM    C6S12506   3.004   4.791   6.608  0.5532  0.2174 -0.2415
  119OSM    H6S12507   2.972   4.897   6.596  0.3725  0.1650 -0.2197
  119OSM    H6T12508   3.111   4.777   6.634  0.4558  1.1151  0.7087
  119OSM    C7S12509   2.938   4.753   6.744  0.6805 -0.6556 -0.1163
  119OSM    H7S12510   2.833   4.787   6.758  0.4469 -1.6118  0.4834
  119OSM    H7T12511   2.996   4.794   6.830  1.6054  1.2548 -1.6097
  119OSM    C8S12512   2.956   4.603   6.760 -0.5451  0.7030 -0.8748
  119OSM    H8S12513   3.064   4.581   6.774 -0.9404 -0.1870  0.9073
  119OSM    H8T12514   2.925   4.553   6.666  0.1079  3.5093 -2.6500
  119OSM    C9S12515   2.887   4.542   6.889 -1.1234 -0.4307  0.1004
  119OSM    H9S12516   2.917   4.435   6.894 -4.1945 -1.3413  0.1287
  119OSM    H9T12517   2.779   4.555   6.867 -1.0648 -0.9049 -0.4667
  119OSM   C10S12518   2.923   4.611   7.014 -0.3850  0.1094 -0.7085
  119OSM   H10S12519   2.877   4.712   7.020  1.4779  0.9891 -0.7768
  119OSM   H10T12520   3.034   4.612   7.018 -0.3938 -0.9852 -0.1206
  119OSM   C11S12521   2.877   4.534   7.139  0.2467 -0.1032 -0.6276
  119OSM   H11S12522   2.932   4.438   7.148 -1.3531 -1.0543 -0.7192
  119OSM   H11T12523   2.768   4.512   7.138  0.5326 -1.6330  0.5801
  119OSM   C12S12524   2.909   4.605   7.270  0.3839  0.5128 -0.1053
  119OSM   H12S12525   2.865   4.707   7.268 -1.2211 -0.1448  1.2013
  119OSM   H12T12526   3.015   4.622   7.298 -0.1056  1.3911  1.2375
  119OSM   C13S12527   2.852   4.527   7.393  0.0975 -0.2233 -0.3265
  119OSM   H13S12528   2.888   4.422   7.393  0.4010 -0.1225 -1.8938
  119OSM   H13T12529   2.743   4.516   7.376  0.2343 -1.4105 -0.4306
  119OSM   C14S12530   2.872   4.600   7.525  0.1923  0.0208 -0.7205
  119OSM   H14S12531   2.979   4.600   7.554 -0.3195  0.3168  1.2635
  119OSM   H14T12532   2.835   4.522   7.594  0.0031  2.7515  2.4239
  119OSM   C15S12533   2.822   4.739   7.545 -0.0851 -0.3666  0.0230
  119OSM   H15S12534   2.712   4.749   7.549 -0.2356 -2.4715  2.3425
  119OSM   H15T12535   2.863   4.799   7.460  1.7542 -0.3050  0.9323
  119OSM   C16S12536   2.881   4.802   7.675  0.4624 -0.5533 -0.0010
  119OSM   H16S12537   2.991   4.808   7.664  0.2955  1.7158 -0.8318
  119OSM   H16T12538   2.857   4.754   7.772 -0.0225 -0.6369 -0.1605
  119OSM   C17S12539   2.828   4.948   7.693 -1.0539 -0.0387 -0.4219
  119OSM   H17S12540   2.743   4.961   7.622 -1.3516 -0.0506 -0.0675
  119OSM   H17T12541   2.905   5.017   7.652 -1.3818 -0.2645 -1.4356
  119OSM   C18S12542   2.765   4.970   7.822  0.6738  0.2443 -1.2221
  119OSM   H18S12543   2.720   5.070   7.840 -0.7804 -0.6883  0.5047
  119OSM   H18T12544   2.834   4.954   7.907  0.1100  2.8514 -0.2451
  119OSM   H18U12545   2.684   4.898   7.847  1.7733 -0.3410  0.7245
  119OSM    C1F12546   2.739   4.306   6.479  0.4799  0.3365 -0.3751
  119OSM     OF12547   2.832   4.242   6.434  0.4253 -0.5977 -0.2473
  119OSM    C2F12548   2.663   4.259   6.594 -0.2440 -0.1041 -0.0950
  119OSM    H2F12549   2.561   4.235   6.558 -0.0729 -1.2824  0.1859
  119OSM    H2G12550   2.675   4.333   6.676  1.0467  0.3676 -0.6981
  119OSM    C3F12551   2.722   4.118   6.630 -0.4579 -0.0523 -0.4616
  119OSM    H3F12552   2.820   4.136   6.680 -0.3217  2.6000 -1.5889
  119OSM    H3G12553   2.719   4.059   6.536  0.3515 -1.5794  0.4575
  119OSM    C4F12554   2.625   4.042   6.720 -0.1310  0.0222 -0.0686
  119OSM    H4F12555   2.669   3.942   6.738  1.4923  0.6022 -0.7021
  119OSM    H4G12556   2.528   4.039   6.665  0.7414  0.0925 -1.6438
  119OSM    C5F12557   2.596   4.108   6.854 -0.9050 -0.5784 -0.3541
  119OSM    H5F12558   2.488   4.089   6.871 -1.2826  1.2438 -0.6367
  119OSM    H5G12559   2.597   4.219   6.857 -0.9241 -0.6129  1.0695
  119OSM    C6F12560   2.695   4.069   6.977 -0.4582  0.6226  0.6160
  119OSM    H6F12561   2.797   4.108   6.953 -0.2528 -0.8123 -0.9318
  119OSM    H6G12562   2.711   3.959   6.980 -0.5588  0.6127  0.7394
  119OSM    C7F12563   2.649   4.116   7.105 -0.0716  0.1292 -0.2113
  119OSM    H7F12564   2.565   4.054   7.139  0.7197  0.1524  1.8495
  119OSM    H7G12565   2.609   4.219   7.096 -0.7377 -0.1881 -0.8806
  119OSM    C8F12566   2.751   4.123   7.221  0.0124  0.7025  0.6348
  119OSM    H8F12567   2.710   4.174   7.311  1.2376  2.3543  0.2858
  119OSM    H8G12568   2.832   4.191   7.185  1.0381 -0.8858 -0.1269
  119OSM    C9F12569   2.805   3.992   7.268 -0.4343  0.0130 -0.5773
  119OSM    H9F12570   2.754   3.902   7.230 -1.9285  0.4947  0.2744
  119OSM   C10F12571   2.906   3.976   7.354  0.5179  0.0692 -0.3520
  119OSM   H10F12572   2.926   3.871   7.376 -2.4732 -0.3838  0.3970
  119OSM   C11F12573   2.983   4.092   7.418 -0.2753 -0.2447 -0.1468
  119OSM   H11F12574   2.965   4.193   7.377  0.6131 -0.6101 -1.4701
  119OSM   H11G12575   3.093   4.078   7.415  0.1816  2.6930  0.8955
  119OSM   C12F12576   2.966   4.101   7.571  0.0585 -0.2183 -0.0021
  119OSM   H12F12577   3.020   4.196   7.593 -2.1233  1.1276 -0.3908
  119OSM   H12G12578   3.033   4.021   7.609  2.3340 -0.2212 -3.8032
  119OSM   C13F12579   2.819   4.110   7.616 -0.1302 -0.1477  0.2936
  119OSM   H13F12580   2.762   4.025   7.572 -0.7075  0.3212  0.1306
  119OSM   H13G12581   2.774   4.206   7.585 -1.8944 -0.2650  2.4346
  119OSM   C14F12582   2.806   4.112   7.772  0.7713  0.0041 -0.0220
  119OSM   H14F12583   2.874   4.191   7.811 -0.6900  2.2428 -1.8455
  119OSM   H14G12584   2.842   4.011   7.801  0.1568 -0.0672  0.5252
  119OSM   C15F12585   2.665   4.145   7.822  0.1727 -0.2350 -0.6934
  119OSM   H15F12586   2.655   4.111   7.927 -3.3933 -0.1050 -0.9272
  119OSM   H15G12587   2.592   4.084   7.764 -1.3962 -0.7012  1.6834
  119OSM   C16F12588   2.631   4.293   7.835 -0.5268 -0.1308 -0.0863
  119OSM   H16F12589   2.719   4.357   7.858 -0.5399  1.1112 -3.2441
  119OSM   H16G12590   2.552   4.310   7.911  1.2850 -0.4763  1.9130
  119OSM   C17F12591   2.575   4.354   7.710  0.6286  0.0269 -0.1510
  119OSM   H17F12592   2.485   4.297   7.681 -0.6947  1.8920  0.2216
  119OSM   H17G12593   2.648   4.351   7.626  1.0476 -1.5013  0.2408
  119OSM   C18F12594   2.535   4.504   7.730 -0.7859  0.8429 -0.1004
  119OSM   H18F12595   2.628   4.564   7.721  0.8879 -1.7014 -0.4198
  119OSM   H18G12596   2.491   4.527   7.829 -1.2461  1.7865 -0.5236
  119OSM   H18H12597   2.473   4.539   7.645 -0.6346 -0.3414 -0.7050
  120OSM      N12598   6.192   2.150   6.127 -0.0716  0.2751 -0.0355
  120OSM    C1512599   6.326   2.127   6.068  0.6963  0.2077 -0.3792
  120OSM   H15A12600   6.392   2.203   6.107  0.5847 -0.6428  1.4867
  120OSM   H15B12601   6.322   2.136   5.960  3.0690 -0.6485 -0.5690
  120OSM   H15C12602   6.369   2.032   6.093 -0.0473  0.0579  0.3297
  120OSM    C1412603   6.157   2.291   6.099  0.4300  0.5388 -0.0487
  120OSM   H14A12604   6.215   2.359   6.159 -0.8444  1.3449  0.3061
  120OSM   H14B12605   6.053   2.314   6.119  0.7932  1.9412  0.2575
  120OSM   H14C12606   6.165   2.319   5.995 -1.5397 -0.0471 -0.3784
  120OSM    C1312607   6.096   2.064   6.060  0.0937  0.0964  0.0864
  120OSM   H13A12608   5.997   2.073   6.103 -0.2653  1.2555 -0.9581
  120OSM   H13B12609   6.126   1.964   6.088 -0.4101 -0.1586 -0.2623
  120OSM   H13C12610   6.085   2.077   5.953 -0.4765  0.6213  0.2114
  120OSM    C1212611   6.194   2.132   6.278 -0.0881  0.1041 -0.0413
  120OSM   H12A12612   6.090   2.144   6.305 -0.2371  1.5268 -1.2020
  120OSM   H12B12613   6.256   2.204   6.330  1.2110  0.3619 -1.9132
  120OSM    C1112614   6.261   1.998   6.318 -0.2521  0.0542  0.9126
  120OSM   H11A12615   6.227   1.912   6.256  2.0541 -0.0287 -0.3021
  120OSM   H11B12616   6.235   1.959   6.419  0.2048  2.4264  1.9713
  120OSM      P12617   6.494   2.061   6.418 -0.0002 -0.3436 -0.6009
  120OSM    O1312618   6.635   2.066   6.371 -0.3666  0.4085  0.8480
  120OSM    O1412619   6.437   2.184   6.473  0.2868 -0.0359 -0.3029
  120OSM    O1112620   6.483   1.956   6.541 -0.4402 -0.1210 -0.1332
  120OSM    O1212621   6.404   2.011   6.304  0.4771  0.1927 -0.0160
  120OSM    C1S12622   6.602   1.879   6.560  0.2202  0.0928 -0.3203
  120OSM    H1S12623   6.685   1.949   6.580 -0.2277  0.1984  1.2796
  120OSM    H1T12624   6.638   1.822   6.472  1.0791  0.0799  0.0329
  120OSM     NF12625   6.728   1.758   6.729 -0.7006  0.1666 -0.2125
  120OSM    HNF12626   6.738   1.664   6.698 -1.7805 -0.1124  0.2678
  120OSM    C2S12627   6.593   1.802   6.689  0.3035  0.2839 -0.1533
  120OSM    H2S12628   6.553   1.874   6.763 -1.5917 -0.5006 -0.4038
  120OSM    C3S12629   6.487   1.687   6.669  0.8444 -0.2211 -0.2334
  120OSM    H3S12630   6.534   1.628   6.587 -0.2100  0.2762 -1.1877
  120OSM     O312631   6.358   1.729   6.621  0.2714  0.3146 -0.1750
  120OSM    HO312632   6.362   1.825   6.615 -1.1020  0.5346  1.7464
  120OSM    C4S12633   6.478   1.605   6.792  0.1308  1.0845  1.0104
  120OSM    H4S12634   6.553   1.526   6.808  0.7029  1.6196  1.0002
  120OSM    C5S12635   6.390   1.616   6.885  0.3261 -0.1672 -0.1852
  120OSM    H5S12636   6.297   1.674   6.882  1.9143  2.3701 -1.2140
  120OSM    C6S12637   6.391   1.532   7.007  0.7560 -0.1530  0.1406
  120OSM    H6S12638   6.343   1.434   6.987  1.6141 -0.6154  0.3651
  120OSM    H6T12639   6.326   1.588   7.079  1.3662 -0.4971  0.9700
  120OSM    C7S12640   6.527   1.510   7.064  0.1658 -0.5101 -0.2402
  120OSM    H7S12641   6.593   1.599   7.062 -0.5839  0.1027  1.5449
  120OSM    H7T12642   6.580   1.429   7.009  0.4679 -1.3821  1.3199
  120OSM    C8S12643   6.511   1.445   7.197 -0.5926 -0.1407 -0.1260
  120OSM    H8S12644   6.497   1.335   7.193 -2.4171  0.0890 -0.5489
  120OSM    H8T12645   6.423   1.493   7.246  0.7144  3.9146 -1.5893
  120OSM    C9S12646   6.636   1.459   7.282 -0.1305  0.2521  0.1458
  120OSM    H9S12647   6.669   1.564   7.269 -1.5266  0.4844 -1.5726
  120OSM    H9T12648   6.712   1.385   7.249  0.3310  0.9214 -0.3131
  120OSM   C10S12649   6.621   1.422   7.429  0.2114 -0.8341 -0.1807
  120OSM   H10S12650   6.596   1.315   7.444 -0.0231 -0.7432  0.0896
  120OSM   H10T12651   6.526   1.471   7.460  1.2968  0.3998  1.2863
  120OSM   C11S12652   6.739   1.464   7.519  0.3355  0.5883 -0.6274
  120OSM   H11S12653   6.739   1.574   7.537 -1.0608  0.5519 -0.3324
  120OSM   H11T12654   6.832   1.445   7.461 -0.2231  0.9965 -1.6600
  120OSM   C12S12655   6.750   1.391   7.658  0.8779  0.4067 -0.2461
  120OSM   H12S12656   6.847   1.413   7.708  0.8223  2.0635 -0.8357
  120OSM   H12T12657   6.743   1.281   7.651 -0.1401  0.3869  0.9348
  120OSM   C13S12658   6.643   1.429   7.757  0.7818  0.4188 -0.4194
  120OSM   H13S12659   6.544   1.396   7.719 -0.1711  1.2201  1.2650
  120OSM   H13T12660   6.639   1.540   7.764  1.6734  0.4008  0.5108
  120OSM   C14S12661   6.659   1.376   7.895  0.0726  0.0174 -0.7344
  120OSM   H14S12662   6.760   1.411   7.924  0.0056  0.1321 -0.6391
  120OSM   H14T12663   6.657   1.264   7.896 -1.1859  0.0390  0.0188
  120OSM   C15S12664   6.563   1.431   8.002  0.5216 -0.4218  0.0119
  120OSM   H15S12665   6.462   1.407   7.964  1.3998  0.3363 -2.9860
  120OSM   H15T12666   6.576   1.541   7.994 -1.6252 -0.1665 -0.3146
  120OSM   C16S12667   6.596   1.389   8.145 -0.3164 -0.2745  0.6502
  120OSM   H16S12668   6.620   1.281   8.142  0.4149 -0.0770 -1.0818
  120OSM   H16T12669   6.516   1.399   8.222 -0.7199  0.4365  0.1393
  120OSM   C17S12670   6.730   1.457   8.200  1.0752  0.3347 -0.2999
  120OSM   H17S12671   6.795   1.481   8.113 -0.3482  0.9352 -1.2138
  120OSM   H17T12672   6.779   1.377   8.259 -0.5310  0.1569  0.8243
  120OSM   C18S12673   6.709   1.586   8.288  0.6973 -0.5148  0.3844
  120OSM   H18S12674   6.798   1.595   8.353 -1.4399 -1.0024  3.4988
  120OSM   H18T12675   6.621   1.583   8.357  0.3202 -1.6876 -0.1314
  120OSM   H18U12676   6.704   1.668   8.214 -1.2088 -0.3000  0.7252
  120OSM    C1F12677   6.829   1.827   6.790 -0.1552  0.0777  0.3880
  120OSM     OF12678   6.834   1.951   6.794 -0.1038 -0.3517 -0.4292
  120OSM    C2F12679   6.938   1.731   6.837  0.0577 -0.1478 -0.0517
  120OSM    H2F12680   7.022   1.729   6.765  1.0241 -0.7000  1.0728
  120OSM    H2G12681   6.890   1.631   6.835 -1.3686  0.4946  1.0883
  120OSM    C3F12682   6.987   1.754   6.989  0.5339  0.2573  0.3284
  120OSM    H3F12683   6.989   1.864   7.006  1.2230 -0.0525  2.3987
  120OSM    H3G12684   7.088   1.708   6.990  0.7827  0.7513 -0.5612
  120OSM    C4F12685   6.891   1.698   7.097  0.1931 -0.1241 -0.0290
  120OSM    H4F12686   6.877   1.589   7.108  0.4756 -0.5026 -3.0103
  120OSM    H4G12687   6.792   1.739   7.066 -0.4045 -2.0152 -0.6584
  120OSM    C5F12688   6.927   1.750   7.243  0.1201  0.7689 -0.1177
  120OSM    H5F12689   6.838   1.727   7.306  0.5848 -3.8744 -1.0167
  120OSM    H5G12690   6.960   1.856   7.243  3.3045 -0.1781 -0.7598
  120OSM    C6F12691   7.039   1.673   7.304  0.3437  0.1127  0.4804
  120OSM    H6F12692   7.130   1.671   7.239 -0.2202  1.7738 -0.3805
  120OSM    H6G12693   7.008   1.566   7.308  1.2466 -0.1864 -0.2179
  120OSM    C7F12694   7.090   1.724   7.445 -0.3809  0.4383  0.7891
  120OSM    H7F12695   7.131   1.827   7.446 -0.9461  0.7116 -1.1354
  120OSM    H7G12696   7.176   1.658   7.471 -0.7805 -1.1489 -1.6492
  120OSM    C8F12697   6.994   1.709   7.563 -0.1701  0.2484  0.0623
  120OSM    H8F12698   6.937   1.616   7.541 -0.8115  0.9774 -1.4284
  120OSM    H8G12699   6.930   1.799   7.559  0.5004  0.7153 -0.2452
  120OSM    C9F12700   7.085   1.695   7.678 -0.0168  0.4330 -0.1199
  120OSM    H9F12701   7.128   1.595   7.690  1.0697  0.7293 -1.3408
  120OSM   C10F12702   7.125   1.790   7.766 -0.1753 -0.1134 -0.5079
  120OSM   H10F12703   7.186   1.756   7.851  0.3400 -1.5204 -1.4243
  120OSM   C11F12704   7.089   1.939   7.781  0.1696  0.2220 -0.0609
  120OSM   H11F12705   7.002   1.966   7.718 -0.0679 -0.1348  0.1063
  120OSM   H11G12706   7.187   1.982   7.754  1.6570 -3.0538 -0.1511
  120OSM   C12F12707   7.063   1.973   7.930 -0.5098  0.3624  1.0601
  120OSM   H12F12708   7.057   2.083   7.941  0.8253  0.3650  1.8893
  120OSM   H12G12709   7.150   1.945   7.993 -0.6806 -1.9663  0.3001
  120OSM   C13F12710   6.939   1.907   7.982  0.1718 -0.1624 -0.1346
  120OSM   H13F12711   6.948   1.796   7.980 -2.9857 -0.4673 -0.6883
  120OSM   H13G12712   6.863   1.949   7.913 -0.6565  0.0063  0.8664
  120OSM   C14F12713   6.910   1.949   8.130 -0.1238  0.2219  0.3541
  120OSM   H14F12714   6.968   2.042   8.150 -0.1737  0.8854 -2.3695
  120OSM   H14G12715   6.950   1.874   8.202 -1.3348 -0.3862  0.4098
  120OSM   C15F12716   6.769   1.979   8.168 -0.2453 -0.5778 -0.3584
  120OSM   H15F12717   6.704   1.893   8.140 -2.3538  1.6963 -2.7093
  120OSM   H15G12718   6.733   2.066   8.110 -2.5095 -2.3100 -1.6337
  120OSM   C16F12719   6.748   2.020   8.316  0.4715 -0.0719  0.6190
  120OSM   H16F12720   6.784   2.123   8.340 -0.1471 -0.1041  1.7342
  120OSM   H16G12721   6.804   1.953   8.384 -0.4417 -1.8299 -0.3414
  120OSM   C17F12722   6.599   1.994   8.341  0.6181  0.1090  0.1104
  120OSM   H17F12723   6.566   2.006   8.446  0.1514  0.7757 -0.1102
  120OSM   H17G12724   6.592   1.883   8.328  1.6525  0.0978 -0.3474
  120OSM   C18F12725   6.494   2.050   8.239 -0.1984 -0.1338 -0.1586
  120OSM   H18F12726   6.392   2.010   8.256 -0.0748 -0.3727  0.0146
  120OSM   H18G12727   6.513   2.035   8.130 -0.6783  0.8936 -0.3926
  120OSM   H18H12728   6.481   2.159   8.256 -0.7269 -0.4542  1.6073
  121OSM      N12729   1.940   3.877   5.965 -0.0335  0.1068  0.0870
  121OSM    C1512730   1.833   3.784   5.916 -0.4155 -0.1321 -0.4023
  121OSM   H15A12731   1.735   3.809   5.952 -1.0983  0.4665 -2.5702
  121OSM   H15B12732   1.848   3.686   5.959 -0.7757  0.3035  0.7284
  121OSM   H15C12733   1.827   3.778   5.808 -1.1624 -0.4627 -0.3429
  121OSM    C1412734   2.074   3.832   5.907  0.8318  0.0957 -0.9983
  121OSM   H14A12735   2.105   3.745   5.964  0.2084  0.0121 -0.7809
  121OSM   H14B12736   2.142   3.915   5.907 -0.7054  1.3883 -1.8645
  121OSM   H14C12737   2.052   3.791   5.809  1.4060  2.1233 -1.9971
  121OSM    C1312738   1.904   4.013   5.915 -0.0567 -0.2920 -0.0046
  121OSM   H13A12739   1.800   4.033   5.935  0.2383  0.7270  0.5599
  121OSM   H13B12740   1.924   4.028   5.810  0.0335 -0.7393 -0.0516
  121OSM   H13C12741   1.967   4.089   5.960  1.6630 -1.1515 -0.8917
  121OSM    C1212742   1.938   3.883   6.110  0.6261 -0.4532  0.4025
  121OSM   H12A12743   1.846   3.933   6.140 -0.3659 -0.6656 -2.1683
  121OSM   H12B12744   2.009   3.961   6.136 -1.8738  2.2085 -0.4518
  121OSM    C1112745   1.948   3.752   6.191  0.5091 -1.0578 -0.1161
  121OSM   H11A12746   1.869   3.677   6.170 -0.3818  0.1644 -1.2475
  121OSM   H11B12747   1.941   3.783   6.297 -0.4393 -1.2056 -0.1325
  121OSM      P12748   2.098   3.531   6.183 -0.1640  0.2410  0.3216
  121OSM    O1312749   2.020   3.458   6.079 -0.6933  0.1649 -0.8978
  121OSM    O1412750   2.243   3.500   6.198  0.3922  0.4474 -0.0570
  121OSM    O1112751   2.031   3.495   6.317  0.1578  0.0535  0.4376
  121OSM    O1212752   2.078   3.693   6.173  0.0576  0.0373  0.2700
  121OSM    C1S12753   2.095   3.498   6.445  0.9127 -0.2812 -0.5497
  121OSM    H1S12754   2.199   3.536   6.438  1.5951 -1.7974  1.1200
  121OSM    H1T12755   2.095   3.396   6.487 -2.2277 -0.0884 -0.0104
  121OSM     NF12756   2.060   3.611   6.653  0.0006  0.5017  0.6531
  121OSM    HNF12757   2.031   3.552   6.728  2.5090  0.4879  1.6530
  121OSM    C2S12758   1.999   3.589   6.530 -0.4010  0.1482 -0.2900
  121OSM    H2S12759   1.994   3.687   6.478  2.0677  0.7272  0.5030
  121OSM    C3S12760   1.868   3.512   6.532 -0.1580 -0.2934  0.0686
  121OSM    H3S12761   1.898   3.410   6.565  0.0604  0.0941  1.0897
  121OSM     O312762   1.790   3.500   6.414 -0.1445  0.7626  0.2347
  121OSM    HO312763   1.852   3.534   6.350  0.0985 -2.4465 -1.3427
  121OSM    C4S12764   1.781   3.574   6.631 -0.1942  0.5149  0.3130
  121OSM    H4S12765   1.781   3.684   6.633  0.3171  0.5837 -2.0726
  121OSM    C5S12766   1.683   3.508   6.704  0.3712 -0.7530  0.3845
  121OSM    H5S12767   1.666   3.400   6.689  2.3156 -1.1245  0.6927
  121OSM    C6S12768   1.600   3.589   6.802  0.5122  0.7938 -0.3837
  121OSM    H6S12769   1.501   3.618   6.762  0.2608  0.1158 -0.2536
  121OSM    H6T12770   1.643   3.690   6.822  1.1975  0.5011 -0.3664
  121OSM    C7S12771   1.587   3.517   6.942  0.0335  0.3419  0.2129
  121OSM    H7S12772   1.684   3.492   6.989  0.6931 -0.8141 -1.6762
  121OSM    H7T12773   1.547   3.415   6.925 -0.2687  0.2011  1.7184
  121OSM    C8S12774   1.492   3.597   7.032  0.2259  0.5085 -0.2604
  121OSM    H8S12775   1.392   3.588   6.984 -0.2601 -0.0364  0.8392
  121OSM    H8T12776   1.522   3.703   7.048 -1.9755  0.8490  1.8858
  121OSM    C9S12777   1.478   3.528   7.167 -0.0740  0.9791  0.0267
  121OSM    H9S12778   1.455   3.421   7.148  1.0440  0.8213 -0.4472
  121OSM    H9T12779   1.392   3.571   7.224  0.3834  1.7466  0.1449
  121OSM   C10S12780   1.603   3.523   7.258 -0.3069  0.3878  0.1850
  121OSM   H10S12781   1.619   3.621   7.308 -0.8872  0.4986  0.1574
  121OSM   H10T12782   1.696   3.492   7.205 -0.8274  0.4417 -0.7593
  121OSM   C11S12783   1.573   3.418   7.374 -0.0882 -0.2810 -0.2914
  121OSM   H11S12784   1.546   3.321   7.326  0.7973  0.1398 -1.6449
  121OSM   H11T12785   1.481   3.451   7.428  0.6801  2.0450 -0.3708
  121OSM   C12S12786   1.688   3.406   7.477 -0.0773  0.0657 -0.0098
  121OSM   H12S12787   1.698   3.472   7.566  0.1531 -1.7871  1.3510
  121OSM   H12T12788   1.787   3.431   7.432 -0.3678 -0.4166 -0.9283
  121OSM   C13S12789   1.702   3.264   7.531  0.0242 -0.8278  0.3232
  121OSM   H13S12790   1.780   3.258   7.610  0.6508  0.8645 -0.1346
  121OSM   H13T12791   1.736   3.197   7.450  1.1063  0.7532 -0.5742
  121OSM   C14S12792   1.571   3.221   7.593  0.2513 -0.4180  0.5287
  121OSM   H14S12793   1.487   3.253   7.527  0.8081 -2.2511 -1.1374
  121OSM   H14T12794   1.566   3.285   7.684 -0.4721  0.1274  0.1212
  121OSM   C15S12795   1.571   3.072   7.623 -0.3949 -0.3155 -0.2250
  121OSM   H15S12796   1.662   3.040   7.677  0.2950  2.3547  0.2560
  121OSM   H15T12797   1.572   3.015   7.527  0.6959  0.5101 -0.7242
  121OSM   C16S12798   1.447   3.037   7.708 -0.1365 -0.5617 -0.5236
  121OSM   H16S12799   1.461   2.928   7.726 -1.9366 -0.9564 -1.4333
  121OSM   H16T12800   1.352   3.050   7.653  0.1479 -0.0279 -0.8898
  121OSM   C17S12801   1.446   3.114   7.844  0.1812 -0.1787 -0.9386
  121OSM   H17S12802   1.399   3.215   7.841 -1.4324 -0.8836 -0.3298
  121OSM   H17T12803   1.552   3.144   7.853  0.5365 -1.5770 -0.3379
  121OSM   C18S12804   1.400   3.036   7.964 -0.2180 -0.1531  0.3833
  121OSM   H18S12805   1.400   3.089   8.062  1.0707  0.4776  0.0394
  121OSM   H18T12806   1.464   2.945   7.971 -0.7802 -0.5242  0.7591
  121OSM   H18U12807   1.305   2.979   7.955  1.0130 -2.0653 -0.7642
  121OSM    C1F12808   2.174   3.683   6.673  0.0046 -0.3136 -0.1234
  121OSM     OF12809   2.230   3.738   6.579  0.6199  0.0019  0.4740
  121OSM    C2F12810   2.221   3.700   6.814 -0.5676 -0.4445  0.3185
  121OSM    H2F12811   2.176   3.619   6.874  1.3021 -0.5871  1.5665
  121OSM    H2G12812   2.185   3.800   6.847 -1.1236 -1.2663  2.2661
  121OSM    C3F12813   2.373   3.690   6.839  0.1374  0.2285 -0.1451
  121OSM    H3F12814   2.430   3.776   6.797 -0.3216 -1.0537 -3.5506
  121OSM    H3G12815   2.404   3.611   6.767  0.8923  0.6127 -0.2530
  121OSM    C4F12816   2.405   3.655   6.988 -0.4394 -0.6843 -0.0140
  121OSM    H4F12817   2.508   3.616   6.998  0.1533  1.0337  0.5479
  121OSM    H4G12818   2.340   3.577   7.034  0.7029 -1.3016  0.5559
  121OSM    C5F12819   2.414   3.781   7.074 -0.4029 -0.0342  0.3940
  121OSM    H5F12820   2.315   3.831   7.076  0.2634  1.5765 -3.0830
  121OSM    H5G12821   2.497   3.845   7.039 -3.4478  3.4590 -0.7267
  121OSM    C6F12822   2.437   3.743   7.220 -0.2042  0.0927  0.0711
  121OSM    H6F12823   2.545   3.721   7.234 -0.0724  0.7651  0.1137
  121OSM    H6G12824   2.382   3.653   7.254 -1.7712  0.9183 -0.2228
  121OSM    C7F12825   2.398   3.859   7.316  0.0259  0.4872 -0.7942
  121OSM    H7F12826   2.290   3.872   7.337  0.4109  0.2262  1.5343
  121OSM    H7G12827   2.437   3.952   7.270 -0.0145  1.0460  0.2873
  121OSM    C8F12828   2.468   3.862   7.454 -0.4787 -0.1635 -0.1770
  121OSM    H8F12829   2.438   3.958   7.499  0.1072 -0.3106  0.5291
  121OSM    H8G12830   2.577   3.879   7.441 -0.6840 -0.2708 -2.1905
  121OSM    C9F12831   2.448   3.748   7.551  0.0327 -0.1389 -0.4098
  121OSM    H9F12832   2.505   3.655   7.537 -2.3907 -1.8683  1.0872
  121OSM   C10F12833   2.382   3.749   7.667 -0.8769  0.1051 -0.9033
  121OSM   H10F12834   2.381   3.655   7.723 -2.3099 -1.0375 -2.7687
  121OSM   C11F12835   2.321   3.869   7.733 -0.3477  0.3483  0.6615
  121OSM   H11F12836   2.214   3.880   7.703 -0.1636  1.9461  0.5532
  121OSM   H11G12837   2.371   3.961   7.697 -1.2042  0.5374 -0.0788
  121OSM   C12F12838   2.328   3.851   7.885 -0.0948 -0.0244  1.1327
  121OSM   H12F12839   2.309   3.956   7.917  1.3703  0.8640 -0.7707
  121OSM   H12G12840   2.429   3.830   7.928  0.5037  0.8886  0.2269
  121OSM   C13F12841   2.217   3.757   7.939  0.3402  0.9881 -0.6001
  121OSM   H13F12842   2.218   3.653   7.899 -1.1564 -0.2317  2.3822
  121OSM   H13G12843   2.122   3.795   7.896  0.3299  0.2938 -1.2035
  121OSM   C14F12844   2.215   3.762   8.096 -0.3197  0.2206  0.0421
  121OSM   H14F12845   2.193   3.868   8.122 -0.1746  0.4834 -0.8893
  121OSM   H14G12846   2.317   3.736   8.131  0.3028  5.6718  2.9306
  121OSM   C15F12847   2.107   3.669   8.157  0.1042  0.1499 -0.5834
  121OSM   H15F12848   2.145   3.569   8.127 -1.3467 -0.8837  0.9794
  121OSM   H15G12849   2.006   3.698   8.123 -0.2660  0.8217  1.0554
  121OSM   C16F12850   2.120   3.659   8.314  0.6047 -0.1092  0.3492
  121OSM   H16F12851   2.088   3.754   8.362 -0.6489 -0.5878  0.4966
  121OSM   H16G12852   2.224   3.626   8.332  1.0845  1.1858  0.0097
  121OSM   C17F12853   2.029   3.543   8.377 -0.6119  0.4154  0.9697
  121OSM   H17F12854   2.067   3.446   8.338  1.0325  0.7261  1.7356
  121OSM   H17G12855   1.927   3.565   8.341  0.5439  0.2337 -2.5762
  121OSM   C18F12856   2.034   3.540   8.529  0.1545 -0.5922  0.1887
  121OSM   H18F12857   2.132   3.564   8.576 -0.6223  2.2094  0.4809
  121OSM   H18G12858   2.001   3.441   8.565  3.1237 -0.8226  2.4853
  121OSM   H18H12859   1.962   3.615   8.569  0.0507 -0.1769 -0.7600
  122OSM      N12860   1.231   5.807   5.896 -0.1877  0.6665  0.3241
  122OSM    C1512861   1.364   5.794   5.955 -1.4988 -0.2712 -0.2609
  122OSM   H15A12862   1.383   5.887   6.006  0.9700 -0.0462 -1.5399
  122OSM   H15B12863   1.440   5.777   5.881 -3.5109  0.1577 -2.4919
  122OSM   H15C12864   1.364   5.711   6.025 -0.8821 -0.2908 -0.2873
  122OSM    C1412865   1.217   5.941   5.825 -0.6461  0.4459  0.8850
  122OSM   H14A12866   1.221   6.014   5.905  4.2458  0.3728  0.8101
  122OSM   H14B12867   1.122   5.938   5.773  2.2922  2.0506 -4.9491
  122OSM   H14C12868   1.296   5.964   5.756 -1.5647  1.9816  0.2922
  122OSM    C1312869   1.215   5.697   5.792 -0.3126  0.2778 -0.3097
  122OSM   H13A12870   1.213   5.599   5.837  0.5285  0.1593 -0.5262
  122OSM   H13B12871   1.290   5.704   5.714 -0.7203 -0.1004 -0.7349
  122OSM   H13C12872   1.119   5.703   5.745 -0.4276 -0.3494 -0.1620
  122OSM    C1212873   1.122   5.784   6.000  0.0350 -0.3902  0.2962
  122OSM   H12A12874   1.025   5.800   5.956  0.1610 -2.3010 -0.7380
  122OSM   H12B12875   1.128   5.852   6.083  0.3725  1.5742 -1.3058
  122OSM    C1112876   1.118   5.653   6.072 -0.3447 -0.1674 -0.2946
  122OSM   H11A12877   1.041   5.655   6.153 -0.7014  0.2346 -0.6376
  122OSM   H11B12878   1.216   5.640   6.123  1.3217  1.2223 -3.0315
  122OSM      P12879   0.967   5.447   6.005  0.0282  0.4288 -0.1849
  122OSM    O1312880   0.846   5.527   5.964 -0.1214  0.5171 -0.4797
  122OSM    O1412881   0.989   5.320   5.929 -0.2000 -0.2646 -0.0190
  122OSM    O1112882   0.961   5.414   6.161  0.4355 -0.6735 -0.3824
  122OSM    O1212883   1.087   5.536   5.993 -0.3037  0.3763 -0.1648
  122OSM    C1S12884   1.071   5.390   6.249 -0.4429 -0.4230 -0.4311
  122OSM    H1S12885   1.167   5.420   6.202 -0.4278  1.2103  0.6013
  122OSM    H1T12886   1.069   5.280   6.263 -1.3900 -0.5693 -1.5970
  122OSM     NF12887   1.185   5.425   6.469  0.0896  0.1531 -0.2328
  122OSM    HNF12888   1.191   5.337   6.516  1.0605 -0.1638 -0.9224
  122OSM    C2S12889   1.066   5.450   6.394  0.0742 -0.0853 -0.4253
  122OSM    H2S12890   1.047   5.558   6.376 -1.9480 -0.4815 -0.7813
  122OSM    C3S12891   0.936   5.386   6.458 -0.3631  0.5915 -0.1333
  122OSM    H3S12892   0.957   5.277   6.467 -3.4897 -0.0365  0.2181
  122OSM     O312893   0.818   5.390   6.379  0.3204  0.0938 -0.0052
  122OSM    HO312894   0.847   5.422   6.294 -1.0452  1.9954  0.2062
  122OSM    C4S12895   0.912   5.450   6.595 -0.2951  0.9993 -0.2398
  122OSM    H4S12896   0.958   5.384   6.670  0.1777 -0.1102 -1.4698
  122OSM    C5S12897   0.855   5.566   6.622  0.5502  0.0421 -0.2933
  122OSM    H5S12898   0.824   5.630   6.539 -0.0086  1.2308  0.8227
  122OSM    C6S12899   0.835   5.622   6.763  0.0317 -0.1239  0.4521
  122OSM    H6S12900   0.748   5.691   6.762  1.0157  1.1147 -0.4739
  122OSM    H6T12901   0.924   5.680   6.794 -2.1524  2.5533  1.9373
  122OSM    C7S12902   0.803   5.520   6.874 -0.1833  0.5050 -0.6059
  122OSM    H7S12903   0.890   5.452   6.888  0.1761  0.9177 -0.8043
  122OSM    H7T12904   0.716   5.457   6.847 -1.6942  1.0873  2.6843
  122OSM    C8S12905   0.777   5.588   7.011 -0.4236  0.4615  0.2612
  122OSM    H8S12906   0.690   5.656   6.999 -1.2312 -0.5599  0.2519
  122OSM    H8T12907   0.873   5.639   7.033  0.9583 -2.0293  0.2316
  122OSM    C9S12908   0.748   5.474   7.112 -0.2608  1.1927  0.4760
  122OSM    H9S12909   0.848   5.436   7.141  0.0216  1.7205  0.2161
  122OSM    H9T12910   0.686   5.397   7.062  1.2633  1.2901 -1.6421
  122OSM   C10S12911   0.672   5.518   7.242 -0.3732  0.3156  0.2785
  122OSM   H10S12912   0.563   5.531   7.226 -0.1601  4.3881  1.5659
  122OSM   H10T12913   0.698   5.623   7.268  0.0596  0.3963 -0.4634
  122OSM   C11S12914   0.712   5.441   7.371  0.0981 -0.0438  0.0455
  122OSM   H11S12915   0.823   5.444   7.374  0.1328 -0.8461 -0.1724
  122OSM   H11T12916   0.682   5.334   7.361  0.0657  0.0507 -0.8677
  122OSM   C12S12917   0.666   5.501   7.504 -0.0121  0.2469  0.0822
  122OSM   H12S12918   0.558   5.494   7.526  0.3584 -0.2547  1.8164
  122OSM   H12T12919   0.691   5.609   7.514  2.8009 -0.3494  0.0758
  122OSM   C13S12920   0.732   5.429   7.623 -0.3380 -0.2570  0.5445
  122OSM   H13S12921   0.838   5.461   7.610 -0.3109 -0.4807  0.1976
  122OSM   H13T12922   0.730   5.320   7.603  0.8541  0.1414 -2.0047
  122OSM   C14S12923   0.676   5.472   7.758 -0.4089  0.0675 -0.4524
  122OSM   H14S12924   0.571   5.439   7.774 -0.4678 -1.3124 -3.4350
  122OSM   H14T12925   0.694   5.582   7.763  1.2968 -0.1903 -0.8356
  122OSM   C15S12926   0.757   5.419   7.873  0.4031 -0.1288  0.0593
  122OSM   H15S12927   0.742   5.486   7.960 -3.3875  0.9656 -1.3418
  122OSM   H15T12928   0.863   5.436   7.843  0.8721 -1.4778  0.8840
  122OSM   C16S12929   0.735   5.264   7.909 -0.0839 -0.6069  0.2379
  122OSM   H16S12930   0.775   5.204   7.825  2.4357  0.5626  0.5689
  122OSM   H16T12931   0.625   5.252   7.919 -0.0365 -0.7758  0.5811
  122OSM   C17S12932   0.822   5.231   8.031 -0.0738 -0.3189  0.2185
  122OSM   H17S12933   0.809   5.317   8.099 -0.7000  0.6055 -1.0422
  122OSM   H17T12934   0.925   5.218   7.992 -0.4777 -0.6364 -0.7626
  122OSM   C18S12935   0.761   5.104   8.098  0.4414  0.3080  0.0211
  122OSM   H18S12936   0.742   5.029   8.019 -2.0891  2.3618 -1.3671
  122OSM   H18T12937   0.669   5.128   8.156  0.6557 -1.2659  1.0607
  122OSM   H18U12938   0.831   5.059   8.172  1.0388  0.6797 -0.3154
  122OSM    C1F12939   1.300   5.490   6.452 -0.0665 -0.9369  0.0433
  122OSM     OF12940   1.303   5.587   6.373  0.4633  0.0891  0.0434
  122OSM    C2F12941   1.417   5.437   6.529 -0.3509 -1.1083  0.0589
  122OSM    H2F12942   1.454   5.344   6.480 -0.6079 -1.8348  1.2343
  122OSM    H2G12943   1.377   5.409   6.629  2.9530 -0.5675  1.6126
  122OSM    C3F12944   1.531   5.547   6.547 -0.3400  0.0540  1.0524
  122OSM    H3F12945   1.487   5.649   6.555  0.4078  0.4864 -0.2930
  122OSM    H3G12946   1.577   5.537   6.447 -0.0178  0.9661  1.1005
  122OSM    C4F12947   1.641   5.507   6.651 -0.3652 -0.6264 -0.8200
  122OSM    H4F12948   1.746   5.533   6.625 -0.1990  0.9010  1.1998
  122OSM    H4G12949   1.646   5.397   6.656 -0.3030 -0.5717  0.8310
  122OSM    C5F12950   1.613   5.563   6.792 -0.3344  0.2978  0.2914
  122OSM    H5F12951   1.512   5.531   6.825  0.6092 -2.4153  0.6373
  122OSM    H5G12952   1.614   5.674   6.791 -0.1078  0.3141  1.7892
  122OSM    C6F12953   1.706   5.518   6.913 -0.0736  0.1806 -0.5520
  122OSM    H6F12954   1.768   5.602   6.949 -0.9917  1.7449 -2.5517
  122OSM    H6G12955   1.788   5.449   6.884  0.4284  0.6502 -0.2655
  122OSM    C7F12956   1.630   5.465   7.044 -0.2843  0.2918  0.2941
  122OSM    H7F12957   1.562   5.386   7.005  0.2922  0.9484 -2.1211
  122OSM    H7G12958   1.568   5.547   7.085  1.0705  1.7731 -0.5393
  122OSM    C8F12959   1.716   5.402   7.149 -0.2821 -0.0659 -0.2057
  122OSM    H8F12960   1.780   5.325   7.101  0.0116  1.1986 -1.8679
  122OSM    H8G12961   1.653   5.355   7.228 -1.7440  2.5798  0.2578
  122OSM    C9F12962   1.812   5.497   7.219 -0.4925  0.2703  0.7577
  122OSM    H9F12963   1.918   5.498   7.188 -0.5705 -0.6859  0.4533
  122OSM   C10F12964   1.775   5.573   7.326  0.5838  0.0408 -0.1437
  122OSM   H10F12965   1.855   5.631   7.374 -0.5520  1.7367 -0.2131
  122OSM   C11F12966   1.642   5.595   7.386  0.1465  0.8448 -0.0663
  122OSM   H11F12967   1.563   5.536   7.334  0.9788 -1.3034  1.0495
  122OSM   H11G12968   1.619   5.699   7.355  0.1526  0.1218 -2.5795
  122OSM   C12F12969   1.650   5.572   7.540  0.1363 -0.4745 -0.2705
  122OSM   H12F12970   1.552   5.592   7.587  1.1985  0.0608  1.7684
  122OSM   H12G12971   1.706   5.654   7.589  1.1063 -0.5995 -1.1379
  122OSM   C13F12972   1.689   5.431   7.581  0.2309 -0.0341  0.3496
  122OSM   H13F12973   1.791   5.399   7.553 -0.4497 -0.7703 -1.3499
  122OSM   H13G12974   1.611   5.363   7.540 -0.9021  0.7401  1.1587
  122OSM   C14F12975   1.690   5.427   7.739  0.6942  1.4653  0.2563
  122OSM   H14F12976   1.590   5.460   7.774 -1.8318 -2.7132 -2.4494
  122OSM   H14G12977   1.763   5.497   7.785  0.8860  2.0135 -0.8844
  122OSM   C15F12978   1.712   5.279   7.794 -0.4034 -0.1790  0.0939
  122OSM   H15F12979   1.763   5.221   7.714 -1.8446  0.9491 -1.6810
  122OSM   H15G12980   1.613   5.234   7.819  0.2362  0.1892  3.6240
  122OSM   C16F12981   1.792   5.268   7.930  0.0330  0.5015 -0.2048
  122OSM   H16F12982   1.757   5.348   7.999  1.1263  1.6831 -1.0007
  122OSM   H16G12983   1.900   5.289   7.913 -0.0916 -1.1577 -3.5770
  122OSM   C17F12984   1.754   5.137   8.007  0.1047  0.5344 -0.7479
  122OSM   H17F12985   1.786   5.068   7.926  2.0641  1.7847 -1.0697
  122OSM   H17G12986   1.644   5.127   8.013  0.1559  0.3932 -0.0160
  122OSM   C18F12987   1.822   5.109   8.145  0.2126 -0.4654 -0.0558
  122OSM   H18F12988   1.787   5.012   8.188 -1.1451  0.1203  0.1625
  122OSM   H18G12989   1.781   5.186   8.213 -1.0815 -1.1250 -0.0634
  122OSM   H18H12990   1.932   5.119   8.131  0.4770 -0.1594  2.0035
  123OSM      N12991   5.994   1.229   6.287 -0.6424 -0.2125 -0.3631
  123OSM    C1512992   5.996   1.367   6.349  0.5853  0.9692 -0.6266
  123OSM   H15A12993   6.039   1.443   6.285 -1.0116  0.0611 -2.8158
  123OSM   H15B12994   6.045   1.374   6.446  0.2885 -1.8407 -0.2322
  123OSM   H15C12995   5.894   1.392   6.375  0.0657 -0.7392 -0.9620
  123OSM    C1412996   5.874   1.213   6.203 -0.2887  0.3281 -0.2388
  123OSM   H14A12997   5.878   1.111   6.166 -2.0299 -0.9931  2.9783
  123OSM   H14B12998   5.857   1.275   6.116  2.5867 -0.4846 -1.4600
  123OSM   H14C12999   5.787   1.220   6.267  1.0513  1.2468  1.5119
  123OSM    C1313000   6.120   1.216   6.211 -0.1235 -0.6565  0.4515
  123OSM   H13A13001   6.210   1.199   6.268  1.4638  2.0845 -1.1103
  123OSM   H13B13002   6.134   1.288   6.132 -2.8684 -0.5208  0.0373
  123OSM   H13C13003   6.124   1.125   6.154 -0.7790  1.5074 -3.2045
  123OSM    C1213004   6.002   1.125   6.397  0.1781  0.4465  0.5694
  123OSM   H12A13005   6.091   1.151   6.452  1.3736 -0.0991 -1.0523
  123OSM   H12B13006   6.012   1.022   6.367  2.0238  0.5958  0.5613
  123OSM    C1113007   5.883   1.135   6.494 -0.5501  0.5884 -0.4701
  123OSM   H11A13008   5.893   1.222   6.562  0.3746  0.1275 -0.0052
  123OSM   H11B13009   5.895   1.050   6.566  1.7342  2.1737  1.0819
  123OSM      P13010   5.649   1.036   6.429 -0.3933 -0.0546  0.1726
  123OSM    O1313011   5.511   1.087   6.435 -0.1579  0.0455  0.5370
  123OSM    O1413012   5.679   0.964   6.306 -0.3146 -0.5081 -0.2564
  123OSM    O1113013   5.675   0.946   6.554  0.5306  0.3852 -0.6090
  123OSM    O1213014   5.755   1.148   6.447 -0.0547 -0.0796 -0.5342
  123OSM    C1S13015   5.690   1.005   6.685 -0.3014 -0.5366 -1.0161
  123OSM    H1S13016   5.689   1.116   6.685 -1.2030 -0.5309  0.9816
  123OSM    H1T13017   5.789   0.978   6.727  0.0038 -0.3646 -1.6212
  123OSM     NF13018   5.611   1.003   6.927  0.5562  0.0803  0.1031
  123OSM    HNF13019   5.675   0.961   6.990  0.3851  0.1274  0.3081
  123OSM    C2S13020   5.591   0.943   6.798  0.1647  0.3754  0.3967
  123OSM    H2S13021   5.484   0.959   6.770 -0.2742 -1.6219  0.8564
  123OSM    C3S13022   5.619   0.786   6.808 -0.0179 -0.3341  0.3353
  123OSM    H3S13023   5.728   0.772   6.826  0.0788 -0.0867 -0.0644
  123OSM     O313024   5.596   0.714   6.686 -0.2382  0.8417  0.2055
  123OSM    HO313025   5.603   0.779   6.615  0.9137  0.0743 -0.3830
  123OSM    C4S13026   5.544   0.718   6.913 -0.0630  0.4153  0.1517
  123OSM    H4S13027   5.434   0.724   6.909 -0.1176 -0.0238  0.8707
  123OSM    C5S13028   5.599   0.627   7.000 -0.7752 -0.1426 -0.4183
  123OSM    H5S13029   5.707   0.609   6.998 -0.6065  0.9327 -1.3940
  123OSM    C6S13030   5.522   0.551   7.102 -0.1142 -0.0816 -0.1736
  123OSM    H6S13031   5.595   0.520   7.181 -0.9314  0.2442  0.7222
  123OSM    H6T13032   5.476   0.464   7.051  1.0039 -1.0338  0.3982
  123OSM    C7S13033   5.418   0.634   7.177  0.1819  0.2174  0.1660
  123OSM    H7S13034   5.347   0.659   7.095  2.5669  0.0127 -1.9875
  123OSM    H7T13035   5.461   0.729   7.215  1.1584 -0.6773  1.3359
  123OSM    C8S13036   5.341   0.548   7.284 -0.2282  0.8222  0.1577
  123OSM    H8S13037   5.418   0.501   7.349 -1.2300 -0.0590  0.7229
  123OSM    H8T13038   5.300   0.460   7.229 -1.3004  0.1902  1.9258
  123OSM    C9S13039   5.231   0.622   7.362 -0.7632 -0.5608  0.1204
  123OSM    H9S13040   5.154   0.655   7.288 -1.9546 -1.5141  0.9101
  123OSM    H9T13041   5.270   0.711   7.416  2.9029 -1.8722 -0.2508
  123OSM   C10S13042   5.161   0.523   7.459 -0.3025 -0.0882 -0.0632
  123OSM   H10S13043   5.233   0.476   7.529 -0.8301  0.6824  1.0084
  123OSM   H10T13044   5.115   0.446   7.392 -1.3473  1.4632 -1.1569
  123OSM   C11S13045   5.042   0.588   7.546  0.2302 -0.2526 -1.0207
  123OSM   H11S13046   4.958   0.629   7.486  0.6311  2.3886  0.1506
  123OSM   H11T13047   5.090   0.675   7.594  2.7109 -1.2342 -1.6562
  123OSM   C12S13048   4.976   0.486   7.637  0.5880  0.4465  0.5335
  123OSM   H12S13049   5.049   0.442   7.708 -0.6339 -0.9782  0.9285
  123OSM   H12T13050   4.931   0.404   7.577 -2.7457  1.0765  2.0413
  123OSM   C13S13051   4.866   0.542   7.728  0.1441 -0.7774 -0.5824
  123OSM   H13S13052   4.779   0.573   7.666  1.8382  4.0184 -0.8088
  123OSM   H13T13053   4.904   0.639   7.767  0.8749 -1.2841 -0.0372
  123OSM   C14S13054   4.831   0.449   7.854  0.9315  0.2361  0.7766
  123OSM   H14S13055   4.924   0.436   7.913  0.9641  0.3917  0.7586
  123OSM   H14T13056   4.805   0.350   7.811 -1.4559  1.5622 -0.9383
  123OSM   C15S13057   4.714   0.496   7.945 -0.7131 -0.0279 -0.1187
  123OSM   H15S13058   4.700   0.434   8.037  0.3528 -0.3039 -0.1316
  123OSM   H15T13059   4.626   0.481   7.880 -0.3482 -0.1454 -0.5886
  123OSM   C16S13060   4.723   0.641   7.996  0.3930  0.2178 -0.4619
  123OSM   H16S13061   4.694   0.717   7.920 -0.3158  1.5061  1.0766
  123OSM   H16T13062   4.825   0.676   8.024  1.6136 -2.2281 -1.6411
  123OSM   C17S13063   4.645   0.655   8.120  1.1096  0.3442 -0.4531
  123OSM   H17S13064   4.672   0.572   8.189 -0.9954 -1.0935 -1.2747
  123OSM   H17T13065   4.538   0.630   8.102  0.7912  1.2775  0.0845
  123OSM   C18S13066   4.650   0.787   8.182  0.5711 -0.2315  0.0055
  123OSM   H18S13067   4.586   0.787   8.273 -0.9943  0.9184 -1.0725
  123OSM   H18T13068   4.598   0.851   8.108 -0.5679  0.1224  1.0929
  123OSM   H18U13069   4.749   0.826   8.216 -0.4509  1.0924  1.5649
  123OSM    C1F13070   5.550   1.114   6.965  0.4209 -0.4557 -0.9120
  123OSM     OF13071   5.468   1.171   6.892 -0.3219  0.5720  0.4485
  123OSM    C2F13072   5.581   1.161   7.106  0.5062  0.3144  0.4697
  123OSM    H2F13073   5.692   1.156   7.118  0.2366  0.0343  3.2133
  123OSM    H2G13074   5.534   1.084   7.171 -0.5386  0.0297 -0.6289
  123OSM    C3F13075   5.548   1.311   7.141  0.1351 -0.3191 -0.3532
  123OSM    H3F13076   5.446   1.335   7.104 -0.8884 -1.2294  1.7935
  123OSM    H3G13077   5.617   1.381   7.090  1.5926 -0.8896  0.7941
  123OSM    C4F13078   5.563   1.339   7.288 -0.0398 -0.6354 -0.0048
  123OSM    H4F13079   5.665   1.311   7.320 -0.0901 -1.6646 -0.7339
  123OSM    H4G13080   5.507   1.264   7.348  0.6318 -0.3603  0.9952
  123OSM    C5F13081   5.522   1.481   7.333 -0.0813  0.2206  0.9732
  123OSM    H5F13082   5.412   1.499   7.324  0.3309  0.9028 -4.0401
  123OSM    H5G13083   5.563   1.563   7.271  2.4076 -0.6364  1.4402
  123OSM    C6F13084   5.564   1.512   7.485 -0.2503  0.3880  0.1107
  123OSM    H6F13085   5.576   1.621   7.506  1.3658  0.2666 -0.1098
  123OSM    H6G13086   5.661   1.464   7.509 -0.4444  0.8509  1.8911
  123OSM    C7F13087   5.461   1.455   7.586 -0.1163 -0.2115  0.0629
  123OSM    H7F13088   5.444   1.346   7.575  0.2600 -0.3562  0.8860
  123OSM    H7G13089   5.366   1.511   7.567 -1.2186 -2.3164 -0.7221
  123OSM    C8F13090   5.517   1.482   7.733 -0.3045 -0.2273  0.1790
  123OSM    H8F13091   5.521   1.592   7.748  1.0781 -0.2594  0.0528
  123OSM    H8G13092   5.625   1.456   7.726  0.0486  1.4711 -1.0175
  123OSM    C9F13093   5.450   1.401   7.840  0.8768  0.5450  0.0378
  123OSM    H9F13094   5.463   1.291   7.841 -0.7974  0.2796 -2.5713
  123OSM   C10F13095   5.377   1.456   7.939 -0.8268 -0.1238 -0.3125
  123OSM   H10F13096   5.330   1.387   8.010  0.2791 -0.1938  0.3623
  123OSM   C11F13097   5.341   1.600   7.960 -0.8467  0.3103  0.0490
  123OSM   H11F13098   5.257   1.628   7.894  1.8964  1.2959 -3.2171
  123OSM   H11G13099   5.431   1.659   7.932  0.5948 -1.4579  0.7999
  123OSM   C12F13100   5.322   1.640   8.104  0.5676  0.2139 -0.3112
  123OSM   H12F13101   5.244   1.580   8.155  0.4165 -0.3572 -1.2044
  123OSM   H12G13102   5.282   1.743   8.101 -0.8948 -0.3606 -0.5192
  123OSM   C13F13103   5.458   1.647   8.179  0.0258 -0.2215  0.0182
  123OSM   H13F13104   5.542   1.696   8.124 -1.8411  0.0038 -2.7440
  123OSM   H13G13105   5.495   1.547   8.210 -1.6990 -0.2556  2.0943
  123OSM   C14F13106   5.446   1.734   8.307  0.1696 -0.3685 -0.9598
  123OSM   H14F13107   5.357   1.695   8.361  0.0908  1.1253  0.0003
  123OSM   H14G13108   5.439   1.840   8.277 -1.0173  0.3315  1.6165
  123OSM   C15F13109   5.573   1.725   8.397  0.3025  0.2132  0.4108
  123OSM   H15F13110   5.553   1.796   8.480  0.2006  1.7890 -0.9505
  123OSM   H15G13111   5.667   1.754   8.346  2.8995 -4.2452  2.4011
  123OSM   C16F13112   5.617   1.581   8.449 -0.3608 -0.1905  0.4289
  123OSM   H16F13113   5.702   1.600   8.518 -1.7095  0.2721  1.9882
  123OSM   H16G13114   5.665   1.519   8.370 -0.7403 -0.8442  0.7099
  123OSM   C17F13115   5.494   1.511   8.514  0.0202  0.0831 -0.5493
  123OSM   H17F13116   5.435   1.469   8.430  0.3091  0.5203 -0.9762
  123OSM   H17G13117   5.431   1.586   8.567 -1.6171 -0.4082 -1.7322
  123OSM   C18F13118   5.535   1.401   8.616 -0.0319 -0.6252  0.2321
  123OSM   H18F13119   5.602   1.446   8.693  0.5196 -1.8919  0.5036
  123OSM   H18G13120   5.573   1.315   8.558  0.3979  0.4752 -1.1423
  123OSM   H18H13121   5.443   1.360   8.662 -1.3751  0.7041 -1.2477
  124OSM      N13122   6.383   4.210   5.871  0.0729  0.3532  0.2299
  124OSM    C1513123   6.286   4.140   5.783  0.0324 -0.8335 -0.1419
  124OSM   H15A13124   6.190   4.150   5.832  0.8009 -0.9505  1.3970
  124OSM   H15B13125   6.304   4.033   5.781 -0.8267 -0.9946  0.4548
  124OSM   H15C13126   6.285   4.176   5.681  1.1366 -1.0230 -0.2214
  124OSM    C1413127   6.521   4.211   5.819 -0.3727 -0.0110  0.3581
  124OSM   H14A13128   6.559   4.110   5.811 -0.6943 -0.1789  0.9586
  124OSM   H14B13129   6.596   4.251   5.885  0.3632 -0.4643 -0.1857
  124OSM   H14C13130   6.542   4.272   5.732 -1.1778 -2.4298 -1.5828
  124OSM    C1313131   6.339   4.358   5.880  0.6130  0.7572  0.3274
  124OSM   H13A13132   6.301   4.387   5.783  1.8884  2.9267  0.4683
  124OSM   H13B13133   6.427   4.415   5.905  2.2838 -1.6357  0.0819
  124OSM   H13C13134   6.259   4.365   5.953  0.9046  0.0100  0.7264
  124OSM    C1213135   6.391   4.152   6.014  0.2316  0.4619  0.8319
  124OSM   H12A13136   6.420   4.048   6.005 -0.2609  0.2975  1.1507
  124OSM   H12B13137   6.289   4.140   6.045  0.0098 -1.9588 -0.6227
  124OSM    C1113138   6.495   4.222   6.105  0.3371  0.4161 -0.3410
  124OSM   H11A13139   6.466   4.203   6.211 -1.2374 -0.9577 -0.9843
  124OSM   H11B13140   6.482   4.328   6.075 -0.6065  0.3711 -0.1099
  124OSM      P13141   6.692   4.047   6.122  0.4506 -0.1330  0.2060
  124OSM    O1313142   6.616   3.932   6.061  0.4500  0.3881  0.1173
  124OSM    O1413143   6.836   4.044   6.104 -0.9660  0.2869 -0.2002
  124OSM    O1113144   6.651   4.056   6.279 -0.4526 -0.5143 -0.4990
  124OSM    O1213145   6.626   4.184   6.073  0.3806 -0.4976 -0.1938
  124OSM    C1S13146   6.717   4.150   6.365 -0.1436  0.3329  0.0058
  124OSM    H1S13147   6.662   4.245   6.353 -0.6380 -0.0974 -1.2730
  124OSM    H1T13148   6.819   4.180   6.332  0.9263 -1.4581  1.5293
  124OSM     NF13149   6.799   4.206   6.589  0.3072  0.6907 -0.1566
  124OSM    HNF13150   6.898   4.212   6.598  0.5138  0.5980 -2.1526
  124OSM    C2S13151   6.738   4.102   6.510  0.0099 -0.1403  0.1271
  124OSM    H2S13152   6.640   4.079   6.559  1.0363 -0.3860  2.1286
  124OSM    C3S13153   6.819   3.965   6.509  0.2394 -0.3089  0.0473
  124OSM    H3S13154   6.920   3.970   6.464  0.6819  0.1955  1.0678
  124OSM     O313155   6.754   3.860   6.436  0.2183 -0.3030 -0.0075
  124OSM    HO313156   6.705   3.907   6.368  0.0152  0.0209  0.3591
  124OSM    C4S13157   6.841   3.930   6.654  0.8934 -0.5784 -0.5266
  124OSM    H4S13158   6.937   3.973   6.687  0.5475  0.7415 -1.2029
  124OSM    C5S13159   6.767   3.860   6.740  0.2804  0.3709 -0.4196
  124OSM    H5S13160   6.672   3.816   6.706  1.0198 -0.7354 -1.0863
  124OSM    C6S13161   6.795   3.841   6.887  0.4214 -0.1509  0.3021
  124OSM    H6S13162   6.867   3.761   6.913  0.4483 -0.3686 -0.4394
  124OSM    H6T13163   6.701   3.826   6.945  0.0859 -0.1670 -0.2470
  124OSM    C7S13164   6.871   3.961   6.962 -0.3691  0.4917  0.6356
  124OSM    H7S13165   6.959   3.991   6.902 -0.3753 -1.9949 -0.6488
  124OSM    H7T13166   6.920   3.930   7.056  1.0397  1.6737  0.3001
  124OSM    C8S13167   6.792   4.090   6.975  0.5277  0.6920 -0.3742
  124OSM    H8S13168   6.692   4.063   7.016  1.3796 -1.8377  0.0840
  124OSM    H8T13169   6.774   4.129   6.873  0.0545  0.5494 -0.3477
  124OSM    C9S13170   6.862   4.183   7.068 -0.0596 -0.1705  0.0688
  124OSM    H9S13171   6.874   4.133   7.166  0.6011 -1.3788 -0.6133
  124OSM    H9T13172   6.807   4.279   7.080  1.0905  0.5027  0.0490
  124OSM   C10S13173   7.003   4.214   7.017  0.6556  0.6302 -0.1811
  124OSM   H10S13174   6.992   4.221   6.907 -0.0626 -0.4336 -0.1768
  124OSM   H10T13175   7.073   4.131   7.037 -0.7735 -0.8324 -1.0849
  124OSM   C11S13176   7.059   4.352   7.074  0.3250  0.0411 -0.3461
  124OSM   H11S13177   6.983   4.423   7.033 -1.1578 -0.8344  0.8418
  124OSM   H11T13178   7.158   4.381   7.034  0.2287 -0.3319 -0.8576
  124OSM   C12S13179   7.065   4.364   7.226 -0.3909  0.0585 -0.0597
  124OSM   H12S13180   6.970   4.344   7.281  0.5022  0.9194  1.8382
  124OSM   H12T13181   7.079   4.469   7.258 -1.1297 -0.3717  1.7501
  124OSM   C13S13182   7.160   4.269   7.296  0.3961  0.2088  0.1476
  124OSM   H13S13183   7.266   4.297   7.275  0.9662 -0.7934  1.5742
  124OSM   H13T13184   7.138   4.166   7.261  0.0180 -0.0860  1.2415
  124OSM   C14S13185   7.136   4.259   7.452 -0.2386 -0.2510 -0.8470
  124OSM   H14S13186   7.125   4.366   7.482 -2.6596 -0.3426 -1.2420
  124OSM   H14T13187   7.230   4.220   7.496 -0.6726 -0.4709 -0.0980
  124OSM   C15S13188   7.008   4.187   7.486 -0.0013  0.1083 -0.2542
  124OSM   H15S13189   7.008   4.084   7.446 -4.1936 -0.3126  0.6051
  124OSM   H15T13190   6.916   4.240   7.451 -0.1991 -1.0944 -1.6023
  124OSM   C16S13191   6.988   4.187   7.637 -0.5851 -0.6377  0.2436
  124OSM   H16S13192   6.974   4.295   7.662  1.9282  0.2769 -2.0254
  124OSM   H16T13193   7.084   4.153   7.679 -0.3075  2.0025  1.8889
  124OSM   C17S13194   6.871   4.095   7.676  0.1355 -0.0905  0.5666
  124OSM   H17S13195   6.868   4.088   7.787 -1.1586 -2.2673  0.4284
  124OSM   H17T13196   6.896   3.995   7.634  1.1616  0.2385  0.3820
  124OSM   C18S13197   6.727   4.129   7.625 -0.5037  0.1758 -0.3235
  124OSM   H18S13198   6.659   4.051   7.667 -2.4855  1.0698 -1.7739
  124OSM   H18T13199   6.726   4.129   7.514 -3.0134 -1.6808 -0.3444
  124OSM   H18U13200   6.687   4.226   7.663 -1.5418  0.1539 -1.3144
  124OSM    C1F13201   6.729   4.314   6.620 -0.4554 -0.1147  0.4313
  124OSM     OF13202   6.606   4.322   6.616 -0.3175  0.6255 -0.6928
  124OSM    C2F13203   6.811   4.431   6.657 -0.8670  0.4553 -0.3551
  124OSM    H2F13204   6.794   4.508   6.579 -3.2405 -0.2124 -0.5164
  124OSM    H2G13205   6.917   4.402   6.676 -0.7219  1.0041 -0.2922
  124OSM    C3F13206   6.755   4.487   6.791  0.7573 -0.6803 -1.0824
  124OSM    H3F13207   6.762   4.410   6.872 -0.6593  1.1854  0.8765
  124OSM    H3G13208   6.647   4.512   6.784  0.8216 -0.4495 -1.2471
  124OSM    C4F13209   6.824   4.615   6.836 -0.2012  0.4668  0.4871
  124OSM    H4F13210   6.832   4.696   6.760  1.0758  2.1372  2.3731
  124OSM    H4G13211   6.931   4.604   6.864  0.0158  2.3751  0.4850
  124OSM    C5F13212   6.749   4.682   6.956  0.6012 -0.9315 -0.4605
  124OSM    H5F13213   6.643   4.697   6.925  1.3663  2.5822 -1.5509
  124OSM    H5G13214   6.787   4.784   6.976 -0.3634 -0.6039 -0.2711
  124OSM    C6F13215   6.766   4.596   7.084  0.2341  0.4731 -0.0166
  124OSM    H6F13216   6.872   4.605   7.113  0.4642 -0.1358 -0.6559
  124OSM    H6G13217   6.750   4.488   7.063 -1.0093  0.4222  1.1178
  124OSM    C7F13218   6.658   4.632   7.193  0.5433 -0.4358 -0.0501
  124OSM    H7F13219   6.554   4.611   7.158  1.0455 -2.3059 -0.4526
  124OSM    H7G13220   6.675   4.740   7.212  0.8976 -0.1087 -2.0919
  124OSM    C8F13221   6.684   4.542   7.316 -0.3660  0.2237 -0.2478
  124OSM    H8F13222   6.680   4.435   7.286 -0.3701  0.1301  0.0817
  124OSM    H8G13223   6.594   4.540   7.381 -0.0346 -1.0324  0.1899
  124OSM    C9F13224   6.811   4.563   7.397 -0.3335  0.4014 -0.5896
  124OSM    H9F13225   6.899   4.541   7.334  0.2193  1.4673 -0.2066
  124OSM   C10F13226   6.819   4.604   7.529  0.1606 -0.2980 -0.6948
  124OSM   H10F13227   6.917   4.599   7.577 -0.0375 -0.5286 -0.3078
  124OSM   C11F13228   6.698   4.638   7.618 -0.7525  0.5010  0.4101
  124OSM   H11F13229   6.610   4.597   7.564 -1.7144 -1.0892  3.1014
  124OSM   H11G13230   6.682   4.748   7.620 -0.6264  0.5335 -0.0672
  124OSM   C12F13231   6.715   4.572   7.756  0.2894 -0.2275 -0.0484
  124OSM   H12F13232   6.715   4.462   7.739 -3.2568 -0.2586 -0.0542
  124OSM   H12G13233   6.625   4.605   7.811 -0.5803  0.1354 -1.6562
  124OSM   C13F13234   6.834   4.627   7.837 -0.5835 -0.4674  0.6655
  124OSM   H13F13235   6.841   4.736   7.813 -1.0329 -0.4689  0.5092
  124OSM   H13G13236   6.928   4.574   7.811 -1.5873 -1.8881 -0.0915
  124OSM   C14F13237   6.816   4.597   7.989 -0.5621 -0.1979  0.0344
  124OSM   H14F13238   6.721   4.650   8.011 -1.0460 -0.8103 -0.5495
  124OSM   H14G13239   6.894   4.645   8.051 -0.3052 -0.1891 -0.2931
  124OSM   C15F13240   6.787   4.450   8.037 -0.2705 -0.4953 -0.4579
  124OSM   H15F13241   6.710   4.405   7.971  0.1976 -1.1442 -0.5653
  124OSM   H15G13242   6.739   4.455   8.138  0.6338  0.8597 -0.0746
  124OSM   C16F13243   6.911   4.355   8.070 -0.0410 -0.7521  0.1857
  124OSM   H16F13244   6.975   4.352   7.979 -1.5828  1.5948 -1.0310
  124OSM   H16G13245   6.879   4.252   8.098 -0.1464 -0.4800  1.0606
  124OSM   C17F13246   7.011   4.406   8.178  0.4574  0.1920 -0.5966
  124OSM   H17F13247   6.955   4.420   8.273  0.9280 -0.7066 -0.1824
  124OSM   H17G13248   7.061   4.500   8.147 -0.1136  0.0073 -2.0997
  124OSM   C18F13249   7.117   4.299   8.212  0.4752 -1.0411  0.2572
  124OSM   H18F13250   7.155   4.306   8.317 -2.8649  1.3885  1.3722
  124OSM   H18G13251   7.207   4.302   8.147  0.5236 -1.6082  0.2929
  124OSM   H18H13252   7.065   4.203   8.193  0.3382 -1.3082  1.9048
  125OSM      N13253   2.577   2.188   6.147 -0.1469  0.1812  0.5031
  125OSM    C1513254   2.474   2.164   6.037 -0.5293 -0.1501  0.3131
  125OSM   H15A13255   2.382   2.114   6.064 -1.1963  0.0083 -1.5882
  125OSM   H15B13256   2.503   2.095   5.960  0.8578  0.9542 -0.1707
  125OSM   H15C13257   2.435   2.257   5.998 -1.1368 -0.2233  0.7252
  125OSM    C1413258   2.606   2.057   6.197 -0.2114 -0.0810 -0.1484
  125OSM   H14A13259   2.525   2.026   6.261 -1.0328  2.0938 -0.0942
  125OSM   H14B13260   2.683   2.054   6.273  1.8440  0.4771 -2.1684
  125OSM   H14C13261   2.622   1.980   6.124 -0.5425 -0.1048 -0.1932
  125OSM    C1313262   2.698   2.251   6.097 -0.1068 -0.4830 -0.5208
  125OSM   H13A13263   2.754   2.294   6.178  1.2161 -0.8461 -1.2318
  125OSM   H13B13264   2.662   2.331   6.034 -3.4282 -0.5640  1.1445
  125OSM   H13C13265   2.762   2.185   6.040  0.0839 -1.4521  0.8113
  125OSM    C1213266   2.520   2.268   6.262  0.5620 -0.1751  0.9022
  125OSM   H12A13267   2.580   2.246   6.349 -0.2956  0.1313  1.5796
  125OSM   H12B13268   2.423   2.225   6.281  1.0422 -1.3779  0.6516
  125OSM    C1113269   2.492   2.416   6.251 -0.3048  0.1595 -0.4107
  125OSM   H11A13270   2.420   2.455   6.326 -0.4638 -0.2360 -0.3559
  125OSM   H11B13271   2.450   2.428   6.149  2.3214  0.0603 -1.5375
  125OSM      P13272   2.603   2.649   6.222 -0.2925 -0.0957  0.4257
  125OSM    O1313273   2.743   2.698   6.177  0.0718  0.0342  0.1159
  125OSM    O1413274   2.499   2.666   6.120 -0.1375 -0.4706 -0.4582
  125OSM    O1113275   2.564   2.721   6.355  0.2596 -0.1715  0.1781
  125OSM    O1213276   2.611   2.496   6.261  0.1142  0.5900  0.0696
  125OSM    C1S13277   2.535   2.652   6.481 -0.9343  0.0391  0.3558
  125OSM    H1S13278   2.596   2.559   6.488  0.3734  0.8044 -0.6385
  125OSM    H1T13279   2.431   2.614   6.479 -0.6753 -0.6429 -2.2004
  125OSM     NF13280   2.549   2.676   6.721 -0.5279 -0.0790 -0.5757
  125OSM    HNF13281   2.471   2.692   6.781  0.5007 -0.0300  0.7550
  125OSM    C2S13282   2.562   2.750   6.595 -0.6604  0.7068 -0.5557
  125OSM    H2S13283   2.666   2.788   6.579  0.3982 -1.0086  2.0282
  125OSM    C3S13284   2.466   2.877   6.581  0.1328 -0.6573 -0.6645
  125OSM    H3S13285   2.362   2.841   6.569 -0.1755 -0.3167  0.8863
  125OSM     O313286   2.489   2.959   6.466  0.4771 -0.4178  0.0876
  125OSM    HO313287   2.532   2.891   6.415 -1.9612 -1.4161 -0.7066
  125OSM    C4S13288   2.468   2.972   6.700 -0.6210  0.5036 -0.4251
  125OSM    H4S13289   2.379   2.946   6.760 -2.6894  0.6329 -3.2880
  125OSM    C5S13290   2.532   3.083   6.725 -0.7530 -0.1360 -0.1811
  125OSM    H5S13291   2.592   3.123   6.642 -2.4582 -0.1710 -1.4620
  125OSM    C6S13292   2.519   3.175   6.847  0.2978 -0.0639 -0.7601
  125OSM    H6S13293   2.580   3.267   6.831  1.4682 -1.0997 -2.4763
  125OSM    H6T13294   2.561   3.113   6.930 -0.0690 -1.3735 -1.5306
  125OSM    C7S13295   2.374   3.219   6.872 -0.0508  0.0669 -0.0650
  125OSM    H7S13296   2.309   3.131   6.892 -1.2023  0.2815 -2.5661
  125OSM    H7T13297   2.331   3.273   6.785 -1.5742 -0.5402  0.2955
  125OSM    C8S13298   2.365   3.312   6.995  0.2548  0.3561  0.3971
  125OSM    H8S13299   2.267   3.363   6.981 -0.1541 -0.5731 -0.2118
  125OSM    H8T13300   2.431   3.401   6.989  1.6004 -0.6505 -0.0214
  125OSM    C9S13301   2.378   3.245   7.130 -0.4782 -0.1154  0.1103
  125OSM    H9S13302   2.473   3.189   7.144 -0.8984 -0.6667  0.8141
  125OSM    H9T13303   2.291   3.176   7.133 -1.4385  1.1115  1.8553
  125OSM   C10S13304   2.369   3.357   7.233 -0.4296 -0.1600 -0.3481
  125OSM   H10S13305   2.263   3.391   7.244 -0.9098 -1.6907 -0.0348
  125OSM   H10T13306   2.429   3.447   7.209 -0.2047  0.3186  1.8809
  125OSM   C11S13307   2.424   3.305   7.372  0.1534  0.5806  0.6514
  125OSM   H11S13308   2.496   3.379   7.412 -0.3681  1.1869  0.4762
  125OSM   H11T13309   2.482   3.212   7.355 -3.4722 -1.3132 -2.1929
  125OSM   C12S13310   2.316   3.269   7.477  0.7540  0.3780 -0.2629
  125OSM   H12S13311   2.258   3.178   7.449  3.8077 -2.0117  0.9865
  125OSM   H12T13312   2.252   3.361   7.475  0.5262  0.3506  3.0565
  125OSM   C13S13313   2.374   3.270   7.615  0.1321  0.6318  0.5660
  125OSM   H13S13314   2.426   3.366   7.638 -0.9240  1.8521 -1.9551
  125OSM   H13T13315   2.443   3.184   7.630 -1.7120 -0.7722  1.2414
  125OSM   C14S13316   2.266   3.263   7.725 -0.1058 -1.2459 -0.3570
  125OSM   H14S13317   2.319   3.268   7.822  1.2059  1.3265 -1.1624
  125OSM   H14T13318   2.209   3.168   7.714 -1.8893  0.0561 -2.8049
  125OSM   C15S13319   2.178   3.386   7.739 -0.0555 -0.0833 -0.1194
  125OSM   H15S13320   2.147   3.435   7.644  1.1225  3.3626  1.2351
  125OSM   H15T13321   2.237   3.469   7.782  0.3508 -0.7735  0.6656
  125OSM   C16S13322   2.049   3.367   7.813  0.2068  0.2319 -0.2577
  125OSM   H16S13323   1.983   3.309   7.745  3.4176 -1.1476 -2.3095
  125OSM   H16T13324   1.996   3.465   7.823 -1.5691 -0.7137 -0.2868
  125OSM   C17S13325   2.065   3.305   7.956  0.4536  0.5701  0.3721
  125OSM   H17S13326   2.148   3.361   8.005  0.7243 -0.0572  0.6283
  125OSM   H17T13327   2.108   3.205   7.936  1.1565  0.4809  2.2049
  125OSM   C18S13328   1.936   3.281   8.035 -0.2639 -0.2503  0.4210
  125OSM   H18S13329   1.944   3.207   8.117  0.1000  1.8034  2.2845
  125OSM   H18T13330   1.839   3.257   7.986 -0.0915  0.9077 -0.5108
  125OSM   H18U13331   1.916   3.375   8.091 -1.7894 -0.7764  0.7957
  125OSM    C1F13332   2.639   2.582   6.752  0.8174 -0.0506 -0.5950
  125OSM     OF13333   2.746   2.565   6.683  0.0836  0.3037  0.3660
  125OSM    C2F13334   2.615   2.491   6.866  0.2587 -0.2241  0.1981
  125OSM    H2F13335   2.652   2.393   6.831 -1.0617 -0.3207 -1.0027
  125OSM    H2G13336   2.507   2.476   6.889  0.3006  1.4238  1.5633
  125OSM    C3F13337   2.683   2.536   6.997 -0.7019 -0.5211  0.1171
  125OSM    H3F13338   2.648   2.637   7.028  0.3188 -0.3780  0.8463
  125OSM    H3G13339   2.794   2.537   6.986 -0.8718 -0.4273 -1.7785
  125OSM    C4F13340   2.632   2.456   7.111 -0.3398 -0.0545 -0.6726
  125OSM    H4F13341   2.659   2.350   7.088  1.5536  0.2130  0.2531
  125OSM    H4G13342   2.521   2.465   7.116 -0.4992 -2.2387  1.1502
  125OSM    C5F13343   2.688   2.504   7.243 -0.0836 -0.6271 -0.6425
  125OSM    H5F13344   2.684   2.615   7.243  0.9159 -0.5761  1.2148
  125OSM    H5G13345   2.795   2.476   7.246  0.5284  1.5846 -0.8519
  125OSM    C6F13346   2.618   2.441   7.365 -0.1663  0.5772 -0.2912
  125OSM    H6F13347   2.636   2.332   7.357 -0.5865  0.2675  2.4677
  125OSM    H6G13348   2.509   2.460   7.358 -0.3077  0.1339  0.5828
  125OSM    C7F13349   2.671   2.487   7.504 -0.4629 -0.1536 -0.2725
  125OSM    H7F13350   2.647   2.594   7.522  1.9511  0.2424  0.8075
  125OSM    H7G13351   2.780   2.467   7.493 -0.7595 -1.9133 -0.0709
  125OSM    C8F13352   2.635   2.379   7.617 -0.1992 -0.5259 -0.7239
  125OSM    H8F13353   2.694   2.395   7.710 -0.3128 -3.1517 -0.1474
  125OSM    H8G13354   2.661   2.279   7.577 -0.2579 -1.4869  1.5052
  125OSM    C9F13355   2.487   2.385   7.649  0.0919  0.3469  0.4588
  125OSM    H9F13356   2.425   2.377   7.558 -1.4765  2.3281  1.3170
  125OSM   C10F13357   2.428   2.399   7.775 -0.1589 -0.6260  0.6001
  125OSM   H10F13358   2.321   2.425   7.776 -0.3186 -1.2758  1.3291
  125OSM   C11F13359   2.504   2.406   7.903  0.3421 -0.4882 -0.3176
  125OSM   H11F13360   2.548   2.506   7.920  0.0865 -0.4927  0.3829
  125OSM   H11G13361   2.594   2.342   7.907  1.5909  1.2157 -0.8011
  125OSM   C12F13362   2.425   2.371   8.030  0.2563  0.2087 -0.3320
  125OSM   H12F13363   2.323   2.414   8.032  0.5052  0.9221 -1.8900
  125OSM   H12G13364   2.485   2.399   8.119  2.9488  0.7880 -2.2409
  125OSM   C13F13365   2.417   2.225   8.051  0.2543  0.2978 -0.6875
  125OSM   H13F13366   2.522   2.191   8.046  0.7899  1.6171  1.0398
  125OSM   H13G13367   2.358   2.180   7.968 -1.0906  0.4167  0.1887
  125OSM   C14F13368   2.352   2.191   8.187 -0.8278 -0.8689  0.1934
  125OSM   H14F13369   2.309   2.089   8.184 -2.2780 -0.2614  0.0190
  125OSM   H14G13370   2.262   2.256   8.200  1.4366  2.6943 -1.1636
  125OSM   C15F13371   2.452   2.216   8.302 -0.7033 -0.1360  0.0391
  125OSM   H15F13372   2.435   2.317   8.345  1.1429  0.6910 -1.0966
  125OSM   H15G13373   2.555   2.220   8.261 -0.0720 -1.7200  1.4439
  125OSM   C16F13374   2.440   2.109   8.420 -0.5671  1.0214 -0.1899
  125OSM   H16F13375   2.465   2.008   8.381  0.3241  1.4023 -0.6109
  125OSM   H16G13376   2.333   2.108   8.450 -0.9333 -1.4599 -1.4087
  125OSM   C17F13377   2.516   2.131   8.556 -0.6128 -0.5449  0.5701
  125OSM   H17F13378   2.494   2.052   8.631  0.2495 -0.8182  0.5329
  125OSM   H17G13379   2.475   2.223   8.602 -1.7143 -0.5203 -0.4153
  125OSM   C18F13380   2.665   2.141   8.549 -0.3310 -0.0478  0.1014
  125OSM   H18F13381   2.719   2.160   8.644  0.1605  1.9561 -0.5512
  125OSM   H18G13382   2.702   2.214   8.473 -0.2268 -0.2220 -0.0137
  125OSM   H18H13383   2.698   2.039   8.519 -0.9746 -0.5894  1.2361
  126OSM      N13384   0.162   0.554   6.621 -0.1514 -0.0963  1.0101
  126OSM    C1513385   0.209   0.692   6.581  0.3047  0.0039 -0.5441
  126OSM   H15A13386   0.255   0.728   6.672 -0.1035 -1.9578  0.4518
  126OSM   H15B13387   0.132   0.757   6.542  1.0478  1.6222  0.6449
  126OSM   H15C13388   0.287   0.692   6.506  2.5411  1.4757  1.6671
  126OSM    C1413389   0.276   0.463   6.658 -0.7357 -0.1040 -0.3219
  126OSM   H14A13390   0.358   0.462   6.587 -1.0792 -1.7966 -0.7111
  126OSM   H14B13391   0.259   0.357   6.671  2.4574 -0.2182  4.0753
  126OSM   H14C13392   0.319   0.495   6.752  0.8490 -2.5338 -0.1778
  126OSM    C1313393   0.080   0.556   6.747  0.2411  0.0050 -0.6282
  126OSM   H13A13394   0.106   0.636   6.815  0.7825  1.4939 -2.5316
  126OSM   H13B13395   0.082   0.460   6.796 -0.2310  1.4430  2.3074
  126OSM   H13C13396  -0.023   0.566   6.716 -0.1648  1.4783  1.1111
  126OSM    C1213397   0.072   0.501   6.507 -0.6422 -0.5711  0.0622
  126OSM   H12A13398   0.030   0.404   6.533  0.0339 -0.4030  1.7880
  126OSM   H12B13399   0.131   0.473   6.421 -1.2826 -0.3877 -0.4461
  126OSM    C1113400  -0.035   0.598   6.450  0.1678 -0.2275 -0.0070
  126OSM   H11A13401  -0.097   0.538   6.380  0.4901 -0.3820 -0.1644
  126OSM   H11B13402   0.022   0.671   6.388 -0.4823  0.4908  0.2410
  126OSM      P13403  -0.146   0.797   6.567  0.1220 -0.0038 -0.2002
  126OSM    O1313404  -0.034   0.873   6.518 -0.5747 -0.2492 -0.1475
  126OSM    O1413405  -0.280   0.826   6.508 -0.4649  0.2241 -0.2971
  126OSM    O1113406  -0.154   0.817   6.723 -0.4517 -0.4459 -0.1649
  126OSM    O1213407  -0.112   0.645   6.560  0.6324  0.5309 -0.1285
  126OSM    C1S13408  -0.237   0.720   6.792  0.3626 -0.3437 -0.6505
  126OSM    H1S13409  -0.188   0.621   6.805  0.6410 -0.3323 -1.5932
  126OSM    H1T13410  -0.334   0.699   6.742 -0.6790 -1.7108  1.8771
  126OSM     NF13411  -0.325   0.643   6.997  0.5463  0.4825 -0.0422
  126OSM    HNF13412  -0.420   0.618   6.984  0.1074  2.2005 -0.2801
  126OSM    C2S13413  -0.275   0.767   6.936  0.5622 -0.3697  0.1002
  126OSM    H2S13414  -0.181   0.788   6.992 -0.2019  1.1650  0.8254
  126OSM    C3S13415  -0.363   0.891   6.940 -0.5503 -0.7178 -0.2424
  126OSM    H3S13416  -0.462   0.849   6.912 -0.5948 -0.7283 -0.0718
  126OSM     O313417  -0.329   0.990   6.844  0.3555  0.1390 -0.1878
  126OSM    HO313418  -0.294   0.945   6.767  0.9261  0.9808 -0.4285
  126OSM    C4S13419  -0.371   0.958   7.072  0.1932 -0.7604  0.0950
  126OSM    H4S13420  -0.275   0.980   7.121  0.1985 -0.8360  0.1169
  126OSM    C5S13421  -0.482   0.997   7.139 -0.1053  0.3096  0.1396
  126OSM    H5S13422  -0.581   0.974   7.097 -1.1370  1.0017  2.1157
  126OSM    C6S13423  -0.470   1.065   7.270 -0.0418 -0.7432  0.6411
  126OSM    H6S13424  -0.540   1.151   7.272  0.3493 -0.4454  2.2355
  126OSM    H6T13425  -0.370   1.107   7.295  1.1271 -2.8514 -0.3386
  126OSM    C7S13426  -0.517   0.978   7.386 -0.0748  0.0001  0.5755
  126OSM    H7S13427  -0.449   0.893   7.408 -0.2509 -0.1189  0.6570
  126OSM    H7T13428  -0.608   0.927   7.347 -0.6364  1.8956 -0.6425
  126OSM    C8S13429  -0.544   1.058   7.509 -0.5024  0.0140 -0.8493
  126OSM    H8S13430  -0.616   1.007   7.575 -1.2676 -2.1573 -3.2697
  126OSM    H8T13431  -0.587   1.154   7.475 -4.2467 -1.4842 -0.5544
  126OSM    C9S13432  -0.421   1.067   7.606 -0.5655 -0.4539  0.0634
  126OSM    H9S13433  -0.342   1.119   7.547 -0.9240 -1.6414 -1.4812
  126OSM    H9T13434  -0.402   0.962   7.637 -1.3164 -0.3048  1.0775
  126OSM   C10S13435  -0.432   1.148   7.733  0.5691 -0.6718 -1.1347
  126OSM   H10S13436  -0.486   1.244   7.713  0.9124 -0.5788 -1.6141
  126OSM   H10T13437  -0.331   1.174   7.770  1.1564 -2.5889 -1.3730
  126OSM   C11S13438  -0.533   1.095   7.839  0.5593 -0.1051  0.2412
  126OSM   H11S13439  -0.524   0.985   7.851 -2.0846 -0.6471 -2.1339
  126OSM   H11T13440  -0.636   1.116   7.803 -1.2320 -0.7356  4.7847
  126OSM   C12S13441  -0.531   1.159   7.981  0.8469 -0.0804 -0.4540
  126OSM   H12S13442  -0.548   1.268   7.970 -0.9542 -0.2336  0.5519
  126OSM   H12T13443  -0.432   1.142   8.030 -0.1786 -1.6843  1.1357
  126OSM   C13S13444  -0.624   1.097   8.081  0.3499  0.0635 -0.3856
  126OSM   H13S13445  -0.668   1.005   8.037  0.0330 -0.3206  0.7097
  126OSM   H13T13446  -0.712   1.163   8.098  0.4725  0.0712  0.2618
  126OSM   C14S13447  -0.560   1.064   8.217 -0.0369 -0.1889  0.3922
  126OSM   H14S13448  -0.507   1.155   8.253  0.9942 -0.3307 -0.7726
  126OSM   H14T13449  -0.484   0.986   8.194 -0.3103 -0.1143 -0.8045
  126OSM   C15S13450  -0.656   1.015   8.326 -0.2719  0.3876 -0.0721
  126OSM   H15S13451  -0.704   0.928   8.275  2.2841 -0.4520 -1.1405
  126OSM   H15T13452  -0.733   1.093   8.338 -1.4553 -0.3960 -2.3119
  126OSM   C16S13453  -0.600   0.970   8.465 -0.1015  0.0260 -0.1917
  126OSM   H16S13454  -0.676   0.923   8.531  0.1530 -0.2450 -0.0900
  126OSM   H16T13455  -0.566   1.062   8.517 -0.3298 -0.3671  0.6657
  126OSM   C17S13456  -0.484   0.868   8.446 -0.0704 -0.3122  0.1111
  126OSM   H17S13457  -0.393   0.923   8.414  0.4617  0.3837  2.6840
  126OSM   H17T13458  -0.523   0.803   8.365  0.3850 -3.0007  2.0098
  126OSM   C18S13459  -0.453   0.771   8.557  0.1113 -0.3470  0.0793
  126OSM   H18S13460  -0.471   0.832   8.648  0.0033  1.6979 -1.2549
  126OSM   H18T13461  -0.354   0.722   8.554 -0.7415 -2.1066  0.4102
  126OSM   H18U13462  -0.524   0.686   8.563 -0.5064  0.1414 -0.2187
  126OSM    C1F13463  -0.247   0.558   7.060  0.1189  0.3526 -0.3946
  126OSM     OF13464  -0.121   0.567   7.052  0.0545 -0.4109 -0.0227
  126OSM    C2F13465  -0.318   0.452   7.147 -0.5412  0.0191 -0.1027
  126OSM    H2F13466  -0.311   0.357   7.091 -0.4039  0.6841 -1.2178
  126OSM    H2G13467  -0.426   0.477   7.150 -0.5983 -0.2300 -0.0361
  126OSM    C3F13468  -0.270   0.437   7.293 -0.1974  0.3307 -0.7762
  126OSM    H3F13469  -0.263   0.529   7.353 -0.7772 -1.1377  1.5948
  126OSM    H3G13470  -0.165   0.399   7.292 -1.1506 -2.4540 -0.2319
  126OSM    C4F13471  -0.370   0.345   7.372  0.8462 -0.6426  0.5841
  126OSM    H4F13472  -0.401   0.253   7.318 -0.1736 -0.7939  1.4123
  126OSM    H4G13473  -0.454   0.413   7.400  0.2338 -0.6461 -1.1932
  126OSM    C5F13474  -0.313   0.290   7.492 -0.6055  0.6211  0.3961
  126OSM    H5F13475  -0.211   0.253   7.465  0.1842  3.2261 -0.3683
  126OSM    H5G13476  -0.370   0.205   7.534  1.1743 -0.0769  1.4603
  126OSM    C6F13477  -0.280   0.380   7.607 -0.6587  0.4306 -0.5338
  126OSM    H6F13478  -0.370   0.442   7.626  0.4876  2.0983 -0.3459
  126OSM    H6G13479  -0.204   0.455   7.575 -0.3336  0.0467 -0.6554
  126OSM    C7F13480  -0.243   0.302   7.735  0.5103  0.2278  0.7345
  126OSM    H7F13481  -0.132   0.296   7.742  0.3547 -2.9663  0.9942
  126OSM    H7G13482  -0.271   0.195   7.725 -2.0912  0.8309  1.1562
  126OSM    C8F13483  -0.296   0.353   7.870 -0.4727 -0.0873  0.8555
  126OSM    H8F13484  -0.393   0.405   7.854  0.7421  2.7076  2.2048
  126OSM    H8G13485  -0.229   0.438   7.896 -0.9991  0.0991  1.6320
  126OSM    C9F13486  -0.315   0.244   7.977 -0.0594 -0.1823  0.7193
  126OSM    H9F13487  -0.395   0.171   7.958 -0.1542 -0.5817  2.5860
  126OSM   C10F13488  -0.263   0.232   8.097  0.1435 -0.1325  0.0249
  126OSM   H10F13489  -0.290   0.145   8.159  2.2183 -0.6704  0.2022
  126OSM   C11F13490  -0.169   0.319   8.171  0.0509 -0.8812 -0.4355
  126OSM   H11F13491  -0.145   0.398   8.097  1.1830  0.0558  0.9180
  126OSM   H11G13492  -0.077   0.268   8.205  0.2173  0.3064  0.9550
  126OSM   C12F13493  -0.218   0.392   8.299 -0.3230  0.2742 -0.4581
  126OSM   H12F13494  -0.303   0.463   8.289  0.7827  1.3835 -1.9864
  126OSM   H12G13495  -0.139   0.460   8.339 -0.9167  0.2502  0.7811
  126OSM   C13F13496  -0.254   0.300   8.413  0.5082 -0.0502 -0.4330
  126OSM   H13F13497  -0.181   0.216   8.409  1.1827  0.5909 -1.7905
  126OSM   H13G13498  -0.355   0.256   8.393  1.0128 -0.5897 -1.8552
  126OSM   C14F13499  -0.272   0.373   8.550 -0.1732  0.0566  1.2409
  126OSM   H14F13500  -0.332   0.465   8.532 -0.8146 -0.8177 -1.3404
  126OSM   H14G13501  -0.172   0.416   8.570  1.2612 -1.7188 -1.7920
  126OSM   C15F13502  -0.316   0.273   8.662 -0.2228 -0.2302 -0.0842
  126OSM   H15F13503  -0.333   0.174   8.616 -1.7411  1.5116 -3.4585
  126OSM   H15G13504  -0.410   0.311   8.707  0.0102  0.4974 -0.2039
  126OSM   C16F13505  -0.212   0.257   8.776  0.0033 -0.1724  0.1358
  126OSM   H16F13506  -0.169   0.356   8.803  1.9609 -1.5448  2.2562
  126OSM   H16G13507  -0.119   0.208   8.741 -1.2617 -1.5585 -1.3420
  126OSM   C17F13508  -0.266   0.186   8.900  0.6222 -0.2371 -0.2948
  126OSM   H17F13509  -0.308   0.088   8.869  0.3185  0.2758 -1.5280
  126OSM   H17G13510  -0.345   0.253   8.939 -0.4882 -0.3056 -2.3738
  126OSM   C18F13511  -0.152   0.157   9.002 -0.1236 -0.2202  0.4654
  126OSM   H18F13512  -0.124   0.248   9.060  1.7463  0.5236 -1.5396
  126OSM   H18G13513  -0.055   0.128   8.957  0.6413  0.0386  1.9241
  126OSM   H18H13514  -0.180   0.084   9.081 -0.9972  0.7817  1.0927
  127OSM      N13515   4.898   2.248   6.048 -0.3468  0.5446 -0.6319
  127OSM    C1513516   5.018   2.338   6.041 -0.4038  0.1382  0.6597
  127OSM   H15A13517   5.037   2.353   5.936 -0.3615 -0.2342  0.6150
  127OSM   H15B13518   5.102   2.298   6.095 -0.0966  1.1883  0.9699
  127OSM   H15C13519   5.007   2.442   6.068  0.7513  0.3048  0.5174
  127OSM    C1413520   4.807   2.317   5.950  0.1236 -0.0688  0.0651
  127OSM   H14A13521   4.706   2.279   5.952 -0.3786  1.2747  0.6769
  127OSM   H14B13522   4.853   2.299   5.854  1.9475  0.7748  0.7670
  127OSM   H14C13523   4.810   2.424   5.959 -0.4617 -0.0595  0.1443
  127OSM    C1313524   4.932   2.114   5.986  0.4515 -0.0025  0.8115
  127OSM   H13A13525   4.981   2.132   5.892 -0.9026  0.7107  0.2294
  127OSM   H13B13526   4.852   2.043   5.974  0.5643  0.2053 -1.4232
  127OSM   H13C13527   5.007   2.068   6.049 -0.0797 -0.9993  0.7105
  127OSM    C1213528   4.854   2.239   6.191  0.5287 -0.5486  0.4864
  127OSM   H12A13529   4.771   2.171   6.194  2.6307 -3.6684 -4.8067
  127OSM   H12B13530   4.814   2.337   6.214  1.2901 -0.4192  1.2886
  127OSM    C1113531   4.960   2.201   6.298 -0.5354  0.1278 -0.5895
  127OSM   H11A13532   4.914   2.183   6.398 -0.0548  0.6393 -0.2726
  127OSM   H11B13533   5.033   2.284   6.311 -1.1347  0.3807  1.2773
  127OSM      P13534   5.170   2.052   6.263  0.0454 -0.1097  0.3157
  127OSM    O1313535   5.197   1.916   6.210 -0.2511  0.6342  0.2700
  127OSM    O1413536   5.244   2.163   6.198  0.2077  0.0026 -0.1404
  127OSM    O1113537   5.214   2.050   6.410 -0.4978  0.4114  0.7188
  127OSM    O1213538   5.016   2.071   6.270 -0.1431  0.3534  0.4502
  127OSM    C1S13539   5.152   1.988   6.522  0.7508  0.5501  0.6952
  127OSM    H1S13540   5.187   1.883   6.529  2.0178  0.9146 -0.1356
  127OSM    H1T13541   5.041   1.984   6.516  0.8563 -1.1082 -0.5202
  127OSM     NF13542   5.111   1.992   6.762  0.0101  0.0437  0.1669
  127OSM    HNF13543   5.054   2.050   6.819 -0.7763  0.1718 -0.7484
  127OSM    C2S13544   5.185   2.060   6.654 -0.3132  0.3195 -0.5496
  127OSM    H2S13545   5.293   2.045   6.672  0.0497 -0.0858 -2.9074
  127OSM    C3S13546   5.166   2.214   6.647 -0.1356  0.9179 -0.1518
  127OSM    H3S13547   5.060   2.233   6.619 -0.2454  1.6276  0.7287
  127OSM     O313548   5.237   2.274   6.538  0.2543  0.1139  0.2451
  127OSM    HO313549   5.280   2.199   6.495  0.0941  0.9514 -1.4153
  127OSM    C4S13550   5.186   2.290   6.775  0.1925 -0.1463  0.1081
  127OSM    H4S13551   5.283   2.283   6.826  0.0056 -1.6543  0.2644
  127OSM    C5S13552   5.090   2.358   6.842 -0.2187 -0.3334 -0.6406
  127OSM    H5S13553   4.988   2.367   6.801 -0.7209 -1.1854  0.3655
  127OSM    C6S13554   5.103   2.449   6.965  0.6099  0.6331  0.2911
  127OSM    H6S13555   5.092   2.556   6.934 -2.5130  0.3225  0.0987
  127OSM    H6T13556   5.193   2.425   7.025  0.3605  0.3553  0.5532
  127OSM    C7S13557   4.980   2.429   7.048  0.3266 -0.3110 -0.1483
  127OSM    H7S13558   4.880   2.432   7.000 -0.3660 -0.4963  1.2514
  127OSM    H7T13559   4.974   2.525   7.104 -2.3986 -1.1126  1.0474
  127OSM    C8S13560   4.980   2.298   7.121 -0.7657 -0.6166  0.8066
  127OSM    H8S13561   5.079   2.275   7.166 -0.1525  0.3696 -0.0093
  127OSM    H8T13562   4.951   2.214   7.056 -2.8444 -0.7857  1.9109
  127OSM    C9S13563   4.892   2.296   7.248 -0.1426  0.0919  0.0901
  127OSM    H9S13564   4.789   2.313   7.211  0.2892  0.2807 -1.0433
  127OSM    H9T13565   4.921   2.375   7.321  0.6147 -0.0975 -0.0011
  127OSM   C10S13566   4.894   2.154   7.310  0.1752  0.3249  0.2468
  127OSM   H10S13567   4.994   2.129   7.353  0.4324 -0.1479 -0.6128
  127OSM   H10T13568   4.858   2.073   7.243 -0.1789  0.5745  0.1369
  127OSM   C11S13569   4.805   2.149   7.439 -0.0364 -0.2145  0.0019
  127OSM   H11S13570   4.797   2.044   7.475  1.3294 -0.8341 -1.4341
  127OSM   H11T13571   4.699   2.170   7.415  0.7360  1.7577 -1.8414
  127OSM   C12S13572   4.864   2.217   7.559 -0.4707 -0.3249 -0.6446
  127OSM   H12S13573   4.861   2.326   7.540  1.9903 -0.1011  0.0297
  127OSM   H12T13574   4.956   2.184   7.611 -0.8824 -0.1898  0.1819
  127OSM   C13S13575   4.765   2.215   7.671  0.0397  0.0309 -0.4272
  127OSM   H13S13576   4.755   2.116   7.720 -1.8234  0.5991  0.4057
  127OSM   H13T13577   4.666   2.251   7.634  1.0481  1.0651 -2.1920
  127OSM   C14S13578   4.792   2.312   7.789 -0.2581 -0.4830 -0.6655
  127OSM   H14S13579   4.819   2.408   7.741 -1.7639  1.1371  1.6262
  127OSM   H14T13580   4.879   2.277   7.848  1.5720  1.6004 -2.0503
  127OSM   C15S13581   4.673   2.320   7.886  0.0145  0.4774 -0.3046
  127OSM   H15S13582   4.679   2.235   7.958 -0.4727 -0.3489 -1.2176
  127OSM   H15T13583   4.573   2.308   7.839 -0.7415  1.2340  1.0944
  127OSM   C16S13584   4.673   2.456   7.954  0.2587  0.1680 -0.3109
  127OSM   H16S13585   4.631   2.531   7.884  0.9018  0.4872 -0.3628
  127OSM   H16T13586   4.780   2.481   7.972 -0.0953  2.4042 -1.1552
  127OSM   C17S13587   4.596   2.453   8.085 -0.1372  0.5137 -0.4224
  127OSM   H17S13588   4.568   2.553   8.124  0.6685 -0.2376  2.2124
  127OSM   H17T13589   4.668   2.432   8.168  1.1318  0.2031 -1.5741
  127OSM   C18S13590   4.475   2.359   8.100  0.5459 -0.9043  0.6679
  127OSM   H18S13591   4.407   2.401   8.177  1.1712  1.0901  0.1577
  127OSM   H18T13592   4.517   2.264   8.140  0.4040 -1.2409  0.0283
  127OSM   H18U13593   4.421   2.337   8.005  0.2892 -1.9814  1.0561
  127OSM    C1F13594   5.120   1.858   6.793  0.8817  0.1522  0.0864
  127OSM     OF13595   5.212   1.792   6.741  0.1188  0.6532  0.8346
  127OSM    C2F13596   5.023   1.804   6.893  0.1711 -0.1522  0.0476
  127OSM    H2F13597   4.932   1.761   6.847  0.1557 -0.6378  0.5298
  127OSM    H2G13598   5.004   1.885   6.966  2.4371 -0.0670  0.5946
  127OSM    C3F13599   5.084   1.685   6.973 -0.8295  0.0649  0.1787
  127OSM    H3F13600   5.086   1.598   6.904  1.6016 -1.4160  2.0226
  127OSM    H3G13601   5.016   1.657   7.056 -0.0029  1.2222  1.2611
  127OSM    C4F13602   5.216   1.706   7.049 -0.3951 -1.4500 -0.2375
  127OSM    H4F13603   5.255   1.801   7.006 -1.4586  0.2238  2.3585
  127OSM    H4G13604   5.280   1.624   7.010  0.8179  0.6233 -2.7827
  127OSM    C5F13605   5.202   1.696   7.205 -0.0773  0.5816  0.7980
  127OSM    H5F13606   5.309   1.710   7.230  0.9726  2.0140 -4.0311
  127OSM    H5G13607   5.170   1.597   7.243  1.3006  0.2289  1.0510
  127OSM    C6F13608   5.118   1.810   7.268 -0.2949 -0.6979 -0.4282
  127OSM    H6F13609   5.013   1.786   7.242 -0.4891 -3.0837  2.2383
  127OSM    H6G13610   5.149   1.910   7.231 -1.2577 -1.0115 -2.1124
  127OSM    C7F13611   5.134   1.811   7.428 -0.7282 -0.7095  0.5929
  127OSM    H7F13612   5.093   1.714   7.465  0.2073 -0.7299  1.5798
  127OSM    H7G13613   5.064   1.888   7.468  0.1824  0.6807 -0.4270
  127OSM    C8F13614   5.269   1.812   7.482  0.1869  0.4118 -0.6272
  127OSM    H8F13615   5.325   1.724   7.442 -0.5702  0.4716 -1.8342
  127OSM    H8G13616   5.269   1.799   7.592  0.8175 -1.5342 -0.8269
  127OSM    C9F13617   5.344   1.940   7.443 -0.0702  0.5519 -0.4033
  127OSM    H9F13618   5.381   1.939   7.339  2.6915  2.4856  0.5393
  127OSM   C10F13619   5.363   2.052   7.520  0.3222 -0.3862  0.4128
  127OSM   H10F13620   5.440   2.118   7.478  0.7963 -1.2587 -0.1143
  127OSM   C11F13621   5.312   2.066   7.662  0.0126  0.1546  0.0132
  127OSM   H11F13622   5.394   2.045   7.734 -0.2736  1.2125  0.6574
  127OSM   H11G13623   5.232   1.996   7.696 -0.1177  0.2114 -0.1784
  127OSM   C12F13624   5.273   2.214   7.678 -0.2168  0.2916  0.5395
  127OSM   H12F13625   5.179   2.233   7.621 -0.0501  0.9021  0.4570
  127OSM   H12G13626   5.344   2.288   7.634 -3.3961  1.9430 -2.0376
  127OSM   C13F13627   5.257   2.257   7.830  0.5360 -0.4001 -0.7881
  127OSM   H13F13628   5.239   2.365   7.846 -1.2003 -0.8032  0.1620
  127OSM   H13G13629   5.356   2.236   7.875 -0.2903 -0.4044  1.0818
  127OSM   C14F13630   5.152   2.171   7.912 -0.9857 -0.0405 -0.5464
  127OSM   H14F13631   5.178   2.065   7.889 -0.2457  0.3553 -1.5451
  127OSM   H14G13632   5.045   2.184   7.885 -0.6682  1.4495 -1.0950
  127OSM   C15F13633   5.155   2.178   8.062  0.0549 -0.0184  0.1040
  127OSM   H15F13634   5.257   2.145   8.091 -0.0839 -0.1737  0.4302
  127OSM   H15G13635   5.086   2.102   8.106 -1.0605  1.8102  1.6002
  127OSM   C16F13636   5.128   2.317   8.118  0.4592 -0.2378 -0.9306
  127OSM   H16F13637   5.030   2.356   8.082  1.5060  2.1592 -1.2755
  127OSM   H16G13638   5.202   2.392   8.083 -2.3856  4.1030  1.7821
  127OSM   C17F13639   5.116   2.317   8.269 -0.0923  0.1224 -0.7590
  127OSM   H17F13640   5.211   2.284   8.315  0.0462  0.1210 -1.0516
  127OSM   H17G13641   5.030   2.251   8.296  1.3528 -1.3970  0.2365
  127OSM   C18F13642   5.089   2.456   8.334  0.5601  0.6574 -0.1733
  127OSM   H18F13643   4.985   2.479   8.305  0.4265 -2.1894 -2.1826
  127OSM   H18G13644   5.157   2.541   8.312  2.3095 -0.1634  1.8807
  127OSM   H18H13645   5.090   2.447   8.445 -0.8651 -1.3081 -0.2968
  128OSM      N13646   4.617   5.265   5.840  0.4206  0.1714 -0.6897
  128OSM    C1513647   4.525   5.317   5.732  0.0569 -0.4990  0.4746
  128OSM   H15A13648   4.561   5.294   5.633  1.4352  1.4287  0.5172
  128OSM   H15B13649   4.519   5.424   5.740  0.0307 -0.3247 -1.6152
  128OSM   H15C13650   4.428   5.275   5.757 -0.4329  0.8787  0.8871
  128OSM    C1413651   4.604   5.116   5.835  0.4711 -0.4146  0.4661
  128OSM   H14A13652   4.503   5.085   5.858  0.8501 -1.2437  1.0508
  128OSM   H14B13653   4.668   5.066   5.906  0.0112  1.3655  2.1680
  128OSM   H14C13654   4.620   5.080   5.735  0.7317  1.4792 -0.1928
  128OSM    C1313655   4.754   5.301   5.810  0.6606  0.0471  0.0007
  128OSM   H13A13656   4.766   5.302   5.703  0.3123 -1.3599 -0.0655
  128OSM   H13B13657   4.827   5.247   5.869  1.2322 -1.4705 -2.0116
  128OSM   H13C13658   4.771   5.400   5.850  2.5120 -0.8365  1.4881
  128OSM    C1213659   4.585   5.315   5.982  0.7704 -0.2046  0.2682
  128OSM   H12A13660   4.648   5.266   6.055  0.9342 -0.1742  0.1479
  128OSM   H12B13661   4.485   5.297   6.016 -0.2208  3.8481 -0.2211
  128OSM    C1113662   4.580   5.469   6.013 -0.0701 -0.2765 -0.5530
  128OSM   H11A13663   4.529   5.488   6.110  2.9514  2.1548  0.6718
  128OSM   H11B13664   4.518   5.521   5.937  0.1112  4.2577  2.1658
  128OSM      P13665   4.810   5.514   6.129 -0.2813  0.1344 -0.2330
  128OSM    O1313666   4.951   5.534   6.084 -0.1201  0.4251  0.0364
  128OSM    O1413667   4.753   5.603   6.233 -0.7145 -0.0708  0.1178
  128OSM    O1113668   4.788   5.366   6.186 -0.2532 -0.4001 -0.2834
  128OSM    O1213669   4.715   5.512   6.006  0.6378  0.3972  0.9101
  128OSM    C1S13670   4.866   5.313   6.287  1.1683  0.4529 -0.3262
  128OSM    H1S13671   4.968   5.359   6.284  0.4104  2.2538  0.7687
  128OSM    H1T13672   4.882   5.204   6.269  0.0671  0.1918  0.2584
  128OSM     NF13673   4.912   5.272   6.519  0.0261 -0.0169 -0.2016
  128OSM    HNF13674   4.890   5.176   6.537  1.0330  0.0732  1.6554
  128OSM    C2S13675   4.821   5.332   6.430 -0.0399 -0.9343  0.8770
  128OSM    H2S13676   4.806   5.438   6.459 -2.2102 -0.7498 -0.7528
  128OSM    C3S13677   4.680   5.270   6.439  0.7718 -0.0313 -0.3338
  128OSM    H3S13678   4.683   5.162   6.411 -1.7689 -0.9233  2.5318
  128OSM     O313679   4.589   5.334   6.348  0.1066  0.4917 -0.5506
  128OSM    HO313680   4.652   5.394   6.307  0.6725  1.0573  1.1043
  128OSM    C4S13681   4.628   5.295   6.575  0.4814  0.2577  0.2752
  128OSM    H4S13682   4.590   5.397   6.593  1.2372  1.1196 -2.7833
  128OSM    C5S13683   4.621   5.205   6.676 -0.2930 -0.0251  0.1071
  128OSM    H5S13684   4.670   5.111   6.646 -0.5359 -0.3083  0.6060
  128OSM    C6S13685   4.562   5.244   6.812 -0.2642  0.3545 -0.6951
  128OSM    H6S13686   4.590   5.171   6.891  0.8197  1.1300 -0.3483
  128OSM    H6T13687   4.452   5.230   6.800 -0.5972  1.9885  0.2718
  128OSM    C7S13688   4.592   5.389   6.868 -0.0246 -0.3360 -0.0451
  128OSM    H7S13689   4.555   5.381   6.973 -1.7981 -2.1180 -0.7752
  128OSM    H7T13690   4.536   5.467   6.811  0.3640  0.8841  1.1980
  128OSM    C8S13691   4.738   5.437   6.870  0.5469  0.5532 -0.5263
  128OSM    H8S13692   4.771   5.460   6.767  0.6284 -1.4629 -0.9716
  128OSM    H8T13693   4.802   5.358   6.916  1.4157  0.7288 -1.4216
  128OSM    C9S13694   4.753   5.566   6.949 -0.3606 -0.0776 -0.3023
  128OSM    H9S13695   4.680   5.640   6.909 -1.1932  0.4759  2.1213
  128OSM    H9T13696   4.851   5.609   6.921  1.1375 -2.7539  0.7349
  128OSM   C10S13697   4.736   5.542   7.102  0.0938  0.2703 -0.1240
  128OSM   H10S13698   4.812   5.468   7.136  1.1697  1.1009 -0.7053
  128OSM   H10T13699   4.636   5.501   7.128  0.6464 -1.1757 -0.2211
  128OSM   C11S13700   4.768   5.673   7.184 -0.4766 -0.4605 -0.4945
  128OSM   H11S13701   4.697   5.751   7.150 -1.9516 -1.5640  0.0153
  128OSM   H11T13702   4.873   5.695   7.156 -0.6873 -1.6628 -2.3179
  128OSM   C12S13703   4.751   5.651   7.339  0.4359 -0.1841  0.0601
  128OSM   H12S13704   4.797   5.552   7.359  2.1353  0.3666 -0.9861
  128OSM   H12T13705   4.641   5.656   7.353  0.3432  0.3524 -0.8003
  128OSM   C13S13706   4.819   5.761   7.424  0.1671 -0.7063 -0.2418
  128OSM   H13S13707   4.768   5.857   7.402  1.3428 -0.6819 -2.9507
  128OSM   H13T13708   4.924   5.773   7.391  0.2627 -1.5463 -0.2510
  128OSM   C14S13709   4.807   5.742   7.574 -0.6733 -0.0661  0.7028
  128OSM   H14S13710   4.707   5.700   7.599 -0.2374 -1.1395  0.6737
  128OSM   H14T13711   4.808   5.839   7.628  2.9201  0.0699  0.4870
  128OSM   C15S13712   4.915   5.646   7.621  0.6395  0.8628 -0.0174
  128OSM   H15S13713   5.014   5.694   7.605  0.2539  1.1959 -1.5497
  128OSM   H15T13714   4.903   5.555   7.559  0.0432  1.7707 -1.2715
  128OSM   C16S13715   4.906   5.629   7.773  0.5090 -0.3217 -0.2777
  128OSM   H16S13716   4.986   5.554   7.792 -1.4444 -2.3158  0.3657
  128OSM   H16T13717   4.807   5.589   7.804  0.0262  1.9809  1.2509
  128OSM   C17S13718   4.923   5.759   7.861  0.0597  0.5843  0.3631
  128OSM   H17S13719   4.945   5.724   7.964 -0.8215 -2.9410 -0.5764
  128OSM   H17T13720   4.837   5.828   7.854  0.0288  0.6212  1.0193
  128OSM   C18S13721   5.047   5.849   7.829  0.2065 -0.1479  0.0800
  128OSM   H18S13722   5.019   5.892   7.731 -3.6049 -0.1707  1.0774
  128OSM   H18T13723   5.137   5.789   7.805  1.6216  1.8105  0.4023
  128OSM   H18U13724   5.073   5.925   7.907 -0.0386  0.5015 -0.4709
  128OSM    C1F13725   5.032   5.327   6.541  0.0028  0.3628  0.1065
  128OSM     OF13726   5.068   5.432   6.491 -0.6408 -0.0814  0.2028
  128OSM    C2F13727   5.122   5.235   6.620 -0.3069 -0.4053 -0.4748
  128OSM    H2F13728   5.216   5.293   6.621 -0.7754  0.5108  4.4971
  128OSM    H2G13729   5.136   5.143   6.559 -1.5545 -0.7163 -0.3140
  128OSM    C3F13730   5.065   5.200   6.754 -0.0917  0.3843 -0.1553
  128OSM    H3F13731   5.125   5.111   6.784 -0.2892  0.7308  1.3134
  128OSM    H3G13732   4.959   5.169   6.747 -0.7583  2.3937  0.6814
  128OSM    C4F13733   5.081   5.319   6.847  0.4751 -0.1172  0.1004
  128OSM    H4F13734   5.013   5.406   6.835  0.8732  0.0989 -0.6284
  128OSM    H4G13735   5.184   5.361   6.847  0.3703  0.1528 -0.5442
  128OSM    C5F13736   5.076   5.265   6.991 -0.2988  0.0263 -0.1584
  128OSM    H5F13737   5.144   5.178   7.005 -1.2128 -0.8716 -1.1720
  128OSM    H5G13738   4.970   5.241   7.014 -0.5163  0.1644 -0.9952
  128OSM    C6F13739   5.104   5.380   7.092  0.3154  0.6310  0.2613
  128OSM    H6F13740   5.043   5.464   7.054 -1.3166 -0.0194  1.3705
  128OSM    H6G13741   5.213   5.404   7.099 -0.0118  2.1519  0.3355
  128OSM    C7F13742   5.053   5.360   7.237 -0.2286 -0.2222  0.2815
  128OSM    H7F13743   4.946   5.340   7.220 -0.2632 -0.9085  1.2195
  128OSM    H7G13744   5.072   5.454   7.293  2.3864 -0.1057 -0.7068
  128OSM    C8F13745   5.111   5.237   7.310 -0.2461 -0.1775 -1.0411
  128OSM    H8F13746   5.082   5.149   7.249  0.2655 -0.7689 -0.4305
  128OSM    H8G13747   5.075   5.236   7.415  2.1474 -2.2480 -0.1730
  128OSM    C9F13748   5.263   5.252   7.315 -0.2892  0.7855 -0.0590
  128OSM    H9F13749   5.300   5.223   7.215  0.2117  0.4167  0.2361
  128OSM   C10F13750   5.342   5.291   7.422 -0.4891 -0.0083 -0.0624
  128OSM   H10F13751   5.451   5.280   7.416 -0.3824  0.7118  0.4770
  128OSM   C11F13752   5.290   5.329   7.562 -1.1166 -0.2681 -0.1358
  128OSM   H11F13753   5.203   5.397   7.552  0.3587  1.8173  0.7073
  128OSM   H11G13754   5.369   5.387   7.615 -0.5975 -0.4851 -0.6660
  128OSM   C12F13755   5.260   5.199   7.643  0.0959 -0.5755  0.0121
  128OSM   H12F13756   5.334   5.120   7.617 -0.8599 -0.7860 -2.1594
  128OSM   H12G13757   5.161   5.158   7.612  1.6349 -0.5683 -5.4446
  128OSM   C13F13758   5.246   5.219   7.804 -0.4574 -0.6160 -0.4189
  128OSM   H13F13759   5.343   5.253   7.846 -0.8926  1.3905 -0.9855
  128OSM   H13G13760   5.222   5.125   7.858  1.1176 -1.7071 -1.5250
  128OSM   C14F13761   5.135   5.316   7.852  0.3885  0.1751 -0.2255
  128OSM   H14F13762   5.033   5.293   7.814 -0.0104 -1.5698  1.8369
  128OSM   H14G13763   5.158   5.416   7.807 -1.0596  0.8567  0.5210
  128OSM   C15F13764   5.125   5.327   8.007 -0.1032  0.5600 -1.0506
  128OSM   H15F13765   5.215   5.376   8.049  0.1665 -0.7057 -0.1143
  128OSM   H15G13766   5.121   5.226   8.054  1.3386  1.3775  0.9005
  128OSM   C16F13767   5.003   5.411   8.053 -0.6000 -0.1831 -0.4024
  128OSM   H16F13768   4.917   5.358   8.007 -1.0175  0.2248 -0.0868
  128OSM   H16G13769   5.010   5.509   8.002 -1.2277  0.4531  0.7340
  128OSM   C17F13770   4.995   5.425   8.208 -0.2065  0.2968  0.5932
  128OSM   H17F13771   5.054   5.512   8.243 -0.5824  0.0851  1.7655
  128OSM   H17G13772   5.036   5.331   8.251  0.8145  1.2689  1.7767
  128OSM   C18F13773   4.860   5.434   8.269  0.5056 -0.7383 -0.2536
  128OSM   H18F13774   4.796   5.508   8.217  1.1937 -1.0017 -1.4874
  128OSM   H18G13775   4.867   5.458   8.377 -1.4231  2.1660 -0.7032
  128OSM   H18H13776   4.805   5.338   8.255  0.3280 -0.6721 -0.0153
  129OSM      N13777   2.738   1.349   6.071 -0.1189 -0.6608  0.7200
  129OSM    C1513778   2.793   1.271   5.964 -0.2369  0.5132 -0.3174
  129OSM   H15A13779   2.895   1.238   5.981 -0.2510 -0.7397 -2.3887
  129OSM   H15B13780   2.787   1.327   5.871  0.8674  1.3389  0.0941
  129OSM   H15C13781   2.735   1.182   5.942  0.4070  0.1329 -0.5222
  129OSM    C1413782   2.794   1.483   6.067  0.6578 -0.4244  0.5211
  129OSM   H14A13783   2.732   1.551   6.124  0.8327 -0.0014  0.2139
  129OSM   H14B13784   2.789   1.520   5.965 -1.1280 -2.6734 -0.2505
  129OSM   H14C13785   2.896   1.480   6.101  0.5780 -1.9851  0.6208
  129OSM    C1313786   2.588   1.352   6.054  0.4075 -0.5492 -0.1597
  129OSM   H13A13787   2.552   1.250   6.046 -1.0123 -0.0051 -0.7770
  129OSM   H13B13788   2.549   1.396   5.964  0.2066  0.9207  0.6384
  129OSM   H13C13789   2.555   1.402   6.144 -0.9632  0.9520 -1.4749
  129OSM    C1213790   2.774   1.282   6.206 -0.1146  0.6008  0.3089
  129OSM   H12A13791   2.724   1.331   6.289  0.8510 -1.3212  2.0865
  129OSM   H12B13792   2.876   1.311   6.227 -0.4044  0.7582  1.6011
  129OSM    C1113793   2.750   1.125   6.241  0.1758 -0.0177  0.0206
  129OSM   H11A13794   2.640   1.112   6.242  0.1369  0.3939  0.8692
  129OSM   H11B13795   2.779   1.102   6.346  2.5247 -0.7388 -0.7519
  129OSM      P13796   2.973   1.011   6.178 -0.1633  0.6788  0.1797
  129OSM    O1313797   3.012   0.904   6.087  0.2328  0.1489  0.1057
  129OSM    O1413798   3.052   1.134   6.184  0.0851  0.7646  0.3522
  129OSM    O1113799   2.957   0.943   6.330 -0.4876  0.7489  0.0652
  129OSM    O1213800   2.814   1.045   6.150 -0.5702 -0.1064  0.4463
  129OSM    C1S13801   2.887   0.825   6.350  0.1789  0.0415  0.2247
  129OSM    H1S13802   2.904   0.741   6.280 -0.1951  1.7130 -1.9200
  129OSM    H1T13803   2.778   0.850   6.345 -0.0163 -0.3793  1.9411
  129OSM     NF13804   2.836   0.663   6.540  0.1469 -0.3070  0.2646
  129OSM    HNF13805   2.756   0.679   6.598  2.5913  1.2786  3.3416
  129OSM    C2S13806   2.910   0.781   6.499 -0.5646  0.3682 -0.7833
  129OSM    H2S13807   3.016   0.751   6.513 -0.9091 -1.2167 -1.4743
  129OSM    C3S13808   2.881   0.894   6.608  0.1198 -0.4955  0.5372
  129OSM    H3S13809   2.779   0.938   6.599  0.8787  0.6120 -3.5139
  129OSM     O313810   2.956   1.018   6.586  0.7018  0.4742 -0.0503
  129OSM    HO313811   2.984   1.003   6.496 -1.8896 -1.4145 -0.6050
  129OSM    C4S13812   2.920   0.855   6.747  0.1382  0.2097 -0.2647
  129OSM    H4S13813   3.023   0.817   6.752  0.5665  0.8929 -3.0376
  129OSM    C5S13814   2.845   0.867   6.857  0.7526 -0.1474 -0.1938
  129OSM    H5S13815   2.750   0.921   6.848  1.0814  0.5101  0.1677
  129OSM    C6S13816   2.891   0.827   6.995 -0.0267  0.3138  0.1036
  129OSM    H6S13817   2.848   0.899   7.069  0.3601  2.4362 -1.6596
  129OSM    H6T13818   3.001   0.830   7.011 -0.0209  2.3371 -0.1637
  129OSM    C7S13819   2.828   0.689   7.024 -0.1930 -0.1835  0.6886
  129OSM    H7S13820   2.853   0.606   6.955  0.0761 -0.2102  0.8165
  129OSM    H7T13821   2.718   0.684   7.011 -0.1085 -1.0953  0.3003
  129OSM    C8S13822   2.845   0.641   7.175  0.1257 -0.1751 -0.5066
  129OSM    H8S13823   2.952   0.658   7.202  0.8825 -0.3285 -3.2479
  129OSM    H8T13824   2.819   0.533   7.178  1.5524 -0.4941  2.5565
  129OSM    C9S13825   2.751   0.724   7.275 -0.4566  0.6407 -0.2919
  129OSM    H9S13826   2.643   0.728   7.251 -1.0542  1.5149  2.3370
  129OSM    H9T13827   2.780   0.829   7.257  0.8729  0.2153 -0.6982
  129OSM   C10S13828   2.784   0.701   7.427 -0.8141  0.0950 -0.2026
  129OSM   H10S13829   2.892   0.697   7.455 -0.9497 -3.0899  0.1182
  129OSM   H10T13830   2.754   0.596   7.452  0.4609 -0.3383 -0.4217
  129OSM   C11S13831   2.714   0.794   7.529 -0.4170  0.2742  0.2311
  129OSM   H11S13832   2.603   0.784   7.529 -0.3272 -1.0322 -1.5363
  129OSM   H11T13833   2.740   0.900   7.509  1.5327 -0.1808  0.2749
  129OSM   C12S13834   2.750   0.751   7.673  0.2621 -1.0353 -0.4421
  129OSM   H12S13835   2.858   0.777   7.676 -0.0496  0.6441 -2.4556
  129OSM   H12T13836   2.744   0.640   7.675 -2.8524 -0.9384 -1.2824
  129OSM   C13S13837   2.669   0.826   7.783 -0.1855  0.8105 -0.0235
  129OSM   H13S13838   2.560   0.841   7.769 -0.2889  2.0177  1.8284
  129OSM   H13T13839   2.704   0.930   7.766  1.4238 -0.2254 -3.5316
  129OSM   C14S13840   2.687   0.795   7.932  0.0718  0.1524 -0.2055
  129OSM   H14S13841   2.795   0.803   7.957  0.0115  3.4172 -0.7794
  129OSM   H14T13842   2.658   0.688   7.933 -1.2602  0.4571 -2.2326
  129OSM   C15S13843   2.591   0.877   8.019  0.0197 -0.1673 -0.8177
  129OSM   H15S13844   2.486   0.860   7.986 -1.1536 -0.1956  2.7302
  129OSM   H15T13845   2.599   0.988   8.009 -0.9923  0.2995  2.8383
  129OSM   C16S13846   2.614   0.836   8.168  0.6682  0.0122  0.3278
  129OSM   H16S13847   2.722   0.855   8.187  0.0094  1.6322  2.5479
  129OSM   H16T13848   2.609   0.725   8.166 -0.1697  0.0467  0.4958
  129OSM   C17S13849   2.525   0.907   8.264  0.1210 -0.2874 -0.2024
  129OSM   H17S13850   2.423   0.883   8.226  0.4379 -2.7973  0.4411
  129OSM   H17T13851   2.535   1.018   8.268 -0.1353 -0.2376 -0.8352
  129OSM   C18S13852   2.528   0.861   8.410 -0.5450 -0.3737 -0.5530
  129OSM   H18S13853   2.454   0.930   8.455  0.6218  0.1475  0.6020
  129OSM   H18T13854   2.625   0.885   8.459 -1.4687 -0.6166  1.4380
  129OSM   H18U13855   2.510   0.751   8.417  3.2693 -1.1502 -1.9268
  129OSM    C1F13856   2.858   0.541   6.499  0.1977  0.5428 -0.3735
  129OSM     OF13857   2.941   0.510   6.414  0.2001 -0.4664  0.1867
  129OSM    C2F13858   2.768   0.438   6.556  0.0522  0.3268 -0.2293
  129OSM    H2F13859   2.720   0.371   6.482 -1.3013  1.4791 -0.4091
  129OSM    H2G13860   2.676   0.490   6.591 -0.0625  0.3050 -0.4962
  129OSM    C3F13861   2.844   0.359   6.672  0.5897  0.1826 -0.1390
  129OSM    H3F13862   2.861   0.432   6.754  2.0774 -0.2315 -0.0731
  129OSM    H3G13863   2.943   0.311   6.654 -0.2583 -1.6440 -0.0714
  129OSM    C4F13864   2.758   0.239   6.720  0.2313 -0.6402 -0.3397
  129OSM    H4F13865   2.726   0.164   6.644  0.5150 -0.7591 -0.3446
  129OSM    H4G13866   2.669   0.283   6.769 -0.7980 -1.0993 -1.7665
  129OSM    C5F13867   2.820   0.151   6.832  0.0327 -0.0218  0.1905
  129OSM    H5F13868   2.929   0.138   6.816  0.3331 -0.2783  2.2481
  129OSM    H5G13869   2.778   0.049   6.824 -0.8099  0.2381  1.1298
  129OSM    C6F13870   2.805   0.189   6.979 -0.1075  0.6577  0.1257
  129OSM    H6F13871   2.699   0.214   7.002 -0.8752 -0.5148 -2.0121
  129OSM    H6G13872   2.852   0.288   6.995 -0.9879  1.2355 -0.8148
  129OSM    C7F13873   2.855   0.070   7.062 -0.1536  0.2977  0.0392
  129OSM    H7F13874   2.966   0.064   7.063 -0.1889 -0.3326  0.3106
  129OSM    H7G13875   2.806  -0.021   7.022  0.4722  0.4643 -1.1422
  129OSM    C8F13876   2.818   0.090   7.216  0.1170 -0.2225  0.0137
  129OSM    H8F13877   2.885   0.022   7.274 -0.1085 -1.0661 -0.7136
  129OSM    H8G13878   2.716   0.055   7.243  0.6111 -0.5415  1.5348
  129OSM    C9F13879   2.836   0.233   7.264 -0.6418 -0.3629  0.3251
  129OSM    H9F13880   2.903   0.293   7.200 -0.6606 -0.8412 -0.1433
  129OSM   C10F13881   2.793   0.289   7.381 -0.4499  0.2181  0.9823
  129OSM   H10F13882   2.816   0.393   7.406  1.8245  0.0187 -0.1048
  129OSM   C11F13883   2.721   0.211   7.485  1.0749  0.1855  0.2011
  129OSM   H11F13884   2.614   0.200   7.458  0.5828  0.2426  2.0647
  129OSM   H11G13885   2.718   0.275   7.576  1.0043  0.2515  0.1520
  129OSM   C12F13886   2.771   0.073   7.545  0.4949  0.1974 -0.8733
  129OSM   H12F13887   2.876   0.099   7.568 -0.0301 -0.5774  2.6625
  129OSM   H12G13888   2.763   0.000   7.461 -0.5231 -1.4260  0.5982
  129OSM   C13F13889   2.686   0.028   7.670 -0.2294 -0.0151  0.1256
  129OSM   H13F13890   2.585   0.005   7.629 -0.5356 -0.8584  1.3171
  129OSM   H13G13891   2.688   0.115   7.740 -0.0947  0.2272 -0.1777
  129OSM   C14F13892   2.737  -0.097   7.737  0.1554  0.1609 -0.3719
  129OSM   H14F13893   2.835  -0.083   7.788 -0.4495  0.7055  0.6528
  129OSM   H14G13894   2.759  -0.174   7.661 -0.5481  1.2986 -1.7687
  129OSM   C15F13895   2.629  -0.156   7.836  0.3114 -0.1262  0.1340
  129OSM   H15F13896   2.534  -0.145   7.781  0.8416  3.3753 -0.2165
  129OSM   H15G13897   2.611  -0.081   7.917 -2.1469 -0.5157 -0.0114
  129OSM   C16F13898   2.665  -0.291   7.890 -0.2990 -0.0532  0.5288
  129OSM   H16F13899   2.768  -0.280   7.929  0.8657 -1.2859 -2.0329
  129OSM   H16G13900   2.670  -0.362   7.804 -1.3246 -0.6428  0.9499
  129OSM   C17F13901   2.587  -0.348   8.007 -0.3168 -0.1430  0.3389
  129OSM   H17F13902   2.628  -0.443   8.047  1.0335 -0.4596 -1.7204
  129OSM   H17G13903   2.483  -0.378   7.983  0.0110 -1.3759  0.4267
  129OSM   C18F13904   2.563  -0.256   8.128  0.0486 -0.2775  0.8794
  129OSM   H18F13905   2.516  -0.314   8.210 -0.4579 -1.0332  0.0653
  129OSM   H18G13906   2.501  -0.166   8.105 -1.1359 -0.9963  1.2650
  129OSM   H18H13907   2.664  -0.225   8.161  1.4804 -2.6766 -1.0775
  130OSM      N13908   4.148   4.296   6.259  0.0639  0.2340  0.4119
  130OSM    C1513909   4.272   4.308   6.185  1.0345  0.4567 -0.3259
  130OSM   H15A13910   4.286   4.218   6.127  2.7676  1.7548 -1.9922
  130OSM   H15B13911   4.353   4.310   6.256 -0.2634 -1.5970  1.2846
  130OSM   H15C13912   4.267   4.400   6.128 -2.0970  1.3943  1.3351
  130OSM    C1413913   4.049   4.287   6.154  0.4890 -0.2640  0.3026
  130OSM   H14A13914   3.955   4.251   6.192  0.0375  0.8422  0.2724
  130OSM   H14B13915   4.083   4.212   6.085 -0.4990  0.0815 -0.5808
  130OSM   H14C13916   4.026   4.380   6.105 -1.7328  0.4251  2.5221
  130OSM    C1313917   4.154   4.165   6.333 -0.0594  0.3404 -0.6885
  130OSM   H13A13918   4.071   4.157   6.402  1.6518 -3.3248  1.0936
  130OSM   H13B13919   4.244   4.159   6.393 -0.3519 -0.6483 -0.3303
  130OSM   H13C13920   4.158   4.072   6.278  0.0197 -0.6291  0.9142
  130OSM    C1213921   4.130   4.410   6.353  1.1012  0.1619 -0.0516
  130OSM   H12A13922   4.106   4.498   6.296  0.3124 -1.0158 -1.5933
  130OSM   H12B13923   4.215   4.427   6.417  0.2322  0.1857  1.1144
  130OSM    C1113924   4.014   4.419   6.463  0.1466  0.4464 -0.1190
  130OSM   H11A13925   4.027   4.496   6.542 -0.8027  0.1694  0.3169
  130OSM   H11B13926   4.013   4.321   6.515  1.7951  1.9390  2.8405
  130OSM      P13927   3.841   4.545   6.300  0.0863 -0.4384  0.0205
  130OSM    O1313928   3.957   4.620   6.248 -0.0268 -0.1044 -0.0254
  130OSM    O1413929   3.749   4.489   6.195 -0.4194 -0.5107 -0.1394
  130OSM    O1113930   3.754   4.646   6.388 -0.6770 -0.2421  0.0611
  130OSM    O1213931   3.888   4.431   6.399  0.7951 -0.4657  0.2671
  130OSM    C1S13932   3.643   4.616   6.466 -0.5520  0.4047  0.7835
  130OSM    H1S13933   3.572   4.551   6.412  0.7629  0.7791 -1.4285
  130OSM    H1T13934   3.588   4.712   6.480  2.2942  2.2734 -0.4456
  130OSM     NF13935   3.559   4.495   6.660  0.1161 -0.4475  0.1060
  130OSM    HNF13936   3.511   4.568   6.709  0.0959 -0.2416 -0.2136
  130OSM    C2S13937   3.678   4.548   6.603 -0.5346  0.0216  0.0317
  130OSM    H2S13938   3.744   4.462   6.581 -1.6601 -1.1294  1.0282
  130OSM    C3S13939   3.736   4.653   6.702 -0.1989 -0.2392  0.3016
  130OSM    H3S13940   3.660   4.734   6.709 -0.0437 -0.1514  0.9602
  130OSM     O313941   3.848   4.728   6.659 -0.0070  0.1427 -0.2393
  130OSM    HO313942   3.848   4.740   6.564 -3.0145 -1.5850 -0.5241
  130OSM    C4S13943   3.758   4.598   6.841  0.9510 -0.8768  0.6473
  130OSM    H4S13944   3.696   4.653   6.914  1.6322  0.1537  0.4630
  130OSM    C5S13945   3.860   4.513   6.874  0.7164 -0.4112  0.7604
  130OSM    H5S13946   3.928   4.482   6.794 -0.1318 -2.3718  0.7909
  130OSM    C6S13947   3.900   4.457   7.005 -0.1787 -0.3314  0.2829
  130OSM    H6S13948   4.010   4.469   7.015 -0.4133  1.7573  0.7533
  130OSM    H6T13949   3.862   4.353   7.005 -1.0974 -0.0490  3.3305
  130OSM    C7S13950   3.837   4.521   7.125 -0.5790 -0.1376 -0.3202
  130OSM    H7S13951   3.726   4.511   7.123 -0.6908  1.1860 -0.9879
  130OSM    H7T13952   3.858   4.630   7.134  0.6147 -0.4780  1.2676
  130OSM    C8S13953   3.886   4.459   7.259  0.3350 -0.5411  0.0046
  130OSM    H8S13954   3.996   4.468   7.274  0.3120  0.9577 -0.6887
  130OSM    H8T13955   3.864   4.350   7.256 -0.2032 -0.4472  0.4059
  130OSM    C9S13956   3.816   4.520   7.386 -0.0559  0.2889  0.5582
  130OSM    H9S13957   3.708   4.525   7.362 -0.3214  1.7090  1.9495
  130OSM    H9T13958   3.853   4.623   7.404 -2.4454  1.0539  1.2715
  130OSM   C10S13959   3.843   4.450   7.527 -0.1295 -0.0024 -0.6819
  130OSM   H10S13960   3.951   4.468   7.543 -0.0979 -1.6941  1.3292
  130OSM   H10T13961   3.817   4.341   7.530 -1.2589  0.2855  0.5676
  130OSM   C11S13962   3.764   4.514   7.636  0.2804 -0.1521  0.8654
  130OSM   H11S13963   3.653   4.500   7.633  0.3256 -0.4697  0.6356
  130OSM   H11T13964   3.769   4.624   7.619  1.3708 -0.4538 -0.8817
  130OSM   C12S13965   3.806   4.482   7.778 -0.1281 -0.3934 -0.5231
  130OSM   H12S13966   3.917   4.493   7.781  0.1107 -2.7522  0.5499
  130OSM   H12T13967   3.791   4.374   7.797  0.5230 -0.5944 -1.1406
  130OSM   C13S13968   3.736   4.570   7.885 -1.0077  0.4888 -0.8334
  130OSM   H13S13969   3.626   4.576   7.865 -0.9998  0.5209 -0.8646
  130OSM   H13T13970   3.769   4.674   7.865  0.6312 -0.2266 -1.9088
  130OSM   C14S13971   3.752   4.533   8.036 -0.3493  0.2901  0.0814
  130OSM   H14S13972   3.741   4.630   8.090 -0.3090  0.9660 -1.0970
  130OSM   H14T13973   3.855   4.492   8.047  0.1225  1.1777 -0.8418
  130OSM   C15S13974   3.671   4.422   8.088 -0.3736  0.0030 -0.4658
  130OSM   H15S13975   3.737   4.375   8.165  0.0407 -1.2037 -1.5344
  130OSM   H15T13976   3.670   4.349   8.004  1.2632 -1.7058  0.9228
  130OSM   C16S13977   3.535   4.458   8.142 -0.0592  0.1511  0.6747
  130OSM   H16S13978   3.515   4.566   8.128 -1.8071 -0.2359  0.1232
  130OSM   H16T13979   3.540   4.451   8.253 -0.1711 -0.3578  0.6502
  130OSM   C17S13980   3.424   4.364   8.100  0.2413  0.2420 -0.3428
  130OSM   H17S13981   3.449   4.264   8.142  1.1874 -0.3568 -2.2524
  130OSM   H17T13982   3.447   4.365   7.991 -0.8690  0.8321 -0.5794
  130OSM   C18S13983   3.293   4.416   8.136  0.2571  0.2484 -0.2317
  130OSM   H18S13984   3.279   4.521   8.102  1.0528  0.7126  0.8662
  130OSM   H18T13985   3.281   4.413   8.246  1.2539  2.7501 -0.0148
  130OSM   H18U13986   3.218   4.352   8.084  3.9978 -2.2934 -2.7200
  130OSM    C1F13987   3.491   4.387   6.619 -0.6366  0.0139 -0.1591
  130OSM     OF13988   3.544   4.322   6.534 -0.2508  0.1617  0.2306
  130OSM    C2F13989   3.361   4.351   6.682  0.9297  0.7442 -0.0442
  130OSM    H2F13990   3.315   4.447   6.716  0.0821 -0.7442  3.2551
  130OSM    H2G13991   3.388   4.283   6.766 -0.0418  1.4990  0.9028
  130OSM    C3F13992   3.260   4.292   6.583 -0.8977 -0.1520 -0.5495
  130OSM    H3F13993   3.270   4.183   6.568 -0.7362 -0.0991 -0.8226
  130OSM    H3G13994   3.266   4.350   6.489 -2.9300  1.3929  0.2402
  130OSM    C4F13995   3.110   4.301   6.630 -0.2947 -0.3613 -0.0743
  130OSM    H4F13996   3.047   4.243   6.560 -1.1586  0.8133 -0.2965
  130OSM    H4G13997   3.073   4.406   6.633  3.9202  1.2270  0.0129
  130OSM    C5F13998   3.093   4.232   6.769  0.0828 -0.2061  0.7407
  130OSM    H5F13999   2.988   4.255   6.799 -0.4960 -0.5114 -0.9823
  130OSM    H5G14000   3.156   4.276   6.849 -1.8856  0.8978  1.7096
  130OSM    C6F14001   3.112   4.079   6.759  0.0739  0.8198 -1.0265
  130OSM    H6F14002   3.221   4.062   6.747 -0.1234  0.5898 -2.5667
  130OSM    H6G14003   3.059   4.042   6.669 -0.2252 -1.9287  0.2268
  130OSM    C7F14004   3.080   3.990   6.890  0.6980 -0.4522 -0.2587
  130OSM    H7F14005   3.128   3.891   6.875  0.5896 -0.3192 -1.5539
  130OSM    H7G14006   2.970   3.979   6.895  0.2541  3.2305 -0.4184
  130OSM    C8F14007   3.122   4.051   7.025 -0.1366  0.6738 -0.0188
  130OSM    H8F14008   3.045   4.005   7.090  1.1598 -1.8091 -0.1616
  130OSM    H8G14009   3.102   4.160   7.034 -1.1122  0.4785  0.1730
  130OSM    C9F14010   3.264   4.020   7.062  0.2899 -0.1320 -0.0707
  130OSM    H9F14011   3.281   3.913   7.077 -0.6241 -0.4696 -1.3668
  130OSM   C10F14012   3.372   4.095   7.092 -0.3055 -0.2688  0.4568
  130OSM   H10F14013   3.462   4.038   7.119 -0.2192 -0.3248  0.0499
  130OSM   C11F14014   3.381   4.246   7.093  0.0674  0.7039  0.4335
  130OSM   H11F14015   3.361   4.271   6.987 -0.6015  2.2496  0.9107
  130OSM   H11G14016   3.486   4.278   7.106 -0.6352  2.7378  1.2627
  130OSM   C12F14017   3.298   4.323   7.190  0.2731 -0.3584 -0.0980
  130OSM   H12F14018   3.190   4.307   7.170  0.0311  0.4563  0.5164
  130OSM   H12G14019   3.322   4.430   7.175  1.4874 -0.5959  0.1129
  130OSM   C13F14020   3.330   4.294   7.336  0.4255 -0.4247  0.4686
  130OSM   H13F14021   3.439   4.290   7.358  0.3072  0.8237  1.3668
  130OSM   H13G14022   3.297   4.191   7.359 -0.2430 -0.1872  0.5760
  130OSM   C14F14023   3.255   4.376   7.447 -0.4630  0.3729  0.5751
  130OSM   H14F14024   3.146   4.359   7.443 -0.4245 -0.0807  1.2235
  130OSM   H14G14025   3.290   4.478   7.422  2.2751 -0.5238  0.5416
  130OSM   C15F14026   3.311   4.345   7.588  0.1411 -0.8046  0.0136
  130OSM   H15F14027   3.422   4.349   7.585  0.0481  2.1044 -2.7930
  130OSM   H15G14028   3.287   4.241   7.620  1.1619 -0.8521  0.6389
  130OSM   C16F14029   3.254   4.434   7.701  0.4481  0.2909  0.4070
  130OSM   H16F14030   3.278   4.540   7.679  2.1611 -0.3901 -1.1511
  130OSM   H16G14031   3.314   4.418   7.793 -0.6098 -0.7422  0.9380
  130OSM   C17F14032   3.111   4.398   7.737  0.2803  0.0933  0.8977
  130OSM   H17F14033   3.116   4.292   7.769  1.7982 -0.4612 -1.1011
  130OSM   H17G14034   3.050   4.393   7.645  2.7528 -1.8053 -0.7054
  130OSM   C18F14035   3.040   4.497   7.841  0.0411 -0.5958 -0.4956
  130OSM   H18F14036   3.079   4.484   7.944 -0.8793  1.4512  0.1461
  130OSM   H18G14037   2.934   4.464   7.848 -0.7382  1.7150 -0.7789
  130OSM   H18H14038   3.049   4.603   7.808 -1.1847  0.2437  1.6982
  131OSM      N14039   4.445   2.590   6.201 -0.3836  0.3887  0.0284
  131OSM    C1514040   4.486   2.660   6.068  0.0316 -0.5965 -0.5192
  131OSM   H15A14041   4.426   2.746   6.044 -0.4541 -1.3928 -2.2604
  131OSM   H15B14042   4.463   2.591   5.988  0.4453  0.7428 -1.8258
  131OSM   H15C14043   4.591   2.684   6.080 -0.7935  2.4862  0.8441
  131OSM    C1414044   4.526   2.461   6.199 -0.6256  0.3278 -0.7380
  131OSM   H14A14045   4.632   2.478   6.188 -0.2212 -1.6847 -0.0736
  131OSM   H14B14046   4.483   2.398   6.122  0.9003 -1.6963  0.0355
  131OSM   H14C14047   4.517   2.406   6.291 -1.7350  1.2080 -0.3087
  131OSM    C1314048   4.491   2.672   6.320  0.1904 -0.0846 -0.2286
  131OSM   H13A14049   4.589   2.709   6.296 -1.2098  1.9409 -3.1407
  131OSM   H13B14050   4.501   2.633   6.420  1.0006  0.9604  0.1171
  131OSM   H13C14051   4.425   2.758   6.330  2.6524  1.6896  1.2667
  131OSM    C1214052   4.296   2.562   6.213 -0.1045  0.8163  0.1790
  131OSM   H12A14053   4.267   2.515   6.121  2.8658  1.4220 -1.1183
  131OSM   H12B14054   4.254   2.660   6.194 -0.8626  0.2602 -1.0374
  131OSM    C1114055   4.239   2.502   6.344 -0.3853 -0.0272 -0.3809
  131OSM   H11A14056   4.129   2.490   6.336 -0.6202  1.9468 -0.4032
  131OSM   H11B14057   4.268   2.571   6.426  3.5131 -2.1229  0.1352
  131OSM      P14058   4.266   2.248   6.287 -0.3019 -0.2682  0.2880
  131OSM    O1314059   4.167   2.279   6.178  0.6165 -0.6495  0.2795
  131OSM    O1414060   4.399   2.203   6.241 -0.4953 -0.1659 -0.3692
  131OSM    O1114061   4.209   2.139   6.387  0.8717 -0.2219  0.0953
  131OSM    O1214062   4.299   2.375   6.384  0.1173  0.4894  0.2276
  131OSM    C1S14063   4.272   2.092   6.508  0.1500 -0.2658 -0.3877
  131OSM    H1S14064   4.379   2.122   6.507 -0.3749  1.7967  1.7694
  131OSM    H1T14065   4.285   1.982   6.514  2.9500  0.0343 -0.0328
  131OSM     NF14066   4.261   2.092   6.756 -0.0111  0.0472  0.0427
  131OSM    HNF14067   4.227   2.017   6.812 -1.5646  1.6954  1.3953
  131OSM    C2S14068   4.198   2.141   6.637  0.9327  0.3242 -0.1791
  131OSM    H2S14069   4.195   2.252   6.642  1.6906  0.3103  0.6501
  131OSM    C3S14070   4.049   2.094   6.617 -0.4196  0.0934 -0.7546
  131OSM    H3S14071   4.063   1.986   6.594  2.4490  0.2491  0.0086
  131OSM     O314072   3.984   2.167   6.514  0.4524 -0.3127  0.1552
  131OSM    HO314073   4.051   2.222   6.472 -0.3247  0.1685 -0.4656
  131OSM    C4S14074   3.970   2.107   6.745 -0.2559 -0.5555  0.1992
  131OSM    H4S14075   3.967   2.012   6.800 -0.6987 -0.4227  0.3991
  131OSM    C5S14076   3.898   2.212   6.797 -0.4518  0.3072 -0.1326
  131OSM    H5S14077   3.888   2.310   6.748 -1.2904  1.0779  1.5341
  131OSM    C6S14078   3.835   2.215   6.931 -0.3451 -0.1453  0.2085
  131OSM    H6S14079   3.725   2.201   6.924 -0.4661  0.4735  0.8557
  131OSM    H6T14080   3.840   2.320   6.966 -1.0397 -1.4557  4.4956
  131OSM    C7S14081   3.877   2.115   7.043 -0.0123 -0.1902  0.6001
  131OSM    H7S14082   3.987   2.121   7.055  0.0219 -0.2504  0.3237
  131OSM    H7T14083   3.841   2.015   7.011 -2.0757  0.3154  1.2176
  131OSM    C8S14084   3.820   2.148   7.174  0.6956  0.1926  0.2532
  131OSM    H8S14085   3.798   2.257   7.177 -1.4168 -0.2279  0.9851
  131OSM    H8T14086   3.884   2.126   7.262  2.0494  1.7604 -0.2979
  131OSM    C9S14087   3.671   2.087   7.186 -0.1715  0.4519 -0.1201
  131OSM    H9S14088   3.679   1.977   7.187 -1.3771  0.3500 -0.5874
  131OSM    H9T14089   3.626   2.119   7.089 -0.2358  1.4337  0.2195
  131OSM   C10S14090   3.594   2.138   7.308  0.3994 -0.3314  0.6100
  131OSM   H10S14091   3.487   2.111   7.296  0.5800 -0.7675 -0.0514
  131OSM   H10T14092   3.598   2.249   7.308  1.7092 -0.3746  1.8762
  131OSM   C11S14093   3.657   2.079   7.435  0.2990  0.3945 -0.6396
  131OSM   H11S14094   3.747   2.139   7.459  1.0028 -1.1927  0.8008
  131OSM   H11T14095   3.689   1.975   7.413 -0.0727  0.6943 -2.6553
  131OSM   C12S14096   3.555   2.076   7.551  0.4824  0.6264 -0.4057
  131OSM   H12S14097   3.467   2.019   7.514  1.8732 -2.1468  0.4373
  131OSM   H12T14098   3.529   2.184   7.563 -0.9527  0.4181 -1.4114
  131OSM   C13S14099   3.615   2.025   7.686 -0.2894  0.1878  0.5921
  131OSM   H13S14100   3.700   2.091   7.712  1.6510 -1.6733 -0.7938
  131OSM   H13T14101   3.651   1.922   7.661  0.5571  0.4329  0.7885
  131OSM   C14S14102   3.517   2.018   7.801  0.2485  0.4379  0.1164
  131OSM   H14S14103   3.418   1.978   7.770  0.2483 -0.0110  0.6910
  131OSM   H14T14104   3.495   2.125   7.824  1.0211  0.3045  1.5201
  131OSM   C15S14105   3.571   1.950   7.926  0.8567 -0.3736  0.4296
  131OSM   H15S14106   3.677   1.981   7.937  0.3545  1.8562 -0.7496
  131OSM   H15T14107   3.569   1.840   7.911  0.9877 -0.5922  1.9137
  131OSM   C16S14108   3.489   1.976   8.051 -0.3330  0.2101  0.3999
  131OSM   H16S14109   3.389   1.932   8.028 -2.1039  3.6779  1.1381
  131OSM   H16T14110   3.480   2.086   8.066 -0.3241  0.3562 -0.6632
  131OSM   C17S14111   3.544   1.913   8.178 -0.7601  0.2039  0.2637
  131OSM   H17S14112   3.535   1.803   8.168  0.0492  0.1303  0.3755
  131OSM   H17T14113   3.476   1.944   8.260  0.6473 -0.1840  1.5767
  131OSM   C18S14114   3.682   1.958   8.222 -0.6915 -0.2561 -0.2021
  131OSM   H18S14115   3.693   2.069   8.226 -0.2156 -0.3425  1.1195
  131OSM   H18T14116   3.756   1.924   8.147 -0.2159 -2.0885  1.0725
  131OSM   H18U14117   3.720   1.920   8.320  0.9922 -0.4348 -0.9038
  131OSM    C1F14118   4.380   2.134   6.800  0.2584 -0.5831  0.8900
  131OSM     OF14119   4.437   2.219   6.743 -0.0113 -0.0687 -0.2861
  131OSM    C2F14120   4.444   2.061   6.910 -0.2929 -0.4168  0.0413
  131OSM    H2F14121   4.545   2.035   6.870 -0.4156  0.6996 -1.0318
  131OSM    H2G14122   4.394   1.966   6.937  1.9881 -1.9611 -0.9938
  131OSM    C3F14123   4.462   2.158   7.030  0.6008 -0.0336  0.0783
  131OSM    H3F14124   4.359   2.171   7.070  0.6573 -1.8988  0.8731
  131OSM    H3G14125   4.497   2.261   7.010  2.7549 -1.0559 -1.5883
  131OSM    C4F14126   4.553   2.112   7.137  0.3687  0.3909  0.1508
  131OSM    H4F14127   4.588   2.199   7.197  2.1544 -2.2724  3.1571
  131OSM    H4G14128   4.649   2.074   7.096  0.1644  0.1019 -0.0526
  131OSM    C5F14129   4.486   1.999   7.226 -1.0347 -1.0099 -0.0325
  131OSM    H5F14130   4.563   1.956   7.295 -1.7523 -0.0971  1.3592
  131OSM    H5G14131   4.463   1.910   7.163 -2.5867 -0.1556 -0.6844
  131OSM    C6F14132   4.375   2.035   7.326 -0.1684 -0.4641  0.0773
  131OSM    H6F14133   4.292   2.080   7.268  0.0914 -0.7959 -0.5580
  131OSM    H6G14134   4.420   2.119   7.383 -1.8608 -1.4778  3.0033
  131OSM    C7F14135   4.330   1.928   7.415 -0.3476  0.0921 -0.2430
  131OSM    H7F14136   4.308   1.833   7.361 -1.5388 -0.1577  0.6651
  131OSM    H7G14137   4.230   1.957   7.453  0.1107  1.3384  0.0275
  131OSM    C8F14138   4.434   1.895   7.524  0.5413 -0.2536 -0.0076
  131OSM    H8F14139   4.533   1.889   7.473  1.8416  0.1883  2.3754
  131OSM    H8G14140   4.413   1.791   7.558 -0.6235 -0.2044 -0.5756
  131OSM    C9F14141   4.444   1.990   7.641  0.7318  0.1352  0.1378
  131OSM    H9F14142   4.486   2.091   7.625 -1.4324  1.2793  1.4066
  131OSM   C10F14143   4.412   1.952   7.768  0.1066 -0.1317 -0.7010
  131OSM   H10F14144   4.436   2.015   7.854  3.0357 -0.4461 -1.2349
  131OSM   C11F14145   4.357   1.812   7.819  0.0802  0.0757  0.4886
  131OSM   H11F14146   4.308   1.746   7.744  0.4746  0.5032 -0.1499
  131OSM   H11G14147   4.273   1.828   7.889 -0.6756  1.4015 -0.6868
  131OSM   C12F14148   4.441   1.712   7.899 -0.2409 -0.4591 -0.5986
  131OSM   H12F14149   4.539   1.698   7.848  1.0084  3.0306  0.6706
  131OSM   H12G14150   4.394   1.612   7.907  1.2714 -1.0927  0.6093
  131OSM   C13F14151   4.458   1.754   8.056  0.7069  0.4539 -0.6566
  131OSM   H13F14152   4.352   1.750   8.089  0.8167  0.0309 -0.3573
  131OSM   H13G14153   4.494   1.859   8.069 -0.8180  0.6632  2.4678
  131OSM   C14F14154   4.552   1.670   8.142  0.0253  0.1621 -0.1575
  131OSM   H14F14155   4.652   1.676   8.094  1.2489 -1.3108  2.1417
  131OSM   H14G14156   4.515   1.566   8.145 -0.8311  0.4891  0.8972
  131OSM   C15F14157   4.581   1.712   8.294  0.4584 -0.1139 -1.1588
  131OSM   H15F14158   4.582   1.822   8.285 -2.7686  0.3205  2.4716
  131OSM   H15G14159   4.678   1.675   8.333 -0.9851 -1.2606  1.5020
  131OSM   C16F14160   4.478   1.663   8.393 -0.4846 -0.4174  0.5921
  131OSM   H16F14161   4.485   1.554   8.414  0.5127 -1.1366 -3.1244
  131OSM   H16G14162   4.373   1.668   8.356 -0.9676 -0.7951  1.8886
  131OSM   C17F14163   4.489   1.727   8.534 -0.1730 -0.5718 -0.0757
  131OSM   H17F14164   4.402   1.700   8.598  2.1524 -3.1021  2.1583
  131OSM   H17G14165   4.494   1.837   8.523  0.9433 -0.5054  1.0356
  131OSM   C18F14166   4.609   1.681   8.608 -0.2691 -0.3111 -0.9694
  131OSM   H18F14167   4.603   1.711   8.714  1.2965 -3.2703  0.0411
  131OSM   H18G14168   4.700   1.727   8.563 -1.8957  1.1281 -2.8819
  131OSM   H18H14169   4.618   1.570   8.605  2.1096 -0.2895  2.3453
  132OSM      N14170   6.551   6.229   6.541  0.7127  0.2320  0.1226
  132OSM    C1514171   6.568   6.182   6.402  0.0832  0.6821 -0.5211
  132OSM   H15A14172   6.645   6.108   6.390 -2.0517 -1.1905 -3.2865
  132OSM   H15B14173   6.591   6.274   6.349  3.0547  0.5538  0.4819
  132OSM   H15C14174   6.478   6.136   6.362 -0.2859 -0.2103  1.2986
  132OSM    C1414175   6.550   6.106   6.625 -0.0162 -0.2296  0.2356
  132OSM   H14A14176   6.638   6.043   6.621  0.2732  0.0092  2.4082
  132OSM   H14B14177   6.462   6.049   6.599 -0.5391  0.8016 -0.2897
  132OSM   H14C14178   6.550   6.137   6.728  1.1764 -1.6197  0.6750
  132OSM    C1314179   6.666   6.318   6.579 -0.7313 -0.8206  0.0836
  132OSM   H13A14180   6.664   6.408   6.520 -0.6132 -0.3364  0.8069
  132OSM   H13B14181   6.765   6.277   6.566 -0.1597  0.9719 -1.4594
  132OSM   H13C14182   6.670   6.336   6.686 -2.6321 -0.6586  0.1353
  132OSM    C1214183   6.417   6.310   6.546 -0.3204 -0.0203 -0.1326
  132OSM   H12A14184   6.420   6.381   6.465  1.2873 -0.3490 -0.3840
  132OSM   H12B14185   6.411   6.358   6.642  1.2667 -0.9717  0.4753
  132OSM    C1114186   6.288   6.236   6.527 -0.3072  1.1489  0.1479
  132OSM   H11A14187   6.214   6.318   6.522  0.8699  2.2860  1.1116
  132OSM   H11B14188   6.265   6.185   6.623 -0.3288  1.4925  0.3249
  132OSM      P14189   6.180   6.031   6.419  0.2053 -0.1903 -0.0207
  132OSM    O1314190   6.120   6.016   6.287 -0.0499  0.1433  0.4298
  132OSM    O1414191   6.238   5.912   6.484  0.0373 -0.3288  0.3093
  132OSM    O1114192   6.068   6.094   6.509  0.4075 -0.0445 -0.5206
  132OSM    O1214193   6.284   6.150   6.414  0.2286 -0.0370 -0.0959
  132OSM    C1S14194   5.969   6.018   6.583 -0.4110  0.1133  0.3008
  132OSM    H1S14195   5.982   5.909   6.566  2.5255 -0.0182  2.9624
  132OSM    H1T14196   5.867   6.040   6.544 -0.2637  0.7470  0.2664
  132OSM     NF14197   5.884   5.964   6.816  0.0420  0.2498 -0.0674
  132OSM    HNF14198   5.787   5.989   6.817 -0.1282 -0.3883 -0.3638
  132OSM    C2S14199   5.975   6.045   6.736 -0.4720  0.4827 -0.5654
  132OSM    H2S14200   6.080   6.023   6.763 -0.4679 -0.1649 -1.0906
  132OSM    C3S14201   5.946   6.198   6.770 -0.1511  0.3390  0.3555
  132OSM    H3S14202   5.836   6.211   6.769 -0.2494 -0.4554 -0.4362
  132OSM     O314203   5.993   6.283   6.679 -0.0593  0.2380  0.2050
  132OSM    HO314204   6.039   6.230   6.613 -0.1176 -0.5744  0.8075
  132OSM    C4S14205   5.984   6.233   6.907 -0.4180 -0.3156  0.4516
  132OSM    H4S14206   5.912   6.187   6.976  0.7484 -1.8799  0.6435
  132OSM    C5S14207   6.094   6.296   6.950 -0.6847  0.5141 -0.3937
  132OSM    H5S14208   6.172   6.316   6.876  0.7254  1.6709  1.3636
  132OSM    C6S14209   6.132   6.327   7.089 -0.3320  0.8223 -0.7836
  132OSM    H6S14210   6.132   6.435   7.112 -4.3662  0.6295  0.5520
  132OSM    H6T14211   6.233   6.286   7.109 -1.6717 -2.5844 -0.5736
  132OSM    C7S14212   6.045   6.258   7.197  0.5784 -0.4076  0.3705
  132OSM    H7S14213   6.036   6.148   7.186 -2.4195 -0.0741 -1.1548
  132OSM    H7T14214   5.938   6.287   7.183  1.1393  0.6289 -2.0361
  132OSM    C8S14215   6.107   6.287   7.340 -0.2856 -0.1112  0.0391
  132OSM    H8S14216   6.062   6.381   7.379  0.7545  0.8495 -1.0578
  132OSM    H8T14217   6.214   6.313   7.329 -0.6608  0.9584 -1.2077
  132OSM    C9S14218   6.079   6.178   7.448  0.0966  0.5383  0.4179
  132OSM    H9S14219   6.128   6.087   7.408 -0.7951  0.0848  0.3504
  132OSM    H9T14220   5.971   6.167   7.470 -0.7593  0.0950 -3.6272
  132OSM   C10S14221   6.144   6.200   7.590  0.7637 -0.0810  0.1468
  132OSM   H10S14222   6.253   6.217   7.573  0.5738  0.5143 -0.5193
  132OSM   H10T14223   6.133   6.105   7.646 -1.2596  0.5087  0.7732
  132OSM   C11S14224   6.087   6.322   7.664  0.2331 -0.0464 -0.2872
  132OSM   H11S14225   5.981   6.304   7.689 -0.4741  3.8024 -0.2361
  132OSM   H11T14226   6.098   6.405   7.591 -0.4768 -0.8309 -1.3099
  132OSM   C12S14227   6.153   6.351   7.807 -0.4896 -0.3043  0.1971
  132OSM   H12S14228   6.129   6.452   7.848  1.5516  0.0680  0.5090
  132OSM   H12T14229   6.261   6.344   7.784  0.0113 -0.1264  2.3943
  132OSM   C13S14230   6.131   6.236   7.910  0.5887  0.8820 -0.4066
  132OSM   H13S14231   6.150   6.136   7.865  0.0784  0.1805  0.9116
  132OSM   H13T14232   6.024   6.237   7.940  1.2561 -3.2167  2.4101
  132OSM   C14S14233   6.207   6.261   8.038 -0.1472 -0.0455 -0.1220
  132OSM   H14S14234   6.166   6.335   8.110 -0.1068  2.2193 -2.3286
  132OSM   H14T14235   6.309   6.296   8.009 -0.4806  3.7916  2.9106
  132OSM   C15S14236   6.230   6.135   8.124  0.4517  0.1907  0.1798
  132OSM   H15S14237   6.277   6.050   8.070  2.7543  0.8168  1.1360
  132OSM   H15T14238   6.128   6.113   8.163  1.4396  1.4428  3.6124
  132OSM   C16S14239   6.331   6.162   8.235 -0.5236  0.5365 -0.2427
  132OSM   H16S14240   6.288   6.240   8.301  2.5946  0.4109  2.0574
  132OSM   H16T14241   6.430   6.197   8.199 -1.6881 -0.0037 -4.2084
  132OSM   C17S14242   6.366   6.046   8.333  0.3597 -0.0715  0.4951
  132OSM   H17S14243   6.276   5.986   8.355 -1.1321  0.8394 -2.8502
  132OSM   H17T14244   6.388   6.093   8.432  1.7458 -0.8345  0.5580
  132OSM   C18S14245   6.499   5.972   8.300  0.4761  0.6062  0.3294
  132OSM   H18S14246   6.488   5.939   8.194  0.5719 -0.6005  0.6855
  132OSM   H18T14247   6.519   5.895   8.378  1.3064  0.7450  0.2508
  132OSM   H18U14248   6.582   6.044   8.308 -0.0082  1.3671 -1.2842
  132OSM    C1F14249   5.914   5.840   6.841 -0.3129  0.0438 -0.5181
  132OSM     OF14250   6.030   5.799   6.845 -0.8544  0.2520 -0.1064
  132OSM    C2F14251   5.804   5.755   6.890 -0.3976  0.6352 -0.3495
  132OSM    H2F14252   5.862   5.664   6.916  1.5355  1.2421 -2.4009
  132OSM    H2G14253   5.732   5.726   6.810  0.0330  0.1446 -0.5579
  132OSM    C3F14254   5.734   5.817   7.014 -0.1783  0.2584 -1.0373
  132OSM    H3F14255   5.641   5.760   7.036  0.2302  0.3482  1.1056
  132OSM    H3G14256   5.702   5.922   6.994 -0.8890  0.1469 -0.5202
  132OSM    C4F14257   5.814   5.808   7.147  0.2925 -0.0483 -0.1618
  132OSM    H4F14258   5.909   5.864   7.134  2.6943 -3.7484  0.8823
  132OSM    H4G14259   5.858   5.707   7.161 -0.9091 -0.6177 -0.4355
  132OSM    C5F14260   5.723   5.847   7.266 -0.4971 -0.4158  0.2721
  132OSM    H5F14261   5.641   5.772   7.264  1.3141 -2.4380  0.6625
  132OSM    H5G14262   5.692   5.952   7.249 -0.1144  0.1272  2.6786
  132OSM    C6F14263   5.788   5.851   7.403  0.4800  0.0587 -0.7906
  132OSM    H6F14264   5.710   5.887   7.473  0.3958 -0.8898 -0.3848
  132OSM    H6G14265   5.875   5.920   7.409 -0.7949  1.5974  0.4682
  132OSM    C7F14266   5.817   5.709   7.466 -0.1003  0.6917 -0.2247
  132OSM    H7F14267   5.915   5.674   7.428 -0.1399 -0.3334  0.5913
  132OSM    H7G14268   5.740   5.635   7.435  0.0832  0.6606 -0.6040
  132OSM    C8F14269   5.830   5.710   7.622  0.1737 -0.6904  0.2177
  132OSM    H8F14270   5.860   5.607   7.652  1.8968 -0.7542 -1.6021
  132OSM    H8G14271   5.731   5.719   7.671  0.3000  1.4057  0.1140
  132OSM    C9F14272   5.929   5.816   7.673 -0.3681 -0.0479 -0.2034
  132OSM    H9F14273   6.031   5.792   7.640 -0.6866 -1.0024 -0.5204
  132OSM   C10F14274   5.902   5.920   7.751 -0.0299  0.1627 -0.2165
  132OSM   H10F14275   5.969   6.005   7.771 -0.8555  0.7804 -0.0343
  132OSM   C11F14276   5.775   5.952   7.817  0.3155 -0.1336 -0.1840
  132OSM   H11F14277   5.713   5.861   7.828  1.2939 -0.7587  0.1353
  132OSM   H11G14278   5.712   6.020   7.755  0.2597  1.4851  1.6046
  132OSM   C12F14279   5.784   6.036   7.949 -0.3339  0.5816 -0.0353
  132OSM   H12F14280   5.685   6.062   7.993 -1.3314 -0.0930 -1.8704
  132OSM   H12G14281   5.838   6.131   7.931  2.2732 -0.5990  1.2776
  132OSM   C13F14282   5.864   5.967   8.068  0.1050 -0.6719 -0.9269
  132OSM   H13F14283   5.972   5.958   8.042  0.4484  0.4464  0.0261
  132OSM   H13G14284   5.817   5.867   8.081 -1.3963  0.0061 -1.1075
  132OSM   C14F14285   5.852   6.054   8.196  0.1955  0.4977  0.1493
  132OSM   H14F14286   5.746   6.080   8.220  0.7133  0.7098  2.2712
  132OSM   H14G14287   5.899   6.153   8.177  0.8376 -0.1050 -1.4820
  132OSM   C15F14288   5.924   5.992   8.321  0.1308 -0.3865 -0.2993
  132OSM   H15F14289   6.030   5.979   8.289  0.4863 -0.3957  0.8607
  132OSM   H15G14290   5.883   5.893   8.351  0.2644 -1.3616 -3.1620
  132OSM   C16F14291   5.915   6.093   8.439 -0.3866  0.6339 -0.0387
  132OSM   H16F14292   5.973   6.058   8.527  0.5691 -0.2142 -0.9891
  132OSM   H16G14293   5.808   6.105   8.465 -0.7476 -0.9149 -0.7697
  132OSM   C17F14294   5.982   6.232   8.420  0.1509 -0.1972  0.8826
  132OSM   H17F14295   5.929   6.287   8.339  2.7192  0.4770 -0.3943
  132OSM   H17G14296   6.086   6.210   8.386  0.2847  0.5427  0.7956
  132OSM   C18F14297   5.987   6.317   8.547  0.1209  0.1099  0.3226
  132OSM   H18F14298   5.889   6.355   8.583 -0.2901 -1.7888  1.2938
  132OSM   H18G14299   6.052   6.405   8.527  1.1374 -0.6822  0.1539
  132OSM   H18H14300   6.028   6.256   8.630 -0.9642  0.0315  0.8128
  133SAPE     N14301   1.429   3.195  11.042 -0.3802  0.1077 -0.0290
  133SAPE   HN114302   1.331   3.181  11.008 -0.5469 -1.1896  0.9407
  133SAPE   HN214303   1.499   3.157  10.976 -0.8598 -1.8084  0.5311
  133SAPE   HN314304   1.458   3.139  11.125 -0.8948  1.8684  1.3868
  133SAPE   C1214305   1.448   3.339  11.055  0.0678  0.7908 -0.3704
  133SAPE  H12A14306   1.551   3.360  11.092 -0.4389 -1.4911  2.5333
  133SAPE  H12B14307   1.374   3.377  11.129 -0.8811  1.8270 -1.8427
  133SAPE   C1114308   1.433   3.404  10.914  0.2665 -0.5105  0.7382
  133SAPE  H11A14309   1.440   3.514  10.928  2.2455 -0.5850  0.6002
  133SAPE  H11B14310   1.331   3.382  10.877  0.0681  1.2626  0.1618
  133SAPE     P14311   1.512   3.382  10.667  0.3227  0.1012 -0.2671
  133SAPE   O1314312   1.459   3.515  10.643 -0.2303 -0.1995 -0.1707
  133SAPE   O1414313   1.634   3.345  10.601 -0.6159 -0.0662  0.1400
  133SAPE   O1214314   1.536   3.371  10.819  0.2266  0.0951 -0.0643
  133SAPE   O1114315   1.391   3.278  10.646 -0.2417  0.0760 -1.1640
  133SAPE    C114316   1.412   3.146  10.689 -0.3425 -0.3142 -0.2977
  133SAPE    HA14317   1.508   3.119  10.740 -0.9759 -1.4376  0.3257
  133SAPE    HB14318   1.336   3.121  10.765  0.1354 -0.2258  0.2119
  133SAPE    C214319   1.396   3.047  10.566  0.8338 -0.1033 -0.2945
  133SAPE    HS14320   1.419   2.942  10.592  1.8287  0.3667  0.7290
  133SAPE   O2114321   1.481   3.095  10.460  0.3227  0.7611  0.3652
  133SAPE   C2114322   1.609   3.040  10.464 -0.6850 -0.4158 -0.5669
  133SAPE   O2214323   1.650   2.962  10.549 -0.5112  0.6015  0.2515
  133SAPE   C2214324   1.685   3.087  10.338  0.1073 -0.0382 -0.2272
  133SAPE   H2R14325   1.630   3.063  10.244 -0.1807  1.4027 -0.4427
  133SAPE   H2S14326   1.700   3.195  10.362  0.2397 -0.7552  3.1149
  133SAPE    C314327   1.244   3.055  10.521  0.5207  0.1039 -0.2080
  133SAPE    HX14328   1.214   3.158  10.492 -1.4692  0.2877  2.2535
  133SAPE    HY14329   1.185   3.036  10.614 -0.3737 -0.3315 -0.8616
  133SAPE   O3114330   1.209   2.962  10.417  0.3140 -0.3358  0.0097
  133SAPE   C3114331   1.083   2.924  10.418  0.1584 -0.4392 -0.0894
  133SAPE   O3214332   0.995   2.949  10.490 -0.0530 -0.6656 -0.5456
  133SAPE   C3214333   1.075   2.845  10.288 -0.3540  0.9361  0.6378
  133SAPE   H2X14334   1.133   2.906  10.216 -2.1584  1.5457 -0.3380
  133SAPE   H2Y14335   0.966   2.847  10.266  0.2107  1.2676 -2.3725
  133SAPE   C2314336   1.821   3.017  10.317 -0.2438 -0.0270 -0.5927
  133SAPE   H3R14337   1.797   2.909  10.310 -1.0343  0.2263 -1.9004
  133SAPE   H3S14338   1.884   3.025  10.408  0.3067 -0.8665 -0.8974
  133SAPE   C2414339   1.902   3.062  10.198  0.7060 -0.0103 -0.3265
  133SAPE   H4R14340   1.995   3.004  10.177  0.3589 -0.5526 -0.3826
  133SAPE   H4S14341   1.926   3.170  10.203 -0.3393  0.1946  0.2563
  133SAPE   C2514342   1.836   3.029  10.072  0.4828  0.1825 -0.5589
  133SAPE   H5R14343   1.794   2.927  10.071  1.9448 -0.4211 -0.6547
  133SAPE   C2614344   1.819   3.110   9.964 -0.2908  0.1421  0.5244
  133SAPE   H6R14345   1.778   3.077   9.868  1.0997 -1.6634  0.5320
  133SAPE   C2714346   1.855   3.259   9.950  0.0464 -0.6566 -0.3373
  133SAPE   H7R14347   1.939   3.280   9.881  0.1292  1.0495  0.2546
  133SAPE   H7S14348   1.904   3.297  10.042 -0.2259 -0.8545 -0.1060
  133SAPE   C2814349   1.727   3.334   9.919  0.8730 -0.1643  0.4055
  133SAPE   H8R14350   1.681   3.378  10.008  0.2175 -1.9933  0.9871
  133SAPE   C2914351   1.670   3.372   9.797  0.2041  0.3956 -0.0551
  133SAPE   H9R14352   1.582   3.438   9.799 -0.5331 -0.4972 -1.7862
  133SAPE  C21014353   1.720   3.341   9.656  0.7036  0.4776  0.5938
  133SAPE  H10R14354   1.817   3.286   9.654  0.9425  0.9312 -0.7618
  133SAPE  H10S14355   1.726   3.439   9.603 -0.3502  0.3425  0.2140
  133SAPE  C21114356   1.611   3.258   9.595 -0.9181 -0.3039 -0.0433
  133SAPE  H11R14357   1.574   3.184   9.668 -1.0628  0.6888  0.9084
  133SAPE  C21214358   1.551   3.274   9.474 -0.0744 -0.7806 -0.0738
  133SAPE  H12R14359   1.466   3.210   9.446 -1.7204  0.4397  1.9760
  133SAPE  C21314360   1.588   3.381   9.367  0.3700  0.2710  0.1509
  133SAPE  H13R14361   1.602   3.327   9.270 -0.4466 -2.1105  1.3187
  133SAPE  H13S14362   1.688   3.429   9.379  0.4446  0.7753 -2.2185
  133SAPE  C21414363   1.479   3.486   9.336 -0.4472 -0.9322 -0.0426
  133SAPE  H14R14364   1.433   3.524   9.428  2.5292  0.3866  0.9760
  133SAPE  C21514365   1.435   3.529   9.219 -0.2140  0.3543  0.1235
  133SAPE  H15R14366   1.343   3.590   9.219 -1.1408 -0.9972 -0.9858
  133SAPE  C21614367   1.480   3.484   9.083  0.3306 -0.4361  0.0293
  133SAPE  H16R14368   1.558   3.404   9.085  0.0650 -0.6816  0.6082
  133SAPE  H16S14369   1.522   3.576   9.038  0.0313  0.6485  1.9407
  133SAPE  C21714370   1.368   3.438   8.989  0.2791  0.1558 -0.7870
  133SAPE  H17R14371   1.421   3.420   8.893 -0.0303  1.1685 -1.1554
  133SAPE  H17S14372   1.295   3.520   8.978 -1.3393 -0.8448  1.9846
  133SAPE  C21814373   1.303   3.306   9.034 -0.1293  0.4443  0.2639
  133SAPE  H18R14374   1.232   3.320   9.119  1.5705  1.6826  1.5202
  133SAPE  H18S14375   1.381   3.238   9.075 -0.7552 -0.9043 -0.7782
  133SAPE  C21914376   1.229   3.231   8.930  0.3682  0.0803 -0.1302
  133SAPE  H19R14377   1.301   3.231   8.845 -2.0957  2.6895 -2.3146
  133SAPE  H19S14378   1.128   3.273   8.916  0.1950  0.2913  1.6392
  133SAPE  C22014379   1.200   3.089   8.984  0.8791 -0.4302  0.2806
  133SAPE  H20R14380   1.132   3.030   8.918 -0.8528  1.1217  0.6250
  133SAPE  H20S14381   1.145   3.115   9.077  0.7348  0.8365 -0.1525
  133SAPE  H20T14382   1.290   3.027   9.001  0.0099 -1.7515  0.1634
  133SAPE   C3314383   1.128   2.699  10.305  0.9303 -0.2419 -0.1979
  133SAPE   H3X14384   1.073   2.657  10.392  0.6190  0.2019 -0.1810
  133SAPE   H3Y14385   1.237   2.680  10.320  1.2042  0.3891 -1.3585
  133SAPE   C3414386   1.092   2.606  10.190 -0.2345  0.3636  0.3160
  133SAPE   H4X14387   0.996   2.637  10.143 -0.5826  0.3447  1.0164
  133SAPE   H4Y14388   1.079   2.502  10.227  0.8684  0.2246  0.3259
  133SAPE   C3514389   1.201   2.584  10.083 -0.9283  0.1550  0.4771
  133SAPE   H5X14390   1.291   2.535  10.125 -1.1934 -0.1218  0.7279
  133SAPE   H5Y14391   1.229   2.685  10.046 -0.2779  0.7772  2.6092
  133SAPE   C3614392   1.157   2.502   9.957 -0.0360  0.4297 -0.1062
  133SAPE   H6X14393   1.068   2.554   9.915 -0.6469 -0.1682  0.4504
  133SAPE   H6Y14394   1.126   2.401   9.992  1.4803 -0.0247 -0.0358
  133SAPE   C3714395   1.271   2.484   9.856 -0.3598  0.3414 -0.4221
  133SAPE   H7X14396   1.366   2.490   9.913 -1.3177  0.5067  1.1586
  133SAPE   H7Y14397   1.273   2.568   9.783  0.8110  0.9658  0.3142
  133SAPE   C3814398   1.252   2.361   9.772 -0.3577  0.2700  0.4011
  133SAPE   H8X14399   1.148   2.356   9.735 -0.7966  0.9155  1.5071
  133SAPE   H8Y14400   1.274   2.281   9.845 -1.2316 -0.2734  0.0707
  133SAPE   C3914401   1.349   2.358   9.653 -0.5054 -0.1155 -0.2953
  133SAPE   H9X14402   1.454   2.346   9.686  0.2241  2.7972 -1.3683
  133SAPE   H9Y14403   1.349   2.458   9.604 -0.0504  0.3642  0.6809
  133SAPE  C31014404   1.321   2.258   9.541  0.2142  0.0546 -0.3065
  133SAPE  H10X14405   1.219   2.285   9.506 -0.2892 -1.1016  0.2535
  133SAPE  H10Y14406   1.306   2.157   9.583 -0.1194 -0.1915 -1.0193
  133SAPE  C31114407   1.419   2.264   9.428  0.4880 -0.3514  0.2730
  133SAPE  H11X14408   1.518   2.280   9.475  0.2339 -2.1490  1.4698
  133SAPE  H11Y14409   1.393   2.346   9.359  0.6401  1.3944  2.2568
  133SAPE  C31214410   1.424   2.128   9.351  0.3062 -0.2650  0.2755
  133SAPE  H12X14411   1.320   2.093   9.333 -0.7331  2.0216  1.6690
  133SAPE  H12Y14412   1.483   2.056   9.413 -0.9245 -0.5495  1.1234
  133SAPE  C31314413   1.508   2.149   9.217  0.2792  0.2625 -0.0572
  133SAPE  H13X14414   1.597   2.212   9.240 -0.1890  0.7587  0.4112
  133SAPE  H13Y14415   1.439   2.215   9.160  0.3840  0.5832  0.1870
  133SAPE  C31414416   1.536   2.026   9.127  0.9087 -1.0814 -0.3801
  133SAPE  H14X14417   1.443   1.983   9.084 -0.5210  0.6761  0.9015
  133SAPE  H14Y14418   1.579   1.955   9.202 -1.5152 -1.0270  1.1057
  133SAPE  C31514419   1.637   2.059   9.017 -0.3252  0.1851  0.4112
  133SAPE  H15X14420   1.742   2.076   9.049 -0.2560  1.7606 -0.5564
  133SAPE  H15Y14421   1.599   2.150   8.966 -2.2841 -0.8313  0.0458
  133SAPE  C31614422   1.615   1.942   8.919 -0.3477 -0.3876 -0.2756
  133SAPE  H16X14423   1.682   1.963   8.832 -0.2825  3.8839  0.6926
  133SAPE  H16Y14424   1.508   1.933   8.889 -0.4758  1.5032 -0.4594
  133SAPE  C31714425   1.639   1.806   8.985 -0.2835 -0.0483 -0.6546
  133SAPE  H17X14426   1.552   1.782   9.050  1.1337 -3.9918 -0.0718
  133SAPE  H17Y14427   1.731   1.813   9.046 -0.2615  1.1950 -0.8189
  133SAPE  C31814428   1.658   1.687   8.882  0.4194  0.2803  0.8198
  133SAPE  H18X14429   1.751   1.697   8.823  2.0784  1.2634  3.5130
  133SAPE  H18Y14430   1.570   1.671   8.816 -0.5133  0.5147  1.9896
  133SAPE  H18Z14431   1.678   1.595   8.941 -0.1112  1.3728  2.7660
  134SAPE     N14432   4.008   3.907  10.980  0.4365 -0.0860  0.6898
  134SAPE   HN114433   3.944   3.892  11.061  1.7433 -1.1098  1.5556
  134SAPE   HN214434   4.070   3.826  10.964 -0.7680 -0.5482 -1.8455
  134SAPE   HN314435   4.059   3.994  11.005  0.1726  0.8888 -2.0250
  134SAPE   C1214436   3.940   3.915  10.847  0.0964  0.0218  0.6026
  134SAPE  H12A14437   4.016   3.947  10.773 -1.5286  1.8079 -0.3524
  134SAPE  H12B14438   3.867   3.999  10.851  1.6264  1.3396  1.6548
  134SAPE   C1114439   3.859   3.790  10.806  0.5991 -0.6027  0.2030
  134SAPE  H11A14440   3.884   3.777  10.699  0.9657 -1.5073  0.3960
  134SAPE  H11B14441   3.750   3.803  10.816  0.7228 -0.4421  1.3742
  134SAPE     P14442   3.842   3.536  10.830 -0.5725  0.1550  0.1219
  134SAPE   O1314443   3.868   3.432  10.930  0.3812  0.1635 -0.5161
  134SAPE   O1414444   3.701   3.554  10.795 -0.1476 -0.0377 -0.1139
  134SAPE   O1214445   3.906   3.677  10.876  0.4718 -0.6486 -0.2691
  134SAPE   O1114446   3.928   3.499  10.702  0.5825  0.5220 -0.5102
  134SAPE    C114447   4.069   3.507  10.695 -0.0030  0.1674  0.5374
  134SAPE    HA14448   4.119   3.530  10.792  2.3527  0.4520 -0.7111
  134SAPE    HB14449   4.104   3.407  10.663 -0.0383  0.6009 -0.8644
  134SAPE    C214450   4.132   3.608  10.594  0.0656 -0.2187 -0.0934
  134SAPE    HS14451   4.138   3.703  10.650  3.8768  0.2832 -1.2350
  134SAPE   O2114452   4.057   3.610  10.472 -0.1447  0.0505 -0.0407
  134SAPE   C2114453   4.082   3.716  10.403  0.7385  0.8128  0.2945
  134SAPE   O2214454   4.149   3.813  10.432 -0.3123  0.4756 -0.0431
  134SAPE   C2214455   4.019   3.700  10.262 -0.1333  0.2924  0.3925
  134SAPE   H2R14456   3.942   3.620  10.273  0.0761  0.4576  3.4670
  134SAPE   H2S14457   3.970   3.798  10.245 -0.4637  0.1254  0.3734
  134SAPE    C314458   4.284   3.589  10.568 -0.8628 -0.0496  0.1810
  134SAPE    HX14459   4.341   3.588  10.663  0.2775 -4.8940 -0.4402
  134SAPE    HY14460   4.319   3.678  10.511  1.7685 -0.9289  0.3278
  134SAPE   O3114461   4.322   3.482  10.474  0.3807 -0.0935 -0.1186
  134SAPE   C3114462   4.357   3.367  10.542 -0.2874 -0.8106  0.3117
  134SAPE   O3214463   4.336   3.355  10.660 -0.1174  0.0707 -0.4805
  134SAPE   C3214464   4.402   3.256  10.446 -0.0328 -0.4509  0.0721
  134SAPE   H2X14465   4.336   3.261  10.357 -1.7992 -3.9976  1.0859
  134SAPE   H2Y14466   4.374   3.153  10.477  2.2250 -1.5734 -1.5151
  134SAPE   C2314467   4.127   3.698  10.148  0.3903 -0.1386  0.0810
  134SAPE   H3R14468   4.153   3.590  10.139 -1.2152 -0.5339 -0.0769
  134SAPE   H3S14469   4.214   3.761  10.177  0.2847  0.6273 -1.2473
  134SAPE   C2414470   4.080   3.759  10.011  0.2716  0.5421 -0.5122
  134SAPE   H4R14471   4.170   3.747   9.948  0.1873 -0.6274 -0.4185
  134SAPE   H4S14472   4.067   3.870  10.019 -0.7223  0.2317  3.0842
  134SAPE   C2514473   3.950   3.690   9.958 -0.3647 -0.2608  0.6124
  134SAPE   H5R14474   3.868   3.697  10.030 -0.8529  0.1716  0.0171
  134SAPE   C2614475   3.946   3.633   9.835  0.2224  0.2040  0.2221
  134SAPE   H6R14476   3.851   3.586   9.804  0.8608 -0.7619 -0.3270
  134SAPE   C2714477   4.065   3.620   9.740  0.1662 -0.9085 -0.8649
  134SAPE   H7R14478   4.161   3.597   9.791 -1.8654 -1.1078  3.0922
  134SAPE   H7S14479   4.094   3.720   9.703  1.1891 -0.2204  1.6605
  134SAPE   C2814480   4.030   3.527   9.630  0.5469  0.4188  0.4188
  134SAPE   H8R14481   3.976   3.434   9.652  0.3437  1.0915  2.8480
  134SAPE   C2914482   4.078   3.545   9.499  0.0792  0.5299  0.2102
  134SAPE   H9R14483   4.054   3.470   9.423 -2.5441  1.1408  0.4081
  134SAPE  C21014484   4.168   3.654   9.442 -0.2873  0.0372 -0.7101
  134SAPE  H10R14485   4.247   3.610   9.378  0.7323 -0.5395  0.9232
  134SAPE  H10S14486   4.216   3.711   9.524 -0.1161  3.4905 -3.1254
  134SAPE  C21114487   4.085   3.749   9.362  0.2105 -0.0260 -0.8519
  134SAPE  H11R14488   4.008   3.803   9.419  0.3501 -2.2167  1.4528
  134SAPE  C21214489   4.101   3.772   9.232  0.8640  0.0201  0.7232
  134SAPE  H12R14490   4.050   3.860   9.190 -0.9927 -1.6821 -0.7258
  134SAPE  C21314491   4.216   3.727   9.145 -0.0694 -0.1326  0.3702
  134SAPE  H13R14492   4.222   3.616   9.148 -0.9997 -0.1835  0.6590
  134SAPE  H13S14493   4.320   3.762   9.161  1.0586 -2.1242 -2.4228
  134SAPE  C21414494   4.191   3.755   9.003  0.2370 -0.5306  0.0836
  134SAPE  H14R14495   4.083   3.755   8.978 -0.1009  1.8572  1.4881
  134SAPE  C21514496   4.284   3.783   8.909 -0.8233 -0.5744 -0.0436
  134SAPE  H15R14497   4.254   3.824   8.812 -1.5938  0.7785  0.7644
  134SAPE  C21614498   4.434   3.796   8.936  0.4418 -0.0223 -0.0261
  134SAPE  H16R14499   4.487   3.729   8.864 -0.9530 -1.0796 -0.0818
  134SAPE  H16S14500   4.467   3.757   9.035  2.6361 -0.5408 -0.9363
  134SAPE  C21714501   4.489   3.936   8.897 -0.1353 -0.5617  0.0101
  134SAPE  H17R14502   4.590   3.935   8.942  0.6743 -1.7322 -1.7647
  134SAPE  H17S14503   4.434   4.017   8.949 -3.4036 -1.9189 -1.2007
  134SAPE  C21814504   4.485   3.963   8.746 -0.1080  0.1858  0.4991
  134SAPE  H18R14505   4.386   3.953   8.697  0.2812 -1.4976  0.0145
  134SAPE  H18S14506   4.561   3.896   8.702 -0.9772 -0.5666  0.1274
  134SAPE  C21914507   4.533   4.107   8.710 -0.5239 -0.2076  0.1337
  134SAPE  H19R14508   4.644   4.112   8.719 -0.2629 -2.9791 -1.0862
  134SAPE  H19S14509   4.490   4.175   8.786  2.6664  2.2279 -0.1318
  134SAPE  C22014510   4.501   4.149   8.563 -0.2739  0.8165  0.6274
  134SAPE  H20R14511   4.552   4.090   8.484 -0.8452  0.9659  0.1412
  134SAPE  H20S14512   4.519   4.258   8.552 -0.7606  0.8837  0.4556
  134SAPE  H20T14513   4.392   4.129   8.550 -0.0813 -0.6301  1.2351
  134SAPE   C3314514   4.550   3.264  10.390 -0.6568 -0.6282  0.2054
  134SAPE   H3X14515   4.582   3.171  10.339 -0.6507 -0.0881 -0.8020
  134SAPE   H3Y14516   4.624   3.277  10.471  0.3147  0.5763 -0.8495
  134SAPE   C3414517   4.564   3.375  10.288  0.2456 -0.0512 -0.6130
  134SAPE   H4X14518   4.671   3.405  10.296 -0.0333  1.2304 -1.4572
  134SAPE   H4Y14519   4.522   3.467  10.334 -0.9785 -0.0371 -1.7336
  134SAPE   C3514520   4.504   3.352  10.149  0.2660  0.6165 -0.0786
  134SAPE   H5X14521   4.397   3.323  10.159 -0.0140  0.5829 -2.8520
  134SAPE   H5Y14522   4.560   3.265  10.110 -1.8709 -0.6818 -0.3810
  134SAPE   C3614523   4.508   3.464  10.057  0.1140 -0.1324 -0.3089
  134SAPE   H6X14524   4.604   3.516  10.080  0.4858 -0.1535 -1.7574
  134SAPE   H6Y14525   4.423   3.529  10.087 -1.4113 -2.0397 -0.3957
  134SAPE   C3714526   4.493   3.415   9.910 -0.1239  0.4041 -1.0980
  134SAPE   H7X14527   4.412   3.342   9.888 -0.4967  0.7396 -0.8629
  134SAPE   H7Y14528   4.585   3.355   9.894 -0.4008  0.0395 -1.3285
  134SAPE   C3814529   4.470   3.534   9.823 -0.0391  0.4439 -0.1067
  134SAPE   H8X14530   4.560   3.598   9.827  1.4226 -1.6476  3.7919
  134SAPE   H8Y14531   4.379   3.586   9.861  0.2971  0.4954  0.6270
  134SAPE   C3914532   4.458   3.487   9.669  0.3198 -0.0786  0.3277
  134SAPE   H9X14533   4.478   3.578   9.609  0.0412 -1.8170 -2.4608
  134SAPE   H9Y14534   4.351   3.461   9.655 -0.6039  2.6952  1.7942
  134SAPE  C31014535   4.551   3.365   9.630  0.2341 -0.0867 -0.1926
  134SAPE  H10X14536   4.527   3.275   9.690  2.5089  2.2938  4.5758
  134SAPE  H10Y14537   4.654   3.391   9.661 -0.5718  0.7042  1.9331
  134SAPE  C31114538   4.541   3.331   9.485  0.3941  0.0881 -0.3100
  134SAPE  H11X14539   4.441   3.348   9.440 -0.2106 -0.6660  0.7292
  134SAPE  H11Y14540   4.561   3.222   9.472 -2.1785 -0.6924  1.7747
  134SAPE  C31214541   4.648   3.410   9.407 -0.1607 -0.4520 -0.2683
  134SAPE  H12X14542   4.752   3.388   9.440 -0.1465 -0.3826 -0.2682
  134SAPE  H12Y14543   4.636   3.520   9.413  0.4023 -0.3457 -1.0140
  134SAPE  C31314544   4.644   3.384   9.255  0.3073  0.8607 -0.0943
  134SAPE  H13X14545   4.642   3.275   9.236 -0.7419  0.6237  1.2649
  134SAPE  H13Y14546   4.736   3.426   9.209  2.0565 -1.0991  1.5120
  134SAPE  C31414547   4.518   3.433   9.187  0.1249  0.5987 -0.0717
  134SAPE  H14X14548   4.507   3.543   9.184 -1.1292  0.4824 -0.1250
  134SAPE  H14Y14549   4.427   3.395   9.238  1.8188  0.2232  2.8149
  134SAPE  C31514550   4.515   3.388   9.040 -0.1494  0.2487  0.0537
  134SAPE  H15X14551   4.517   3.277   9.040  2.4930  0.2632  2.6989
  134SAPE  H15Y14552   4.597   3.430   8.978 -0.1502  0.5999  0.2870
  134SAPE  C31614553   4.389   3.422   8.960 -0.6365 -0.3449  0.3053
  134SAPE  H16X14554   4.365   3.530   8.970  0.4723 -0.0804  0.1951
  134SAPE  H16Y14555   4.300   3.363   8.991  0.2101 -3.1719 -2.3904
  134SAPE  C31714556   4.407   3.420   8.808 -0.2233  0.0053  0.3808
  134SAPE  H17X14557   4.432   3.313   8.789 -1.0371 -0.1457  0.1583
  134SAPE  H17Y14558   4.487   3.488   8.770  0.9959 -1.9290 -0.6222
  134SAPE  C31814559   4.275   3.444   8.726 -1.1617  0.1435  0.2243
  134SAPE  H18X14560   4.202   3.382   8.783  0.6671 -0.4242  2.0114
  134SAPE  H18Y14561   4.282   3.425   8.617 -3.5670 -2.6906  0.4985
  134SAPE  H18Z14562   4.246   3.551   8.734 -1.2002  0.2059 -0.6999
  135SAPE     N14563   4.045   2.159  10.743  0.0625 -0.1080  0.6183
  135SAPE   HN114564   4.067   2.059  10.759 -2.4012 -0.8780 -0.4958
  135SAPE   HN214565   4.132   2.215  10.740  1.4359 -2.2835 -0.9987
  135SAPE   HN314566   3.990   2.189  10.827  0.8955  1.3050  0.6888
  135SAPE   C1214567   3.978   2.169  10.611  1.0088  0.0212  0.1490
  135SAPE  H12A14568   3.980   2.270  10.564 -1.1075  1.3671  2.7799
  135SAPE  H12B14569   3.869   2.150  10.620  0.8375  0.8384 -0.1293
  135SAPE   C1114570   4.034   2.063  10.511 -0.1854 -0.3267 -0.2052
  135SAPE  H11A14571   4.145   2.063  10.507 -0.1320  0.1951  1.0854
  135SAPE  H11B14572   3.990   2.082  10.411 -1.3054 -1.1588  0.1151
  135SAPE     P14573   3.977   1.802  10.472 -0.0170  0.1022 -0.4196
  135SAPE   O1314574   4.104   1.772  10.402 -0.0236  0.1013 -0.0872
  135SAPE   O1414575   3.924   1.696  10.562 -0.5346  0.0800 -0.4590
  135SAPE   O1214576   3.997   1.937  10.560  0.5395 -0.4381 -0.2651
  135SAPE   O1114577   3.855   1.849  10.384 -0.3736  0.3439  0.3344
  135SAPE    C114578   3.791   1.751  10.304  0.1453 -0.3796 -0.5441
  135SAPE    HA14579   3.844   1.738  10.207 -0.4318  1.7473 -1.1581
  135SAPE    HB14580   3.787   1.654  10.359  0.4111 -0.3979 -0.5557
  135SAPE    C214581   3.635   1.774  10.293 -0.0771 -0.1982 -0.4308
  135SAPE    HS14582   3.595   1.762  10.396 -0.2419 -0.9978 -0.5837
  135SAPE   O2114583   3.576   1.677  10.204 -0.3362  0.9875  0.2529
  135SAPE   C2114584   3.449   1.655  10.225 -0.6761  0.5631  0.0518
  135SAPE   O2214585   3.386   1.685  10.325 -0.2608  0.5002  0.2301
  135SAPE   C2214586   3.385   1.602  10.099 -0.5094 -0.2277 -0.3044
  135SAPE   H2R14587   3.390   1.491  10.111 -0.2319 -0.3823 -1.6867
  135SAPE   H2S14588   3.279   1.633  10.103  0.2566  2.1861  2.4622
  135SAPE    C314589   3.595   1.918  10.245  0.2061  0.9373 -0.5355
  135SAPE    HX14590   3.639   1.931  10.144 -0.4574 -0.0684 -0.9579
  135SAPE    HY14591   3.643   1.988  10.317 -0.2183  1.2879 -0.5903
  135SAPE   O3114592   3.450   1.936  10.260 -0.3402  0.2639  0.2842
  135SAPE   C3114593   3.397   2.050  10.216  0.4960  0.1698 -0.1632
  135SAPE   O3214594   3.454   2.135  10.153 -0.1594  0.8152  0.4492
  135SAPE   C3214595   3.252   2.034  10.245 -1.0077  0.3309  0.5826
  135SAPE   H2X14596   3.218   2.135  10.279 -1.0600  0.4550  0.1632
  135SAPE   H2Y14597   3.231   1.958  10.323 -1.3292 -0.5748 -0.3939
  135SAPE   C2314598   3.462   1.622   9.971  0.3339  0.6541 -0.2388
  135SAPE   H3R14599   3.422   1.542   9.905 -1.3881 -0.7588  2.4433
  135SAPE   H3S14600   3.572   1.608   9.976 -0.1202 -2.9889  0.5085
  135SAPE   C2414601   3.421   1.753   9.899 -0.0078  0.4457  0.1365
  135SAPE   H4R14602   3.463   1.843   9.947  0.0627  1.0419 -1.0327
  135SAPE   H4S14603   3.312   1.775   9.901 -0.7766 -3.0690  1.6203
  135SAPE   C2514604   3.475   1.767   9.757 -0.5885  0.9111  0.5284
  135SAPE   H5R14605   3.581   1.737   9.751 -0.8048  0.3258 -0.4045
  135SAPE   C2614606   3.425   1.817   9.647 -0.2509 -0.9966 -0.1769
  135SAPE   H6R14607   3.481   1.811   9.552 -1.6812 -1.6000 -1.0001
  135SAPE   C2714608   3.288   1.870   9.621 -0.7765 -0.1036  0.7069
  135SAPE   H7R14609   3.221   1.793   9.664 -1.9545  0.3458 -0.2858
  135SAPE   H7S14610   3.259   1.874   9.514  1.2471  0.4339  0.1543
  135SAPE   C2814611   3.265   2.002   9.690 -0.4924 -0.7830  0.5149
  135SAPE   H8R14612   3.328   2.022   9.777  2.0235 -1.1627 -1.1625
  135SAPE   C2914613   3.187   2.104   9.638 -0.2654  0.1785  0.2236
  135SAPE   H9R14614   3.171   2.189   9.706  0.7843 -0.5732  1.4331
  135SAPE  C21014615   3.105   2.107   9.513 -0.0193 -0.0156  1.1123
  135SAPE  H10R14616   3.043   2.198   9.530 -2.3553 -0.7003 -3.1195
  135SAPE  H10S14617   3.032   2.025   9.498  1.7397 -1.6461  1.2910
  135SAPE  C21114618   3.205   2.134   9.407  0.2131 -0.4037  0.7142
  135SAPE  H11R14619   3.291   2.198   9.433 -0.7030  1.0237  0.2824
  135SAPE  C21214620   3.176   2.126   9.268  0.3273 -0.2841 -0.0290
  135SAPE  H12R14621   3.254   2.162   9.198  0.2605 -1.1095 -0.5310
  135SAPE  C21314622   3.053   2.091   9.194 -0.3311 -0.1637  0.3412
  135SAPE  H13R14623   2.973   2.052   9.260 -0.2858 -1.7559 -0.4922
  135SAPE  H13S14624   3.075   1.999   9.134  1.7692  0.3488  0.3030
  135SAPE  C21414625   2.989   2.189   9.100  0.7259  0.6917 -0.3227
  135SAPE  H14R14626   2.930   2.256   9.165 -2.5355 -1.1422 -1.2785
  135SAPE  C21514627   2.978   2.194   8.966  0.3423 -0.1222  0.2535
  135SAPE  H15R14628   2.934   2.285   8.921  0.3628 -0.1216  0.2350
  135SAPE  C21614629   3.042   2.099   8.865  0.3637  0.0302 -0.5441
  135SAPE  H16R14630   3.138   2.052   8.894 -0.5578 -0.9992  0.9206
  135SAPE  H16S14631   3.071   2.151   8.771 -0.7121  0.1643 -0.8146
  135SAPE  C21714632   2.956   1.977   8.827 -0.2665  0.9541 -0.6728
  135SAPE  H17R14633   2.860   2.019   8.790 -1.7053  1.1867  3.1349
  135SAPE  H17S14634   2.941   1.920   8.921  1.7809 -0.2088 -1.0204
  135SAPE  C21814635   3.021   1.881   8.721  0.9578 -0.2037 -0.7167
  135SAPE  H18R14636   2.942   1.803   8.722  0.7919 -0.0304  0.1275
  135SAPE  H18S14637   3.115   1.848   8.770 -0.5234  2.2352  4.1038
  135SAPE  C21914638   3.038   1.940   8.583  0.5445  0.1193  0.1701
  135SAPE  H19R14639   3.098   2.033   8.595 -1.4898  1.5107 -0.1890
  135SAPE  H19S14640   2.937   1.960   8.542 -0.7807 -2.0079  2.3093
  135SAPE  C22014641   3.104   1.838   8.489 -0.3442  0.7126 -0.1410
  135SAPE  H20R14642   3.119   1.901   8.399 -0.8600 -0.6042 -1.1595
  135SAPE  H20S14643   3.046   1.745   8.470  1.1725  0.2751 -2.7604
  135SAPE  H20T14644   3.208   1.811   8.519  0.4458  2.8595 -0.8067
  135SAPE   C3314645   3.169   1.994  10.117 -0.0893 -0.5554 -0.2111
  135SAPE   H3X14646   3.206   1.896  10.078 -1.0440 -0.5647 -1.1131
  135SAPE   H3Y14647   3.177   2.062  10.030  0.0019 -0.4857 -0.1475
  135SAPE   C3414648   3.019   1.999  10.138  0.0880  0.1390 -0.1257
  135SAPE   H4X14649   2.979   2.100  10.160  0.5634  0.0244  1.3351
  135SAPE   H4Y14650   2.985   1.928  10.216  0.3460  1.2782  1.0450
  135SAPE   C3514651   2.955   1.939  10.009  0.2336  0.5212 -0.7469
  135SAPE   H5X14652   2.861   1.883  10.030  0.8370 -0.4106 -0.5087
  135SAPE   H5Y14653   3.020   1.862   9.962 -1.1373 -1.1346 -0.0108
  135SAPE   C3614654   2.923   2.037   9.901  0.0767  0.4626  0.3450
  135SAPE   H6X14655   3.022   2.076   9.868  1.4257 -2.8395  0.3648
  135SAPE   H6Y14656   2.860   2.125   9.929  0.6603  0.7467  0.7793
  135SAPE   C3714657   2.858   1.971   9.780  0.0958 -0.3019 -0.8012
  135SAPE   H7X14658   2.796   1.883   9.809  1.4064 -0.8750  0.2864
  135SAPE   H7Y14659   2.945   1.942   9.718  1.1346  3.5890 -1.2962
  135SAPE   C3814660   2.772   2.066   9.698  0.1117 -0.6054  0.1244
  135SAPE   H8X14661   2.823   2.163   9.686  0.1788 -0.8556 -1.6527
  135SAPE   H8Y14662   2.671   2.073   9.744 -0.0907 -1.9366 -0.0951
  135SAPE   C3914663   2.747   2.045   9.552  0.6069  0.1205 -0.5779
  135SAPE   H9X14664   2.650   1.992   9.539  0.3199  0.8187 -1.2878
  135SAPE   H9Y14665   2.828   1.977   9.516  0.2302 -0.8860  0.4250
  135SAPE  C31014666   2.747   2.176   9.468 -0.0444  0.0022  0.6314
  135SAPE  H10X14667   2.846   2.226   9.468 -0.0939  0.1021  1.1770
  135SAPE  H10Y14668   2.677   2.241   9.525  3.8439  2.2781  3.0350
  135SAPE  C31114669   2.691   2.156   9.335 -0.3601 -0.4558  0.4804
  135SAPE  H11X14670   2.596   2.100   9.348 -1.5448  1.6832  1.2846
  135SAPE  H11Y14671   2.754   2.095   9.266 -0.4851  0.6861 -0.6598
  135SAPE  C31214672   2.663   2.288   9.262 -0.3717  0.1287  0.0211
  135SAPE  H12X14673   2.743   2.365   9.274 -3.3862  2.9455  3.4120
  135SAPE  H12Y14674   2.575   2.336   9.311  0.6424  1.6350  0.3962
  135SAPE  C31314675   2.631   2.273   9.112 -0.1667  0.0088 -0.0884
  135SAPE  H13X14676   2.534   2.221   9.102  0.2177 -0.8025  0.3542
  135SAPE  H13Y14677   2.698   2.201   9.060 -0.2916 -0.2368  0.0927
  135SAPE  C31414678   2.629   2.406   9.036  0.2830  0.3304 -0.4431
  135SAPE  H14X14679   2.708   2.476   9.070 -0.1840 -0.5988  2.7831
  135SAPE  H14Y14680   2.528   2.451   9.052  1.2149  1.7565  1.6777
  135SAPE  C31514681   2.645   2.387   8.887 -1.0366  0.1253 -0.0034
  135SAPE  H15X14682   2.550   2.340   8.853 -0.8766  0.7732 -1.3820
  135SAPE  H15Y14683   2.734   2.324   8.864 -0.5870 -0.1003  2.2463
  135SAPE  C31614684   2.666   2.524   8.817  0.2331 -0.4260 -0.0441
  135SAPE  H16X14685   2.750   2.564   8.878  0.2992  0.1449 -0.5068
  135SAPE  H16Y14686   2.584   2.598   8.832 -0.0460 -1.0242  1.4933
  135SAPE  C31714687   2.698   2.517   8.664  0.0379 -0.0258  0.4343
  135SAPE  H17X14688   2.698   2.609   8.602  0.1750 -1.6980 -2.1150
  135SAPE  H17Y14689   2.613   2.462   8.618  1.0008 -1.6624  0.5742
  135SAPE  C31814690   2.824   2.445   8.622  0.5878  0.4638  0.2281
  135SAPE  H18X14691   2.790   2.400   8.526 -2.3197 -0.5914  1.6960
  135SAPE  H18Y14692   2.856   2.359   8.684  0.2575  0.0506 -0.1701
  135SAPE  H18Z14693   2.908   2.509   8.588  0.4699  0.2947 -0.3948
  136SAPE     N14694   0.130   2.604  10.876 -0.0129  0.1466 -0.3866
  136SAPE   HN114695   0.118   2.702  10.842 -1.8304 -0.1228 -0.5503
  136SAPE   HN214696   0.154   2.538  10.799  0.1270 -0.8215  0.4701
  136SAPE   HN314697   0.035   2.581  10.911  0.6923 -3.2774 -0.5377
  136SAPE   C1214698   0.228   2.600  10.991  0.5083 -0.8652  0.4173
  136SAPE  H12A14699   0.203   2.683  11.060  1.0574 -0.5565  0.2451
  136SAPE  H12B14700   0.332   2.615  10.956 -0.0236 -2.1526 -1.7893
  136SAPE   C1114701   0.216   2.459  11.051  0.0381  0.1529  0.2678
  136SAPE  H11A14702   0.108   2.441  11.071 -0.2179  1.6791  0.2979
  136SAPE  H11B14703   0.265   2.466  11.150  2.1396 -0.0335 -0.7330
  136SAPE     P14704   0.238   2.206  10.972 -0.1509 -0.0056 -0.0938
  136SAPE   O1314705   0.363   2.129  11.000 -0.1029  0.4432  0.4553
  136SAPE   O1414706   0.128   2.191  11.063 -0.4871  0.0366 -0.4271
  136SAPE   O1214707   0.277   2.357  10.964  0.1629 -0.3891 -0.5893
  136SAPE   O1114708   0.191   2.176  10.819 -0.2966 -0.2364 -0.0328
  136SAPE    C114709   0.067   2.103  10.795  0.6597 -0.0275  0.1907
  136SAPE    HA14710  -0.014   2.122  10.869  1.2908  1.8579  0.4228
  136SAPE    HB14711   0.037   2.134  10.693  0.3404 -0.6038  0.1042
  136SAPE    C214712   0.073   1.945  10.801 -0.1625  0.0116  0.3060
  136SAPE    HS14713   0.092   1.922  10.908  0.2414 -0.1978  0.1923
  136SAPE   O2114714   0.183   1.898  10.720 -0.0060  0.1383  0.3278
  136SAPE   C2114715   0.254   1.795  10.765  0.2546 -0.3398  0.2140
  136SAPE   O2214716   0.234   1.744  10.872 -0.8010 -0.2190 -0.4022
  136SAPE   C2214717   0.360   1.776  10.670 -0.1716 -0.4714 -0.9156
  136SAPE   H2R14718   0.365   1.865  10.603  3.7697 -1.9132 -2.7098
  136SAPE   H2S14719   0.455   1.768  10.727 -0.6067  2.0311  0.2214
  136SAPE    C314720  -0.063   1.886  10.758 -0.2436  0.1935 -0.2339
  136SAPE    HX14721  -0.139   1.923  10.830  0.2371 -0.0612  0.4101
  136SAPE    HY14722  -0.055   1.775  10.768  0.0108  0.0675 -1.7159
  136SAPE   O3114723  -0.095   1.925  10.619 -0.0951  0.2685  0.4989
  136SAPE   C3114724  -0.186   1.838  10.566  0.1712 -0.0186  0.7481
  136SAPE   O3214725  -0.235   1.742  10.623 -0.7937 -0.5629 -0.0969
  136SAPE   C3214726  -0.234   1.892  10.422 -0.9853  0.0993  0.3103
  136SAPE   H2X14727  -0.146   1.881  10.355 -0.3810  0.1199  1.0920
  136SAPE   H2Y14728  -0.236   2.003  10.433  3.1409  0.4061 -1.4428
  136SAPE   C2314729   0.330   1.638  10.594 -0.0351 -0.0910 -0.3464
  136SAPE   H3R14730   0.223   1.625  10.570  0.0479  1.0899 -1.4204
  136SAPE   H3S14731   0.357   1.553  10.661 -0.2672  0.6619  0.7017
  136SAPE   C2414732   0.395   1.633  10.455 -0.2178 -0.1797 -0.6485
  136SAPE   H4R14733   0.502   1.662  10.463 -1.0739  3.0447 -0.1997
  136SAPE   H4S14734   0.360   1.724  10.402 -0.1482  1.0518  1.3781
  136SAPE   C2514735   0.380   1.494  10.386 -0.9020  0.2112  0.8404
  136SAPE   H5R14736   0.446   1.413  10.421  0.3503  0.6842 -0.4074
  136SAPE   C2614737   0.288   1.457  10.296  0.0315  0.3711  0.1910
  136SAPE   H6R14738   0.287   1.354  10.256 -1.2080  1.1502 -1.8861
  136SAPE   C2714739   0.184   1.538  10.228  0.6494  0.1072 -0.8225
  136SAPE   H7R14740   0.222   1.539  10.123 -0.2952  0.3520 -1.1698
  136SAPE   H7S14741   0.186   1.645  10.258 -4.1805 -0.2841  1.3227
  136SAPE   C2814742   0.039   1.492  10.227 -0.9131  0.8588  0.0855
  136SAPE   H8R14743  -0.013   1.500  10.323  0.2994  1.8887  0.6736
  136SAPE   C2914744  -0.021   1.436  10.117 -0.3741 -0.4559  0.4728
  136SAPE   H9R14745  -0.129   1.421  10.126 -0.6786  1.3736  0.0900
  136SAPE  C21014746   0.040   1.404   9.988 -0.0136 -0.5184  0.9082
  136SAPE  H10R14747   0.098   1.493   9.954 -2.5286  1.2325  1.0799
  136SAPE  H10S14748  -0.042   1.400   9.913  0.1368  2.3273  0.5405
  136SAPE  C21114749   0.132   1.286   9.990 -0.1589  0.1539  0.6084
  136SAPE  H11R14750   0.154   1.252  10.092  1.3794  0.6563  0.4693
  136SAPE  C21214751   0.176   1.214   9.889  1.1779 -0.7618  0.3845
  136SAPE  H12R14752   0.251   1.134   9.897  1.6299 -0.4877 -0.9528
  136SAPE  C21314753   0.147   1.248   9.748 -0.2606  0.2203  1.0119
  136SAPE  H13R14754   0.074   1.332   9.743  0.5895  0.8350 -2.3055
  136SAPE  H13S14755   0.097   1.161   9.699  2.0616 -0.3541 -0.4081
  136SAPE  C21414756   0.265   1.292   9.661  0.1466  0.0468 -0.4750
  136SAPE  H14R14757   0.365   1.277   9.703  0.2059  1.8070  0.0215
  136SAPE  C21514758   0.259   1.367   9.546 -0.3779 -0.3804  1.3588
  136SAPE  H15R14759   0.347   1.429   9.523 -1.0336  0.2063  0.3889
  136SAPE  C21614760   0.135   1.409   9.476  0.2874 -0.7008 -0.3457
  136SAPE  H16R14761   0.043   1.358   9.511 -0.1674 -0.5584 -1.3162
  136SAPE  H16S14762   0.139   1.389   9.367 -0.4732  2.3741 -0.9756
  136SAPE  C21714763   0.127   1.565   9.503  0.7920  0.8016 -0.5970
  136SAPE  H17R14764   0.035   1.604   9.453  0.1618  1.1917  0.8172
  136SAPE  H17S14765   0.212   1.617   9.455 -0.9425  3.9106 -0.4451
  136SAPE  C21814766   0.111   1.609   9.652 -0.5303  0.1973 -0.2295
  136SAPE  H18R14767   0.140   1.716   9.649  2.3826 -0.5266  0.3854
  136SAPE  H18S14768   0.180   1.556   9.721 -0.2482 -0.4322 -0.9909
  136SAPE  C21914769  -0.034   1.604   9.695  0.2109  0.3503 -0.5672
  136SAPE  H19R14770  -0.039   1.668   9.786  1.7807 -2.0803  1.2955
  136SAPE  H19S14771  -0.038   1.498   9.727  0.8375  0.4393 -0.1820
  136SAPE  C22014772  -0.150   1.646   9.602 -0.2440  0.3059  0.4868
  136SAPE  H20R14773  -0.129   1.745   9.557 -1.9776  2.0757  3.4432
  136SAPE  H20S14774  -0.247   1.652   9.656 -0.7230  0.2859 -0.3514
  136SAPE  H20T14775  -0.155   1.576   9.515 -1.7517 -0.6381  1.3139
  136SAPE   C3314776  -0.364   1.827  10.366  0.0502  0.0339  0.4701
  136SAPE   H3X14777  -0.383   1.881  10.271  0.7719 -1.1769 -0.3880
  136SAPE   H3Y14778  -0.453   1.828  10.433  0.3062 -0.8928  0.8386
  136SAPE   C3414779  -0.346   1.680  10.333  0.7525  0.0395 -0.0459
  136SAPE   H4X14780  -0.329   1.617  10.422  0.0486 -1.7817 -1.1627
  136SAPE   H4Y14781  -0.263   1.682  10.259  1.6268  0.4085  0.9325
  136SAPE   C3514782  -0.474   1.624  10.263  0.2617  0.3420  0.4426
  136SAPE   H5X14783  -0.512   1.697  10.188 -1.3853 -2.0362 -1.1362
  136SAPE   H5Y14784  -0.555   1.609  10.338 -1.0640  1.9573 -0.6331
  136SAPE   C3614785  -0.449   1.485  10.189  0.1127 -0.4670  0.1841
  136SAPE   H6X14786  -0.548   1.438  10.203  1.3278 -2.0579  4.0296
  136SAPE   H6Y14787  -0.380   1.425  10.253 -1.1551 -2.4733 -0.3039
  136SAPE   C3714788  -0.395   1.485  10.037  0.0433  0.1773  0.3086
  136SAPE   H7X14789  -0.286   1.504  10.036  0.1872 -0.6169 -2.2570
  136SAPE   H7Y14790  -0.436   1.581   9.999  0.5937  0.8156  1.3051
  136SAPE   C3814791  -0.424   1.365   9.954 -0.4922  0.0796  0.0777
  136SAPE   H8X14792  -0.524   1.387   9.910  0.0019  0.7246 -0.7424
  136SAPE   H8Y14793  -0.426   1.283  10.029  1.3275 -0.1469 -0.0972
  136SAPE   C3914794  -0.326   1.332   9.842  0.2679  0.3716  0.5407
  136SAPE   H9X14795  -0.231   1.287   9.878 -0.3161 -0.7285  0.7370
  136SAPE   H9Y14796  -0.302   1.428   9.791  1.0888 -0.1423 -0.0555
  136SAPE  C31014797  -0.385   1.245   9.731  0.0637 -0.4986  0.0618
  136SAPE  H10X14798  -0.482   1.288   9.697  0.7979 -0.1140 -1.6281
  136SAPE  H10Y14799  -0.417   1.145   9.769 -1.1963  0.1640  0.7518
  136SAPE  C31114800  -0.290   1.229   9.604  0.0367 -0.3251  0.3290
  136SAPE  H11X14801  -0.191   1.185   9.629  0.8057  0.4921 -1.2605
  136SAPE  H11Y14802  -0.286   1.331   9.562  0.4165 -1.3680 -2.2420
  136SAPE  C31214803  -0.359   1.151   9.485  0.1948  0.6999  0.0012
  136SAPE  H12X14804  -0.443   1.217   9.455  0.8714  1.6186  0.1351
  136SAPE  H12Y14805  -0.404   1.059   9.529 -0.1536  1.4594  1.2297
  136SAPE  C31314806  -0.269   1.109   9.374 -0.6292 -0.0096  0.3923
  136SAPE  H13X14807  -0.177   1.058   9.412 -1.3779 -0.2302  1.9386
  136SAPE  H13Y14808  -0.222   1.196   9.324  0.6042 -0.3103  1.0010
  136SAPE  C31414809  -0.337   1.010   9.281  0.2728  0.3137 -0.5626
  136SAPE  H14X14810  -0.411   1.058   9.214 -0.6667 -1.4229 -0.8152
  136SAPE  H14Y14811  -0.389   0.925   9.332  0.1945 -0.2728 -1.5995
  136SAPE  C31514812  -0.245   0.944   9.172  0.4750  0.4965 -0.3522
  136SAPE  H15X14813  -0.153   0.923   9.231 -0.9806 -2.5616  0.9662
  136SAPE  H15Y14814  -0.215   1.020   9.098  1.3662  1.1018  0.6184
  136SAPE  C31614815  -0.320   0.822   9.114  0.7106  0.2195  0.0878
  136SAPE  H16X14816  -0.427   0.847   9.098  1.1393  1.7713 -0.4276
  136SAPE  H16Y14817  -0.325   0.743   9.192  1.4182  0.3861  0.3039
  136SAPE  C31714818  -0.257   0.777   8.985  0.7811 -0.1638  0.0204
  136SAPE  H17X14819  -0.147   0.768   8.994  0.9469  1.8592  0.2181
  136SAPE  H17Y14820  -0.273   0.851   8.903 -0.7573  0.6456  1.0197
  136SAPE  C31814821  -0.315   0.640   8.949 -0.6784  0.2652  0.1768
  136SAPE  H18X14822  -0.420   0.639   8.985 -1.0212  2.5420 -0.6933
  136SAPE  H18Y14823  -0.260   0.556   8.997 -1.7316  1.4763  3.6447
  136SAPE  H18Z14824  -0.305   0.631   8.839  1.6242 -0.1721  0.3873
  137SAPE     N14825   4.793   4.719  10.950  0.5323  0.1475 -0.3129
  137SAPE   HN114826   4.846   4.781  11.014 -0.5237  1.2276 -0.4787
  137SAPE   HN214827   4.693   4.736  10.973  1.4077  3.2765  1.4580
  137SAPE   HN314828   4.807   4.618  10.973 -1.8181 -0.5889 -1.9279
  137SAPE   C1214829   4.817   4.749  10.802 -0.2242 -0.2418  0.0711
  137SAPE  H12A14830   4.786   4.855  10.785 -1.6883 -0.7722 -0.6313
  137SAPE  H12B14831   4.748   4.683  10.744  0.4794 -1.1906  0.3086
  137SAPE   C1114832   4.965   4.741  10.761 -0.2876  0.0564 -0.7684
  137SAPE  H11A14833   4.980   4.790  10.662  1.3651 -0.2848 -0.6859
  137SAPE  H11B14834   4.995   4.636  10.742 -0.5068  0.0383 -1.0320
  137SAPE     P14835   5.164   4.769  10.924  0.4255  0.5117 -0.7442
  137SAPE   O1314836   5.259   4.868  10.976  0.4123  0.6097  0.2047
  137SAPE   O1414837   5.125   4.662  11.017  0.0873 -0.3744 -0.3080
  137SAPE   O1214838   5.031   4.830  10.860  0.1577  0.0867  1.0665
  137SAPE   O1114839   5.229   4.704  10.792 -0.2537 -0.0460  0.1275
  137SAPE    C114840   5.346   4.752  10.721  0.0325  0.7944 -0.4859
  137SAPE    HA14841   5.348   4.862  10.702  3.4193  0.9977  0.7984
  137SAPE    HB14842   5.437   4.723  10.777 -1.8002  0.4476  2.4308
  137SAPE    C214843   5.352   4.681  10.574  0.5331 -0.2800  1.3307
  137SAPE    HS14844   5.447   4.702  10.520 -0.4426 -0.3430 -0.4478
  137SAPE   O2114845   5.250   4.728  10.490  0.4631 -0.0593 -0.0125
  137SAPE   C2114846   5.283   4.837  10.427 -0.0294 -0.3259  0.0378
  137SAPE   O2214847   5.377   4.914  10.449  0.1435  0.2737  0.0320
  137SAPE   C2214848   5.184   4.866  10.317 -0.3883 -0.1575 -0.2014
  137SAPE   H2R14849   5.171   4.772  10.259 -1.2031  0.3429 -0.8320
  137SAPE   H2S14850   5.086   4.893  10.361 -1.1678  0.1178 -2.0467
  137SAPE    C314851   5.336   4.521  10.581  0.9240 -0.1403 -0.4891
  137SAPE    HX14852   5.240   4.490  10.628  0.0446 -2.2580 -3.5329
  137SAPE    HY14853   5.418   4.485  10.647  1.6764  0.2789 -1.1838
  137SAPE   O3114854   5.349   4.455  10.452  0.1644 -0.2031 -0.0215
  137SAPE   C3114855   5.469   4.462  10.390  0.2301  0.3623  0.1788
  137SAPE   O3214856   5.574   4.511  10.437  0.5634  0.0794  0.6910
  137SAPE   C3214857   5.449   4.403  10.264 -0.2769  0.7199  0.0117
  137SAPE   H2X14858   5.359   4.338  10.260 -1.8860  2.8194  1.2097
  137SAPE   H2Y14859   5.529   4.328  10.247 -0.0399  1.0050 -0.1456
  137SAPE   C2314860   5.228   4.981  10.219  0.6722  0.4576 -0.3515
  137SAPE   H3R14861   5.319   4.946  10.166  0.2685 -0.6411 -0.3494
  137SAPE   H3S14862   5.258   5.076  10.269 -0.0203 -0.6264  2.2199
  137SAPE   C2414863   5.120   5.014  10.113  0.0063  0.0048  0.8514
  137SAPE   H4R14864   5.039   5.066  10.170  1.3518  1.6527  1.3263
  137SAPE   H4S14865   5.080   4.917  10.078  0.4411  0.2988 -0.4691
  137SAPE   C2514866   5.174   5.112  10.010 -0.3127  0.6562 -0.3878
  137SAPE   H5R14867   5.232   5.195  10.051  2.7019 -1.1581 -0.8403
  137SAPE   C2614868   5.146   5.107   9.881 -1.0041 -0.0740 -0.1925
  137SAPE   H6R14869   5.195   5.177   9.812  0.3605  0.5119  1.3452
  137SAPE   C2714870   5.066   5.006   9.805 -0.1977  0.4140  0.3825
  137SAPE   H7R14871   5.002   5.055   9.729  0.3474  2.1391  1.0219
  137SAPE   H7S14872   5.007   4.942   9.874 -2.2740 -0.0984 -1.8137
  137SAPE   C2814873   5.158   4.911   9.750 -0.1370 -0.1417 -0.0767
  137SAPE   H8R14874   5.225   4.869   9.827 -2.7269 -3.4717  0.5075
  137SAPE   C2914875   5.163   4.857   9.626 -0.0144  0.0930 -0.0862
  137SAPE   H9R14876   5.248   4.792   9.600  0.3698  0.9314 -0.9481
  137SAPE  C21014877   5.062   4.891   9.508 -0.2967 -0.9602 -0.9967
  137SAPE  H10R14878   5.053   5.001   9.498  0.2012 -1.0014 -1.9436
  137SAPE  H10S14879   4.958   4.870   9.541  0.0507  0.0348  0.7913
  137SAPE  C21114880   5.115   4.836   9.383 -0.0629  0.1025  0.3522
  137SAPE  H11R14881   5.142   4.729   9.387 -0.8869 -0.0718  1.4687
  137SAPE  C21214882   5.144   4.891   9.264  0.0895 -0.1545 -0.3428
  137SAPE  H12R14883   5.166   4.815   9.187 -1.6806 -0.5037 -0.5293
  137SAPE  C21314884   5.123   5.042   9.228 -0.1269 -0.2238 -0.0662
  137SAPE  H13R14885   5.028   5.071   9.277  1.3780  0.0702  2.7824
  137SAPE  H13S14886   5.119   5.042   9.117 -1.2546 -0.6265 -0.0330
  137SAPE  C21414887   5.234   5.123   9.287 -0.8085 -0.2634  0.2869
  137SAPE  H14R14888   5.271   5.084   9.383  1.0283  0.1254 -0.2515
  137SAPE  C21514889   5.292   5.231   9.230  0.0132  0.2519  0.2834
  137SAPE  H15R14890   5.377   5.283   9.278  1.2349 -1.5409  0.1076
  137SAPE  C21614891   5.255   5.283   9.097  0.1426 -0.3399  0.1836
  137SAPE  H16R14892   5.240   5.393   9.106  1.3704  0.0662 -2.2435
  137SAPE  H16S14893   5.162   5.242   9.052  0.1100 -0.5906  0.4757
  137SAPE  C21714894   5.369   5.258   9.000 -0.2880  0.2350  0.2596
  137SAPE  H17R14895   5.401   5.153   9.016  0.3562  0.5800  1.2637
  137SAPE  H17S14896   5.461   5.314   9.027 -0.6589  1.7973 -1.5353
  137SAPE  C21814897   5.329   5.286   8.854  0.4054 -0.4934  0.5213
  137SAPE  H18R14898   5.317   5.396   8.842 -0.3790 -0.7130 -0.7743
  137SAPE  H18S14899   5.230   5.238   8.836  1.0481 -2.0300  0.9839
  137SAPE  C21914900   5.437   5.231   8.758 -0.7922 -0.3322  0.0197
  137SAPE  H19R14901   5.420   5.121   8.750  0.1756 -0.5144  0.4813
  137SAPE  H19S14902   5.542   5.245   8.791 -0.2675 -1.2322 -1.1966
  137SAPE  C22014903   5.427   5.299   8.620  0.0755 -0.7341  0.4694
  137SAPE  H20R14904   5.316   5.310   8.611  0.1854  1.8777  1.7419
  137SAPE  H20S14905   5.465   5.228   8.544  0.8118 -2.2937  2.2692
  137SAPE  H20T14906   5.484   5.395   8.623 -1.2013  0.0306  0.8682
  137SAPE   C3314907   5.447   4.504  10.143  0.5723  0.2813  0.0734
  137SAPE   H3X14908   5.526   4.575  10.175  0.4679  0.2847  0.3279
  137SAPE   H3Y14909   5.360   4.573  10.142  0.1326 -0.2090 -4.2258
  137SAPE   C3414910   5.484   4.446  10.006  0.7863 -0.9741 -0.3774
  137SAPE   H4X14911   5.409   4.368   9.980 -0.3525 -0.6777  1.9219
  137SAPE   H4Y14912   5.579   4.391  10.020  0.7032 -1.2197 -0.7519
  137SAPE   C3514913   5.498   4.550   9.897  0.6048 -0.4542 -0.1416
  137SAPE   H5X14914   5.579   4.623   9.917 -0.1368  0.4889 -0.5031
  137SAPE   H5Y14915   5.404   4.610   9.895  0.6534 -0.2674  1.9973
  137SAPE   C3614916   5.512   4.489   9.757  1.1546  0.3805 -0.0588
  137SAPE   H6X14917   5.421   4.430   9.735  1.2968  0.5723 -1.1984
  137SAPE   H6Y14918   5.603   4.425   9.760 -0.1199 -1.6374 -2.4117
  137SAPE   C3714919   5.532   4.604   9.648 -0.6249  0.2162 -0.3666
  137SAPE   H7X14920   5.633   4.642   9.674 -0.5093 -0.3485  0.0370
  137SAPE   H7Y14921   5.455   4.680   9.674 -0.2137  0.4704  0.1300
  137SAPE   C3814922   5.515   4.573   9.500  0.2055 -0.2741 -1.2150
  137SAPE   H8X14923   5.419   4.520   9.487  0.9818 -2.7000  2.3774
  137SAPE   H8Y14924   5.594   4.497   9.484 -1.9062 -2.2771 -2.3639
  137SAPE   C3914925   5.520   4.706   9.416  0.3866  0.4113 -0.6595
  137SAPE   H9X14926   5.616   4.757   9.441 -0.4721  1.1681  1.1586
  137SAPE   H9Y14927   5.441   4.781   9.440 -0.0117 -0.4445  0.7645
  137SAPE  C31014928   5.510   4.681   9.264  0.7064 -0.5879 -0.2549
  137SAPE  H10X14929   5.421   4.618   9.247 -0.8749  1.3099  0.7873
  137SAPE  H10Y14930   5.597   4.620   9.233  1.1245 -1.2723  2.1230
  137SAPE  C31114931   5.520   4.814   9.187  0.2611 -0.8084 -0.1332
  137SAPE  H11X14932   5.580   4.880   9.254 -0.8511 -0.5310  0.6122
  137SAPE  H11Y14933   5.423   4.867   9.172 -0.4233 -1.9853  0.0643
  137SAPE  C31214934   5.576   4.803   9.051 -0.6749  0.0707 -1.1004
  137SAPE  H12X14935   5.493   4.767   8.987 -1.5899  1.0324 -0.4660
  137SAPE  H12Y14936   5.647   4.719   9.066 -0.2413  0.8473  1.4567
  137SAPE  C31314937   5.645   4.925   9.006 -0.7646 -0.2851  0.6142
  137SAPE  H13X14938   5.724   4.952   9.080  0.3973  1.9369 -1.3544
  137SAPE  H13Y14939   5.578   5.013   8.998  1.5007  1.4739  0.3051
  137SAPE  C31414940   5.720   4.903   8.878  0.5003 -0.0901 -0.1139
  137SAPE  H14X14941   5.654   4.864   8.798 -0.2447  0.8044  0.0611
  137SAPE  H14Y14942   5.798   4.824   8.887  0.5821  0.0793  0.8166
  137SAPE  C31514943   5.792   5.029   8.823  0.6494 -0.4339  0.0105
  137SAPE  H15X14944   5.872   5.067   8.890  0.8822  0.0156 -0.5260
  137SAPE  H15Y14945   5.715   5.109   8.815  0.4736 -0.6332 -0.2840
  137SAPE  C31614946   5.846   5.009   8.680  0.6123 -0.5070 -0.2052
  137SAPE  H16X14947   5.765   4.964   8.619 -1.8256  0.2468  2.3911
  137SAPE  H16Y14948   5.926   4.934   8.695  1.1707  0.1058 -0.0925
  137SAPE  C31714949   5.902   5.131   8.606 -0.0031  0.1353  0.6756
  137SAPE  H17X14950   5.954   5.092   8.516  1.0843 -0.5048  1.5701
  137SAPE  H17Y14951   5.975   5.181   8.673 -1.0712  3.0479 -0.2623
  137SAPE  C31814952   5.792   5.232   8.569 -0.9261  0.8400 -0.1264
  137SAPE  H18X14953   5.745   5.279   8.658 -1.0497 -1.4964  1.0713
  137SAPE  H18Y14954   5.713   5.184   8.506 -0.0796  2.4797 -2.5067
  137SAPE  H18Z14955   5.826   5.324   8.517 -1.4109  0.4319 -1.1766
  138SAPE     N14956   1.505   4.949  10.645 -0.2469  1.0802 -0.2007
  138SAPE   HN114957   1.509   4.848  10.671  2.0009  1.6595  1.8318
  138SAPE   HN214958   1.456   4.960  10.553  2.6874 -2.0703 -2.2709
  138SAPE   HN314959   1.603   4.983  10.642  0.2856 -0.4025 -0.1792
  138SAPE   C1214960   1.422   5.019  10.751  0.5701 -0.4746 -0.1629
  138SAPE  H12A14961   1.451   5.124  10.732  0.9110 -0.6326 -0.5296
  138SAPE  H12B14962   1.455   5.001  10.856  2.1955 -0.1140 -0.5907
  138SAPE   C1114963   1.279   5.000  10.726 -0.0271  0.2078  0.0470
  138SAPE  H11A14964   1.219   5.055  10.802  1.0317  0.1883  0.9261
  138SAPE  H11B14965   1.254   4.892  10.733 -0.3203  0.4079  2.7759
  138SAPE     P14966   1.198   5.183  10.553  0.1640 -0.2469  0.0665
  138SAPE   O1314967   1.059   5.205  10.600 -0.0142 -0.2063 -0.0353
  138SAPE   O1414968   1.300   5.278  10.594  0.3766 -0.9132 -0.1361
  138SAPE   O1214969   1.239   5.037  10.596  0.6855 -0.0566  0.1390
  138SAPE   O1114970   1.196   5.187  10.396 -0.2150  0.2043  0.9611
  138SAPE    C114971   1.128   5.087  10.317 -0.1966 -0.1434 -0.2388
  138SAPE    HA14972   1.029   5.081  10.368  0.3564 -1.8645  0.6534
  138SAPE    HB14973   1.115   5.135  10.218 -0.0626  2.6446  1.0437
  138SAPE    C214974   1.194   4.944  10.299  0.2616  0.2192  0.3068
  138SAPE    HS14975   1.220   4.905  10.399 -1.6067 -0.0709  0.6957
  138SAPE   O2114976   1.304   4.950  10.205  0.2221  0.3390 -0.0341
  138SAPE   C2114977   1.417   4.973  10.261 -0.5881  0.3966 -0.7246
  138SAPE   O2214978   1.446   4.954  10.378  0.5128 -0.1892 -0.8142
  138SAPE   C2214979   1.516   5.005  10.150 -0.9308  0.1792  0.3070
  138SAPE   H2R14980   1.532   4.904  10.105  0.8986  0.6352 -0.0922
  138SAPE   H2S14981   1.487   5.062  10.059 -1.0099 -0.8355 -0.3080
  138SAPE    C314982   1.082   4.848  10.240 -0.1756  0.2006 -0.1818
  138SAPE    HX14983   1.002   4.837  10.317  2.2520  2.7859  2.8750
  138SAPE    HY14984   1.124   4.753  10.203 -0.5694 -0.7328  1.7163
  138SAPE   O3114985   1.025   4.924  10.131 -0.1040 -0.0063 -0.3452
  138SAPE   C3114986   0.913   4.870  10.077  0.2875 -0.0936 -0.3880
  138SAPE   O3214987   0.864   4.769  10.118  0.5301  0.3319 -0.1214
  138SAPE   C3214988   0.859   4.966   9.967 -0.1896 -0.1481 -0.1317
  138SAPE   H2X14989   0.772   5.024  10.006 -0.5171 -1.2458  0.8016
  138SAPE   H2Y14990   0.816   4.908   9.883 -0.3756  1.2116 -1.0022
  138SAPE   C2314991   1.641   5.064  10.213  0.3348  0.0432 -0.0392
  138SAPE   H3R14992   1.665   5.026  10.315  2.3392  0.6726 -0.2566
  138SAPE   H3S14993   1.624   5.171  10.237 -0.5816 -0.2204  0.5466
  138SAPE   C2414994   1.769   5.031  10.132 -0.3827  0.0338 -0.4928
  138SAPE   H4R14995   1.784   4.921  10.125  1.5113  0.3309 -1.4735
  138SAPE   H4S14996   1.852   5.062  10.198 -0.4113 -0.8704 -0.0277
  138SAPE   C2514997   1.772   5.102   9.998  0.2809 -0.1652  0.7041
  138SAPE   H5R14998   1.786   5.211   9.995  2.5708 -0.4395 -0.2131
  138SAPE   C2614999   1.748   5.057   9.878 -0.1765  0.0337  0.7945
  138SAPE   H6R15000   1.753   5.124   9.791  0.2428 -2.1833 -0.9225
  138SAPE   C2715001   1.698   4.917   9.840  0.1687 -0.4098  0.4885
  138SAPE   H7R15002   1.715   4.845   9.923  2.7171 -1.2704 -0.7069
  138SAPE   H7S15003   1.743   4.879   9.746  1.7351  1.1035  0.6005
  138SAPE   C2815004   1.550   4.924   9.816 -0.0206 -0.5177  0.2592
  138SAPE   H8R15005   1.482   4.883   9.893 -1.4356  0.6150 -0.3673
  138SAPE   C2915006   1.496   4.968   9.697 -0.3812  0.3042  0.4860
  138SAPE   H9R15007   1.386   4.971   9.693 -0.4481 -1.0084  1.2237
  138SAPE  C21015008   1.575   5.011   9.570  0.2050 -0.3462  0.6269
  138SAPE  H10R15009   1.588   4.926   9.500  0.2042 -0.2307  0.4879
  138SAPE  H10S15010   1.681   5.039   9.587  0.5848  0.5038 -2.8277
  138SAPE  C21115011   1.495   5.126   9.511  0.1430 -0.4960 -0.3409
  138SAPE  H11R15012   1.503   5.220   9.567 -1.5185 -0.0757 -0.7910
  138SAPE  C21215013   1.429   5.119   9.392  0.1621 -0.0384 -0.8948
  138SAPE  H12R15014   1.369   5.206   9.362  0.9733  0.3609 -1.3856
  138SAPE  C21315015   1.421   5.006   9.294 -0.0345  0.1471 -0.3024
  138SAPE  H13R15016   1.351   5.035   9.212 -0.7587 -0.7816 -0.0277
  138SAPE  H13S15017   1.375   4.917   9.341 -1.6401  1.0296 -0.1780
  138SAPE  C21415018   1.561   4.968   9.238 -0.5068 -0.0725 -0.1518
  138SAPE  H14R15019   1.643   5.039   9.257  0.9530 -2.1587  1.6158
  138SAPE  C21515020   1.590   4.867   9.153  0.1005  0.3476  0.8556
  138SAPE  H15R15021   1.693   4.838   9.126 -0.4079 -0.6142 -0.0773
  138SAPE  C21615022   1.494   4.772   9.102 -0.4226  0.0305  0.4815
  138SAPE  H16R15023   1.389   4.779   9.139 -0.9662 -1.9574 -0.6004
  138SAPE  H16S15024   1.533   4.677   9.144 -2.4838 -0.3214  1.6897
  138SAPE  C21715025   1.481   4.771   8.953 -0.2983 -0.6229 -0.2477
  138SAPE  H17R15026   1.581   4.743   8.913  0.5352  0.6485  0.8866
  138SAPE  H17S15027   1.459   4.874   8.917  0.7590  0.2920  1.6484
  138SAPE  C21815028   1.370   4.676   8.885 -1.0642  0.3528  0.9245
  138SAPE  H18R15029   1.273   4.711   8.925 -1.2705  0.5460  0.2711
  138SAPE  H18S15030   1.399   4.575   8.920  1.9670  0.6565 -0.5624
  138SAPE  C21915031   1.377   4.678   8.732  0.9575  0.0333  0.2840
  138SAPE  H19R15032   1.480   4.647   8.705  1.1699 -0.1292  1.2519
  138SAPE  H19S15033   1.363   4.781   8.693  0.0085 -0.3737 -0.4523
  138SAPE  C22015034   1.273   4.581   8.670  0.3433  0.1570 -0.1465
  138SAPE  H20R15035   1.177   4.636   8.679  0.8265  1.0536 -0.3430
  138SAPE  H20S15036   1.280   4.489   8.731  1.5915 -0.7272 -1.5752
  138SAPE  H20T15037   1.303   4.556   8.566  0.9388  2.6323 -0.6065
  138SAPE   C3315038   0.970   5.068   9.922  0.3334  0.7319  0.1496
  138SAPE   H3X15039   1.018   5.115  10.010 -1.0056  1.2465  0.6194
  138SAPE   H3Y15040   0.917   5.152   9.872 -0.3750  0.0184 -0.3177
  138SAPE   C3415041   1.079   5.009   9.834 -0.0653 -0.6433 -0.6111
  138SAPE   H4X15042   1.152   4.948   9.891  0.8621  0.4317 -0.6420
  138SAPE   H4Y15043   1.134   5.098   9.797  1.5578 -1.4683 -0.2392
  138SAPE   C3515044   1.035   4.917   9.721 -0.0121  0.1475  0.4891
  138SAPE   H5X15045   0.959   4.960   9.652 -0.2522 -2.3845 -0.8817
  138SAPE   H5Y15046   1.003   4.828   9.779  0.5327  0.1257  0.7576
  138SAPE   C3615047   1.155   4.862   9.633  0.0991 -0.1684  0.1704
  138SAPE   H6X15048   1.210   4.780   9.685 -0.1003 -1.5806 -1.7825
  138SAPE   H6Y15049   1.217   4.945   9.595 -0.1661 -0.5896 -1.2231
  138SAPE   C3715050   1.102   4.796   9.509 -0.1195  0.8176  0.3142
  138SAPE   H7X15051   1.024   4.721   9.531 -1.3405  1.7607 -0.6700
  138SAPE   H7Y15052   1.183   4.730   9.471 -0.3413 -0.0485  1.3296
  138SAPE   C3815053   1.059   4.893   9.399 -0.7364 -0.2323  0.8779
  138SAPE   H8X15054   1.148   4.951   9.364 -0.4813 -1.0192  0.2236
  138SAPE   H8Y15055   0.987   4.966   9.441 -1.3412 -0.5139  0.3160
  138SAPE   C3915056   0.991   4.836   9.276 -0.2922  0.2783 -0.8153
  138SAPE   H9X15057   0.908   4.770   9.311 -0.3484  0.2044 -1.0918
  138SAPE   H9Y15058   1.058   4.764   9.225  1.1247  0.3380  0.9186
  138SAPE  C31015059   0.951   4.945   9.181  0.1883  0.2198  0.1525
  138SAPE  H10X15060   0.995   5.044   9.208 -0.0987  0.5818 -0.6674
  138SAPE  H10Y15061   0.846   4.974   9.204 -0.0290  0.8984 -1.6344
  138SAPE  C31115062   0.973   4.911   9.030  0.0542 -0.1940  0.3969
  138SAPE  H11X15063   0.983   4.801   9.018  0.2079 -0.0332 -1.1563
  138SAPE  H11Y15064   1.065   4.948   8.978  1.5237 -2.0849  1.5639
  138SAPE  C31215065   0.856   4.969   8.950 -0.0262 -0.3201 -0.5431
  138SAPE  H12X15066   0.842   5.074   8.985  0.5736 -0.4615  0.1310
  138SAPE  H12Y15067   0.765   4.906   8.955  0.4884 -1.0326 -0.1212
  138SAPE  C31315068   0.888   4.965   8.804  0.3467  0.7147  0.3740
  138SAPE  H13X15069   0.880   4.861   8.766 -2.3532  1.0541 -0.1650
  138SAPE  H13Y15070   0.990   5.007   8.800  0.8800 -0.5402  0.7592
  138SAPE  C31415071   0.785   5.039   8.718  0.2188  0.0608  0.5496
  138SAPE  H14X15072   0.824   5.033   8.614  1.1008  2.1876  0.7191
  138SAPE  H14Y15073   0.783   5.143   8.758 -1.9305 -0.6595  2.3747
  138SAPE  C31515074   0.642   4.999   8.713  0.1291 -0.2775  0.6066
  138SAPE  H15X15075   0.603   5.015   8.815  2.8535  4.0288  1.0851
  138SAPE  H15Y15076   0.639   4.889   8.693 -1.2887 -0.2319  0.5148
  138SAPE  C31615077   0.548   5.072   8.611 -0.4606  0.0551 -0.7507
  138SAPE  H16X15078   0.581   5.060   8.506  1.8188  3.7789 -0.5468
  138SAPE  H16Y15079   0.560   5.181   8.630 -2.2605  0.0286  0.7310
  138SAPE  C31715080   0.404   5.033   8.639 -0.2962  0.4134  0.4285
  138SAPE  H17X15081   0.373   5.027   8.746 -0.5840  4.3390  0.6553
  138SAPE  H17Y15082   0.389   4.934   8.591 -0.0109 -0.2942  1.7706
  138SAPE  C31815083   0.304   5.121   8.563 -0.6267  0.6476  0.5205
  138SAPE  H18X15084   0.200   5.083   8.560 -0.9554  1.4826  0.9929
  138SAPE  H18Y15085   0.341   5.137   8.460  1.6338 -1.7590  0.9132
  138SAPE  H18Z15086   0.293   5.225   8.603 -0.0600  1.0002 -0.2414
  139SAPE     N15087   0.754   4.074  10.490 -0.1923  0.4633 -0.2566
  139SAPE   HN115088   0.788   4.172  10.496 -2.4139  1.2306  0.2923
  139SAPE   HN215089   0.652   4.069  10.508  0.0900  2.0765  2.0258
  139SAPE   HN315090   0.786   4.018  10.572  1.7538 -1.6012 -2.3481
  139SAPE   C1215091   0.827   4.003  10.371  0.2248 -1.1231 -0.2807
  139SAPE  H12A15092   0.783   4.047  10.279 -0.7203 -2.1468 -0.3396
  139SAPE  H12B15093   0.800   3.895  10.369 -0.9859 -0.8231 -0.4745
  139SAPE   C1115094   0.974   4.025  10.382 -0.5010  0.4291  0.1764
  139SAPE  H11A15095   0.982   4.135  10.387  1.7688  0.3356 -0.9095
  139SAPE  H11B15096   1.017   3.983  10.288 -0.0255 -0.2841  0.7057
  139SAPE     P15097   1.106   3.822  10.506  0.4414  0.0267  0.2345
  139SAPE   O1315098   1.253   3.837  10.477 -0.0671  0.1110  0.5714
  139SAPE   O1415099   1.080   3.761  10.634 -0.0642 -0.0154 -1.0466
  139SAPE   O1215100   1.044   3.969  10.497  0.9083 -0.2117 -0.6465
  139SAPE   O1115101   1.031   3.757  10.386  0.0345 -0.4880  0.1335
  139SAPE    C115102   1.089   3.639  10.322  0.1588  0.2144 -0.5593
  139SAPE    HA15103   1.137   3.574  10.398  0.9695  1.0454 -0.3404
  139SAPE    HB15104   1.002   3.584  10.281 -0.8620  2.2050 -1.1539
  139SAPE    C215105   1.194   3.690  10.221  0.4718 -0.1007  0.1438
  139SAPE    HS15106   1.281   3.724  10.281 -1.8506  1.2247  2.8291
  139SAPE   O2115107   1.139   3.806  10.151 -0.5055 -0.2733 -0.3972
  139SAPE   C2115108   1.234   3.893  10.105 -0.0183  0.4985  0.4530
  139SAPE   O2215109   1.351   3.887  10.130  0.1111 -0.1088 -0.3106
  139SAPE   C2215110   1.167   3.998  10.015 -0.0110 -0.1025 -0.1106
  139SAPE   H2R15111   1.085   3.948   9.960  1.1760 -1.7005 -0.4665
  139SAPE   H2S15112   1.116   4.073  10.079 -0.5686  0.0725 -0.7556
  139SAPE    C315113   1.218   3.581  10.114  0.0020 -0.1251 -0.4004
  139SAPE    HX15114   1.288   3.629  10.042 -1.6964  1.8763 -0.7783
  139SAPE    HY15115   1.128   3.570  10.051  0.6946 -0.7014 -1.2982
  139SAPE   O3115116   1.249   3.452  10.175  0.3590 -0.2105  0.4236
  139SAPE   C3115117   1.384   3.432  10.199 -0.0470 -0.8969 -0.4767
  139SAPE   O3215118   1.472   3.516  10.180  0.4787 -0.2414 -0.6260
  139SAPE   C3215119   1.400   3.291  10.228 -0.3557  0.2661 -0.4454
  139SAPE   H2X15120   1.386   3.271  10.336  0.6281  2.5613  0.1402
  139SAPE   H2Y15121   1.504   3.266  10.196 -0.8191  0.0564 -1.8330
  139SAPE   C2315122   1.274   4.057   9.918  0.3033  0.3846  0.2953
  139SAPE   H3R15123   1.370   4.068   9.972  1.6512 -2.6304 -1.3512
  139SAPE   H3S15124   1.239   4.157   9.885 -2.7101 -1.1037 -1.2692
  139SAPE   C2415125   1.278   3.988   9.782 -0.0917  0.1619  0.3349
  139SAPE   H4R15126   1.324   4.058   9.709 -1.4341  1.9266  1.1239
  139SAPE   H4S15127   1.177   3.965   9.740  0.0205 -1.3783  0.8831
  139SAPE   C2515128   1.350   3.855   9.789 -0.0846  0.2992 -0.1126
  139SAPE   H5R15129   1.444   3.875   9.843 -1.6139  3.3295  1.5517
  139SAPE   C2615130   1.312   3.732   9.760  0.4336  0.1537 -0.2758
  139SAPE   H6R15131   1.379   3.646   9.776  0.5260  0.1308 -0.7862
  139SAPE   C2715132   1.169   3.705   9.711 -0.3344  0.4516  0.3536
  139SAPE   H7R15133   1.111   3.789   9.668 -0.8938 -0.6371 -1.0857
  139SAPE   H7S15134   1.118   3.665   9.801  0.6781 -0.4560  0.5351
  139SAPE   C2815135   1.183   3.603   9.596  0.5084 -0.1856  0.2074
  139SAPE   H8R15136   1.244   3.512   9.610  0.2907 -0.4543 -0.5423
  139SAPE   C2915137   1.121   3.613   9.474  0.5892  0.1709  1.1475
  139SAPE   H9R15138   1.144   3.540   9.396 -1.7963  0.0506  0.5126
  139SAPE  C21015139   1.043   3.728   9.405 -0.3462 -0.2015 -0.6793
  139SAPE  H10R15140   0.993   3.796   9.477 -2.0617 -1.5633 -0.5537
  139SAPE  H10S15141   0.953   3.687   9.355 -0.6817 -1.3834  0.8653
  139SAPE  C21115142   1.129   3.797   9.307  0.0784  0.2492 -0.1658
  139SAPE  H11R15143   1.219   3.844   9.350  0.9615 -1.4538 -0.0773
  139SAPE  C21215144   1.119   3.787   9.173  0.5872  0.0644 -0.4177
  139SAPE  H12R15145   1.202   3.816   9.107 -0.7621 -0.6362 -2.4957
  139SAPE  C21315146   1.004   3.716   9.099  1.0758  0.1835 -0.6364
  139SAPE  H13R15147   0.999   3.748   8.993 -2.1820 -1.3768 -1.0041
  139SAPE  H13S15148   0.911   3.752   9.148  1.7969 -0.5191  1.2784
  139SAPE  C21415149   1.007   3.569   9.117  0.5289 -0.5142 -0.3554
  139SAPE  H14R15150   1.095   3.541   9.176  1.1042  1.7164 -0.1478
  139SAPE  C21515151   0.912   3.482   9.075  0.3455 -0.1613  0.2046
  139SAPE  H15R15152   0.920   3.374   9.096 -0.2609 -0.4103 -0.8160
  139SAPE  C21615153   0.779   3.512   9.015  0.1478 -0.0373 -0.3116
  139SAPE  H16R15154   0.762   3.622   9.020 -0.7695 -0.2395  1.1427
  139SAPE  H16S15155   0.701   3.463   9.076  1.3027 -1.0711  0.3725
  139SAPE  C21715156   0.762   3.458   8.868 -0.8743  0.8214  0.3076
  139SAPE  H17R15157   0.763   3.347   8.871  1.2373  0.8288  0.3805
  139SAPE  H17S15158   0.853   3.489   8.812 -0.4264 -1.8502 -0.5013
  139SAPE  C21815159   0.629   3.486   8.804  0.0648  0.2102 -0.0711
  139SAPE  H18R15160   0.617   3.594   8.783 -0.9755  0.0535 -0.3216
  139SAPE  H18S15161   0.546   3.450   8.869  0.2396 -1.5968 -0.8124
  139SAPE  C21915162   0.620   3.407   8.666  0.8387 -0.2645  0.0292
  139SAPE  H19R15163   0.633   3.299   8.687  1.5298 -0.5354 -1.6473
  139SAPE  H19S15164   0.707   3.439   8.604  0.1242  0.3641 -0.6626
  139SAPE  C22015165   0.495   3.425   8.583  0.5414 -0.2412  0.3141
  139SAPE  H20R15166   0.499   3.357   8.495 -1.0827  0.2563 -0.1665
  139SAPE  H20S15167   0.485   3.529   8.543 -2.5517 -0.5784  0.0799
  139SAPE  H20T15168   0.403   3.406   8.643  0.1895  0.7521  0.1096
  139SAPE   C3315169   1.316   3.186  10.159  0.1549  1.0463  0.5960
  139SAPE   H3X15170   1.218   3.215  10.117  0.8245  2.4560 -0.0369
  139SAPE   H3Y15171   1.306   3.100  10.228  2.1265 -0.2462 -0.6621
  139SAPE   C3415172   1.390   3.129  10.040 -0.0046 -1.3990  0.5518
  139SAPE   H4X15173   1.488   3.094  10.077  1.7230 -1.0646 -3.5452
  139SAPE   H4Y15174   1.409   3.215   9.973 -0.3315 -1.3188  0.5602
  139SAPE   C3515175   1.330   3.003   9.972 -0.2520 -0.3958  0.6442
  139SAPE   H5X15176   1.223   3.014   9.946 -0.3327  0.4659  1.3413
  139SAPE   H5Y15177   1.315   2.928  10.052 -0.9366  1.4977  2.3305
  139SAPE   C3615178   1.428   2.958   9.868  0.2753  0.4452 -0.3005
  139SAPE   H6X15179   1.534   2.966   9.901 -0.0803  1.1398  0.6839
  139SAPE   H6Y15180   1.420   3.020   9.776 -1.1732 -0.3445 -0.7300
  139SAPE   C3715181   1.414   2.806   9.838 -0.9714  1.1704  0.0733
  139SAPE   H7X15182   1.315   2.787   9.791 -0.9252  2.0613 -0.3868
  139SAPE   H7Y15183   1.413   2.749   9.933 -0.6850  0.1221 -0.5385
  139SAPE   C3815184   1.519   2.763   9.738  0.3953  0.4445  0.1996
  139SAPE   H8X15185   1.529   2.653   9.724 -2.1943  0.3715 -1.2972
  139SAPE   H8Y15186   1.615   2.791   9.786  1.5198 -3.0628  0.1550
  139SAPE   C3915187   1.506   2.830   9.593 -0.9780  0.2620  0.5812
  139SAPE   H9X15188   1.491   2.939   9.608  0.1431  0.3355  1.2826
  139SAPE   H9Y15189   1.409   2.796   9.551 -0.7885  0.0382  0.3181
  139SAPE  C31015190   1.612   2.821   9.483  0.1888  0.9362  0.2916
  139SAPE  H10X15191   1.709   2.847   9.532 -0.4071  0.0180  2.0168
  139SAPE  H10Y15192   1.581   2.888   9.401  0.3389  1.1151  0.3813
  139SAPE  C31115193   1.648   2.682   9.436 -0.3976 -0.3032  0.2140
  139SAPE  H11X15194   1.549   2.632   9.445  0.3262 -1.2790  3.7232
  139SAPE  H11Y15195   1.722   2.632   9.502 -0.3074 -1.6061 -0.8716
  139SAPE  C31215196   1.712   2.676   9.297  0.1365  0.1970  0.0743
  139SAPE  H12X15197   1.745   2.571   9.287  1.6279  0.6779 -0.2159
  139SAPE  H12Y15198   1.809   2.730   9.292  0.8540 -1.0721  0.2282
  139SAPE  C31315199   1.621   2.713   9.178 -0.0109 -0.0680  0.6172
  139SAPE  H13X15200   1.536   2.781   9.201 -0.4172 -0.2644 -0.2896
  139SAPE  H13Y15201   1.555   2.625   9.159  0.1744 -0.1327  0.2617
  139SAPE  C31415202   1.687   2.746   9.043 -0.2893 -0.0311 -0.4300
  139SAPE  H14X15203   1.750   2.661   9.010  0.6854  0.5080  0.0148
  139SAPE  H14Y15204   1.750   2.837   9.051 -0.8937  0.3200  0.3757
  139SAPE  C31515205   1.589   2.778   8.932  0.0462  0.7140  0.4437
  139SAPE  H15X15206   1.652   2.805   8.845 -1.1324 -0.0921 -0.6747
  139SAPE  H15Y15207   1.522   2.862   8.960 -0.4439  0.3516  0.3762
  139SAPE  C31615208   1.488   2.669   8.900  1.0970  0.1085  0.2894
  139SAPE  H16X15209   1.549   2.578   8.883 -0.7881 -1.1521  0.0790
  139SAPE  H16Y15210   1.420   2.658   8.988  0.4645  0.1300 -0.1897
  139SAPE  C31715211   1.410   2.683   8.773  0.4020  0.2114  0.3652
  139SAPE  H17X15212   1.345   2.594   8.761  0.4932 -0.0280  1.5685
  139SAPE  H17Y15213   1.480   2.682   8.687  0.9298 -0.6038  0.8017
  139SAPE  C31815214   1.331   2.811   8.754  0.2162 -0.0824  0.1131
  139SAPE  H18X15215   1.406   2.893   8.764  0.7359 -0.3271 -1.7233
  139SAPE  H18Y15216   1.260   2.827   8.838 -2.0323 -1.8506 -1.4031
  139SAPE  H18Z15217   1.279   2.815   8.656  1.0321 -1.1718 -0.3801
  140SAPE     N15218   3.724   6.552  10.968  0.1266  1.0057  0.4346
  140SAPE   HN115219   3.699   6.467  10.914  1.3973 -0.2663  1.8130
  140SAPE   HN215220   3.825   6.534  10.979 -0.4060 -2.3075  0.3001
  140SAPE   HN315221   3.682   6.542  11.063 -1.0515 -0.4669 -0.2220
  140SAPE   C1215222   3.698   6.671  10.883  0.0815 -0.2144  0.2375
  140SAPE  H12A15223   3.589   6.690  10.888  0.1684  0.5057 -0.4367
  140SAPE  H12B15224   3.734   6.637  10.784 -1.4331 -0.7219 -0.1478
  140SAPE   C1115225   3.778   6.797  10.929 -0.0952  0.0758  0.1030
  140SAPE  H11A15226   3.886   6.779  10.915  0.2012  0.3684  1.9074
  140SAPE  H11B15227   3.769   6.821  11.037 -0.4379  1.7834 -0.2858
  140SAPE     P15228   3.674   7.037  10.927 -0.5708 -0.1760  0.1116
  140SAPE   O1315229   3.542   7.000  10.975 -0.2629 -0.4438 -0.3398
  140SAPE   O1415230   3.758   7.088  11.030  0.0205 -0.1974 -0.3609
  140SAPE   O1215231   3.746   6.909  10.853  0.7147  0.0925 -0.0253
  140SAPE   O1115232   3.658   7.149  10.813 -0.3254 -0.0994  0.0808
  140SAPE    C115233   3.755   7.162  10.708  0.2621 -0.1089 -0.4566
  140SAPE    HA15234   3.854   7.125  10.743  0.2947  0.3978 -0.0024
  140SAPE    HB15235   3.727   7.098  10.622 -1.0569 -0.2193  0.0446
  140SAPE    C215236   3.780   7.314  10.673 -0.0091  0.8141 -0.2041
  140SAPE    HS15237   3.818   7.356  10.768  1.9587 -0.5466 -0.3388
  140SAPE   O2115238   3.656   7.361  10.613  0.3147 -0.2078  0.0545
  140SAPE   C2115239   3.641   7.493  10.635  0.6856 -0.2649 -0.0659
  140SAPE   O2215240   3.726   7.560  10.687 -0.0624 -0.0431  0.7506
  140SAPE   C2215241   3.497   7.545  10.605 -0.6184 -0.0598  0.3497
  140SAPE   H2R15242   3.454   7.479  10.526  1.1947 -1.6108  0.6066
  140SAPE   H2S15243   3.428   7.540  10.692  1.1097  2.1849  1.8895
  140SAPE    C315244   3.895   7.323  10.556 -0.0489  0.1734  0.1975
  140SAPE    HX15245   3.977   7.259  10.596 -1.5003 -1.4988  0.5723
  140SAPE    HY15246   3.938   7.424  10.544  0.1986 -0.2370 -2.7254
  140SAPE   O3115247   3.845   7.272  10.434 -0.5083  0.4204  0.5544
  140SAPE   C3115248   3.941   7.277  10.337 -0.2682  0.6447  0.4028
  140SAPE   O3215249   4.058   7.306  10.351 -0.0502  0.2803 -0.0225
  140SAPE   C3215250   3.869   7.254  10.207 -1.0937  0.1910 -0.3410
  140SAPE   H2X15251   3.773   7.305  10.227 -1.1837  0.2317 -0.8601
  140SAPE   H2Y15252   3.856   7.144  10.202  1.2551 -0.1125 -0.4891
  140SAPE   C2315253   3.499   7.687  10.541  0.3185 -0.5247 -0.2356
  140SAPE   H3R15254   3.517   7.756  10.625  1.6733  0.9030 -1.6658
  140SAPE   H3S15255   3.406   7.710  10.485  0.2319 -2.1274 -0.7898
  140SAPE   C2415256   3.614   7.693  10.429 -0.7071 -0.6261  0.1345
  140SAPE   H4R15257   3.712   7.703  10.480 -0.0616  1.7072 -1.4685
  140SAPE   H4S15258   3.595   7.793  10.383  0.6237 -0.0907  0.7238
  140SAPE   C2515259   3.608   7.575  10.327  0.0983 -0.1971  0.5690
  140SAPE   H5R15260   3.583   7.473  10.358 -1.8370 -0.0418 -0.4323
  140SAPE   C2615261   3.648   7.587  10.199  0.0345  0.2831 -0.6054
  140SAPE   H6R15262   3.642   7.496  10.137 -0.8382  0.2470 -0.4740
  140SAPE   C2715263   3.701   7.712  10.129  0.1352  0.2584  0.1811
  140SAPE   H7R15264   3.760   7.783  10.191 -1.4254  1.9313 -0.2208
  140SAPE   H7S15265   3.620   7.778  10.093  0.7630  1.2921  0.6454
  140SAPE   C2815266   3.788   7.674  10.017 -0.4582  0.7226  0.7372
  140SAPE   H8R15267   3.856   7.598  10.059 -2.7760 -2.3163 -0.8096
  140SAPE   C2915268   3.802   7.718   9.892 -0.3475 -0.3850 -0.4174
  140SAPE   H9R15269   3.870   7.671   9.818 -0.4573 -1.2507  0.0235
  140SAPE  C21015270   3.723   7.836   9.841  0.2884 -0.8161 -0.5116
  140SAPE  H10R15271   3.674   7.898   9.920  1.6628  1.4405 -1.3656
  140SAPE  H10S15272   3.643   7.785   9.783 -1.0257  1.1014 -0.4440
  140SAPE  C21115273   3.787   7.939   9.757  0.0519  0.1750  0.9879
  140SAPE  H11R15274   3.894   7.962   9.768 -0.0136  1.7276 -1.2006
  140SAPE  C21215275   3.717   8.015   9.670 -0.0747 -0.1499 -0.0395
  140SAPE  H12R15276   3.770   8.086   9.606  0.0118  1.4755  1.7955
  140SAPE  C21315277   3.567   8.013   9.646  0.3872  0.1750 -0.6045
  140SAPE  H13R15278   3.516   7.936   9.710 -1.2263  2.4083  0.8784
  140SAPE  H13S15279   3.532   7.977   9.547  1.3816  1.6118 -1.4855
  140SAPE  C21415280   3.496   8.144   9.669  0.2818  0.5037 -0.0344
  140SAPE  H14R15281   3.440   8.159   9.762 -2.1164  0.7232 -1.4552
  140SAPE  C21515282   3.491   8.244   9.584 -0.9368 -0.2516  0.1420
  140SAPE  H15R15283   3.436   8.333   9.616  0.1294  0.3082  0.4472
  140SAPE  C21615284   3.565   8.242   9.449  0.1990  0.1343 -0.0489
  140SAPE  H16R15285   3.642   8.164   9.436  1.4377  1.1396  1.2030
  140SAPE  H16S15286   3.619   8.339   9.439 -0.5860  0.6452  0.5946
  140SAPE  C21715287   3.468   8.227   9.329 -0.6104 -0.0849  0.5979
  140SAPE  H17R15288   3.418   8.128   9.318 -2.6238  1.1588 -1.9006
  140SAPE  H17S15289   3.540   8.226   9.244 -0.1372 -3.3748  0.9387
  140SAPE  C21815290   3.352   8.334   9.310 -0.5193  0.4177  0.2671
  140SAPE  H18R15291   3.409   8.428   9.291  2.6222 -1.8420 -1.8354
  140SAPE  H18S15292   3.305   8.361   9.407 -1.5370  1.7417 -0.5657
  140SAPE  C21915293   3.261   8.321   9.193 -0.0847  0.2030 -0.0749
  140SAPE  H19R15294   3.194   8.410   9.190  0.1072  0.4559  2.2847
  140SAPE  H19S15295   3.193   8.238   9.219  0.5583 -1.1853 -2.6432
  140SAPE  C22015296   3.326   8.279   9.064 -0.2791 -0.1485 -0.1097
  140SAPE  H20R15297   3.385   8.367   9.033 -0.2217  0.4129  1.5713
  140SAPE  H20S15298   3.259   8.242   8.983 -0.2380  1.8347 -1.0785
  140SAPE  H20T15299   3.406   8.202   9.067  0.1725  0.2305 -1.7579
  140SAPE   C3315300   3.951   7.298  10.087  0.1140  0.5952 -0.3243
  140SAPE   H3X15301   4.034   7.226  10.068 -0.9433 -0.3516 -1.4304
  140SAPE   H3Y15302   3.974   7.407  10.097 -1.8398  1.0692 -0.9473
  140SAPE   C3415303   3.860   7.292   9.966 -0.2603 -0.2643 -0.3161
  140SAPE   H4X15304   3.777   7.365   9.971  1.1258  1.3000  0.4629
  140SAPE   H4Y15305   3.815   7.194   9.937  2.4713 -2.0831  1.3380
  140SAPE   C3515306   3.935   7.351   9.845  0.4171 -1.1358 -0.1819
  140SAPE   H5X15307   4.022   7.286   9.822  1.1952 -0.1704 -0.0051
  140SAPE   H5Y15308   3.968   7.454   9.866 -0.1293 -1.1763  0.9481
  140SAPE   C3615309   3.853   7.354   9.716 -0.2814 -0.2004 -0.5684
  140SAPE   H6X15310   3.933   7.355   9.639  0.5296 -0.0332  0.2602
  140SAPE   H6Y15311   3.784   7.440   9.707 -0.0502  0.2539  1.5529
  140SAPE   C3715312   3.763   7.235   9.695 -0.2059 -0.2552  0.5757
  140SAPE   H7X15313   3.671   7.254   9.753 -0.1969  0.1118  0.4720
  140SAPE   H7Y15314   3.806   7.142   9.738 -2.4787 -1.0464  1.2058
  140SAPE   C3815315   3.717   7.220   9.544 -0.4953  0.6854 -0.2266
  140SAPE   H8X15316   3.803   7.186   9.483 -1.4914  0.4803 -1.5231
  140SAPE   H8Y15317   3.685   7.321   9.512  2.4635  1.7254 -0.0515
  140SAPE   C3915318   3.601   7.120   9.529  0.3149  0.1943 -1.1016
  140SAPE   H9X15319   3.528   7.134   9.611 -0.7124 -0.6075 -1.8608
  140SAPE   H9Y15320   3.639   7.015   9.529  1.0287  0.4488 -0.3403
  140SAPE  C31015321   3.532   7.152   9.393 -0.1185 -0.7245 -0.1226
  140SAPE  H10X15322   3.494   7.256   9.389  0.4580 -0.4490  1.0683
  140SAPE  H10Y15323   3.444   7.084   9.396 -1.0518  0.4957  1.2009
  140SAPE  C31115324   3.604   7.111   9.275 -0.0637  0.0854  1.0069
  140SAPE  H11X15325   3.637   7.008   9.297  0.2048  0.3290  1.7531
  140SAPE  H11Y15326   3.687   7.185   9.276  0.2822 -0.2653 -0.5175
  140SAPE  C31215327   3.526   7.114   9.141 -0.7101 -0.3293  0.1719
  140SAPE  H12X15328   3.418   7.087   9.146 -1.0156  0.8810  0.3079
  140SAPE  H12Y15329   3.575   7.054   9.061  0.3427 -0.1190  0.6503
  140SAPE  C31315330   3.535   7.256   9.082  0.6492 -0.3734 -0.7736
  140SAPE  H13X15331   3.639   7.291   9.066 -0.3820  3.9735  1.0715
  140SAPE  H13Y15332   3.482   7.319   9.158 -0.5205 -0.5713 -1.4095
  140SAPE  C31415333   3.455   7.250   8.954 -0.0771  0.3867 -0.8032
  140SAPE  H14X15334   3.347   7.245   8.982  0.1738 -0.7954 -0.0025
  140SAPE  H14Y15335   3.490   7.175   8.880 -0.3731  0.7746 -1.3350
  140SAPE  C31515336   3.470   7.379   8.874 -0.5261 -0.0056  0.1963
  140SAPE  H15X15337   3.568   7.388   8.823 -0.8587 -1.7375 -0.7947
  140SAPE  H15Y15338   3.468   7.462   8.948 -1.2900  0.5791 -0.4729
  140SAPE  C31615339   3.361   7.403   8.773  0.0790 -0.1380  0.4062
  140SAPE  H16X15340   3.265   7.406   8.829  0.0790  3.6123  0.3378
  140SAPE  H16Y15341   3.358   7.335   8.685 -0.6275  1.2748 -0.6861
  140SAPE  C31715342   3.373   7.545   8.702  0.0716  1.1555 -0.4591
  140SAPE  H17X15343   3.368   7.614   8.789  0.0027  0.6265 -0.0394
  140SAPE  H17Y15344   3.289   7.569   8.633 -0.6176 -0.6916 -0.3002
  140SAPE  C31815345   3.496   7.570   8.609 -0.1220  0.5606 -0.2941
  140SAPE  H18X15346   3.511   7.494   8.530 -1.2055  2.1517 -2.0824
  140SAPE  H18Y15347   3.585   7.577   8.675 -0.4359  0.2913  0.1607
  140SAPE  H18Z15348   3.467   7.665   8.559 -1.5494  0.1133 -0.3604
  141SAPE     N15349   3.159   0.895  11.057 -0.4485  0.2826  0.0529
  141SAPE   HN115350   3.221   0.812  11.054  1.1415  1.4744 -1.1078
  141SAPE   HN215351   3.214   0.960  11.118  1.7809  0.4519 -2.0554
  141SAPE   HN315352   3.066   0.866  11.094 -0.8254 -0.5515 -1.5166
  141SAPE   C1215353   3.144   0.966  10.925 -0.4219 -0.1550 -0.0502
  141SAPE  H12A15354   3.069   0.906  10.870  0.5034 -0.8777 -0.5319
  141SAPE  H12B15355   3.244   0.974  10.876 -0.4820  0.8963 -0.0246
  141SAPE   C1115356   3.084   1.109  10.951  0.5125 -0.2134  1.1816
  141SAPE  H11A15357   2.986   1.093  11.001 -0.2026 -1.1600 -0.4881
  141SAPE  H11B15358   3.060   1.146  10.849 -3.2332  0.0924  2.1086
  141SAPE     P15359   3.144   1.355  11.026 -0.3757  0.1090  0.4324
  141SAPE   O1315360   2.994   1.378  11.027  0.5965  0.5338  0.1093
  141SAPE   O1415361   3.226   1.418  11.132  0.3496 -0.3392  0.5379
  141SAPE   O1215362   3.169   1.197  11.026 -0.8098 -0.4454  0.8906
  141SAPE   O1115363   3.205   1.377  10.879 -0.2015  0.5449 -0.2073
  141SAPE    C115364   3.341   1.344  10.861  0.2263  0.3460  0.3318
  141SAPE    HA15365   3.417   1.423  10.876  2.3262 -0.8655 -3.3405
  141SAPE    HB15366   3.367   1.259  10.927  0.9963  0.3753  0.0651
  141SAPE    C215367   3.374   1.305  10.713  0.0244  0.5445  0.1267
  141SAPE    HS15368   3.377   1.403  10.660 -2.6382  0.8154  0.3678
  141SAPE   O2115369   3.266   1.220  10.669 -0.8977 -0.2544  0.1253
  141SAPE   C2115370   3.190   1.266  10.570  0.1121  0.5196  0.5869
  141SAPE   O2215371   3.213   1.366  10.502  0.2216  0.4099  0.0598
  141SAPE   C2215372   3.063   1.186  10.567  0.5235 -0.3663 -1.6177
  141SAPE   H2R15373   3.083   1.088  10.616  2.0445  0.6406 -0.1724
  141SAPE   H2S15374   2.984   1.245  10.617 -0.1096 -0.7480 -2.1664
  141SAPE    C315375   3.518   1.232  10.692  0.5062  0.2941  0.4093
  141SAPE    HX15376   3.508   1.133  10.741  0.1849 -1.1494 -2.4688
  141SAPE    HY15377   3.600   1.285  10.745  0.8635 -1.0622  1.2173
  141SAPE   O3115378   3.537   1.213  10.547 -0.0386  0.4844 -1.0384
  141SAPE   C3115379   3.599   1.307  10.479  0.1937 -0.5377 -0.5264
  141SAPE   O3215380   3.658   1.404  10.530 -0.5821  0.5346 -0.2348
  141SAPE   C3215381   3.578   1.282  10.331  0.1266  1.0296  0.0745
  141SAPE   H2X15382   3.473   1.313  10.310 -0.0820  0.1789 -0.1477
  141SAPE   H2Y15383   3.599   1.179  10.298 -2.2291  1.4692 -3.0384
  141SAPE   C2315384   3.001   1.151  10.426 -0.8248 -0.7587 -0.4289
  141SAPE   H3R15385   2.994   1.224  10.342  2.2146 -1.5843 -1.4797
  141SAPE   H3S15386   2.897   1.134  10.460 -0.1190  0.0913  2.2850
  141SAPE   C2415387   3.049   1.020  10.365  0.3683 -0.3148  0.1825
  141SAPE   H4R15388   2.990   0.994  10.275 -0.7469  0.2928  0.7358
  141SAPE   H4S15389   3.019   0.935  10.429 -1.4545  0.8352  0.8853
  141SAPE   C2515390   3.195   1.043  10.361 -0.0281  0.5573 -0.1908
  141SAPE   H5R15391   3.243   1.034  10.459  2.0893  3.1397 -0.9339
  141SAPE   C2615392   3.259   1.062  10.244 -0.4890 -0.5642  0.2080
  141SAPE   H6R15393   3.369   1.071  10.245 -0.6812  2.1675 -0.3417
  141SAPE   C2715394   3.204   1.071  10.104  0.8203  0.8671 -0.1152
  141SAPE   H7R15395   3.093   1.080  10.100  0.7530  0.6165  1.1924
  141SAPE   H7S15396   3.213   0.971  10.055 -0.8209  0.9925 -0.7353
  141SAPE   C2815397   3.265   1.168  10.000  0.6451  0.0652 -0.4262
  141SAPE   H8R15398   3.319   1.254  10.043 -0.8155  0.7926 -0.0130
  141SAPE   C2915399   3.220   1.176   9.873 -0.7407 -0.1497 -0.6202
  141SAPE   H9R15400   3.260   1.261   9.815  1.1538  0.0596  0.9245
  141SAPE  C21015401   3.118   1.106   9.799  0.9676 -0.7900  0.0140
  141SAPE  H10R15402   3.022   1.154   9.826  0.8855 -0.6546 -0.5114
  141SAPE  H10S15403   3.109   1.001   9.834 -0.1273 -0.8345 -0.3805
  141SAPE  C21115404   3.138   1.100   9.651  0.2142  0.3868 -0.3877
  141SAPE  H11R15405   3.221   1.034   9.623  0.3505  0.9705 -1.3815
  141SAPE  C21215406   3.053   1.133   9.555  0.0091 -0.0326 -0.4578
  141SAPE  H12R15407   3.083   1.114   9.450 -0.1680  0.6661 -0.6334
  141SAPE  C21315408   2.911   1.181   9.575 -0.3617 -0.3714  0.7867
  141SAPE  H13R15409   2.911   1.289   9.602  1.0461 -0.5615  1.5834
  141SAPE  H13S15410   2.861   1.140   9.665  0.0396  0.7911  1.5458
  141SAPE  C21415411   2.829   1.154   9.454 -0.1297 -0.2798 -0.5027
  141SAPE  H14R15412   2.747   1.084   9.474 -0.2844  0.3992  1.3602
  141SAPE  C21515413   2.834   1.209   9.331 -0.2148  0.6627 -0.1805
  141SAPE  H15R15414   2.763   1.177   9.253 -0.8481 -0.9157  1.0132
  141SAPE  C21615415   2.926   1.316   9.283 -0.5041 -0.2900 -0.0325
  141SAPE  H16R15416   3.034   1.302   9.307 -0.6270 -1.3969 -0.0977
  141SAPE  H16S15417   2.901   1.414   9.330  0.2965  0.4649 -1.1445
  141SAPE  C21715418   2.910   1.344   9.124  0.0880  0.2711 -0.7585
  141SAPE  H17R15419   2.967   1.436   9.100 -0.0634  0.3540 -0.8031
  141SAPE  H17S15420   2.811   1.389   9.099  0.3234  1.3206  0.1475
  141SAPE  C21815421   2.969   1.237   9.040 -0.0740 -0.5593  0.1842
  141SAPE  H18R15422   2.946   1.142   9.092 -0.4050 -0.0994  0.8869
  141SAPE  H18S15423   3.077   1.260   9.033 -0.3846  0.9095  0.0785
  141SAPE  C21915424   2.900   1.238   8.900  0.1061  0.0596  0.0933
  141SAPE  H19R15425   2.908   1.334   8.846  1.3102  0.4908  1.0085
  141SAPE  H19S15426   2.792   1.213   8.906 -0.0129  0.5203 -0.1434
  141SAPE  C22015427   2.978   1.141   8.804 -0.0394  0.4511  0.4834
  141SAPE  H20R15428   3.077   1.186   8.783 -0.3450  1.3476  0.9152
  141SAPE  H20S15429   2.916   1.127   8.713 -0.6939  3.6185  0.3847
  141SAPE  H20T15430   2.982   1.045   8.861 -0.7984  0.4174  0.4920
  141SAPE   C3315431   3.670   1.375  10.237  0.0606  0.5122  0.0027
  141SAPE   H3X15432   3.704   1.463  10.296 -0.8505 -1.2413  3.2377
  141SAPE   H3Y15433   3.602   1.411  10.157 -1.0354 -1.9209 -0.1950
  141SAPE   C3415434   3.790   1.306  10.175  0.3863  0.2478  0.4166
  141SAPE   H4X15435   3.757   1.200  10.167  0.6709 -0.0750  3.1954
  141SAPE   H4Y15436   3.877   1.315  10.244  1.9123  0.1815 -1.4188
  141SAPE   C3515437   3.831   1.364  10.045  0.5733 -0.3338 -0.3651
  141SAPE   H5X15438   3.746   1.363   9.975 -1.2047 -0.3694  1.7357
  141SAPE   H5Y15439   3.910   1.304   9.994  0.6140 -0.0977 -0.5768
  141SAPE   C3615440   3.869   1.508  10.063 -0.4742  0.9960  0.3625
  141SAPE   H6X15441   3.933   1.536  10.149  2.4710  0.6993 -1.6301
  141SAPE   H6Y15442   3.776   1.568  10.060 -1.4958 -0.6024 -1.7606
  141SAPE   C3715443   3.962   1.554   9.946 -0.3026  0.0827 -0.3108
  141SAPE   H7X15444   4.039   1.478   9.921  1.4638  1.9591 -0.7382
  141SAPE   H7Y15445   4.015   1.646   9.981 -1.3520  1.3409 -1.9840
  141SAPE   C3815446   3.876   1.591   9.817 -0.4494  0.3693 -0.2169
  141SAPE   H8X15447   3.840   1.696   9.825  1.8932  1.0813  1.3109
  141SAPE   H8Y15448   3.781   1.534   9.810  0.3258 -0.8344 -1.2332
  141SAPE   C3915449   3.957   1.576   9.689 -0.6256 -0.5488 -0.0994
  141SAPE   H9X15450   3.926   1.470   9.676 -2.8240  0.0374  0.1693
  141SAPE   H9Y15451   4.066   1.583   9.712 -0.5786  0.2808 -0.5618
  141SAPE  C31015452   3.906   1.665   9.574 -0.0650  0.4162 -0.2924
  141SAPE  H10X15453   3.903   1.772   9.602  1.0941  0.8982 -1.9110
  141SAPE  H10Y15454   3.812   1.618   9.539 -0.7057 -0.0086  1.9578
  141SAPE  C31115455   4.000   1.653   9.453  0.5621 -1.5136 -0.0966
  141SAPE  H11X15456   4.016   1.546   9.432  4.0150 -0.8619 -1.0976
  141SAPE  H11Y15457   4.099   1.694   9.484  0.3048 -1.0962  0.1861
  141SAPE  C31215458   3.937   1.726   9.329  0.4528 -0.2813  0.3201
  141SAPE  H12X15459   3.905   1.829   9.356 -1.2828 -0.2837 -1.5772
  141SAPE  H12Y15460   3.855   1.659   9.295 -1.3263  0.8969  2.1928
  141SAPE  C31315461   4.041   1.744   9.214  0.1832 -0.3086 -0.8933
  141SAPE  H13X15462   4.081   1.646   9.183 -0.2523 -0.1624 -1.9239
  141SAPE  H13Y15463   4.125   1.804   9.255  0.0319 -1.1879  0.7331
  141SAPE  C31415464   3.978   1.812   9.095  0.0427  0.5904  0.5401
  141SAPE  H14X15465   4.003   1.919   9.105 -2.0443  1.5301 -3.1034
  141SAPE  H14Y15466   3.867   1.805   9.093  0.0332  0.6021  1.1969
  141SAPE  C31515467   4.032   1.774   8.956 -0.6049  0.0931  0.0529
  141SAPE  H15X15468   4.004   1.667   8.944 -1.8949  0.5172 -0.7484
  141SAPE  H15Y15469   4.143   1.782   8.958 -0.5790 -0.1765 -0.3119
  141SAPE  C31615470   3.980   1.866   8.851  0.1398 -0.4352 -0.5130
  141SAPE  H16X15471   4.011   1.967   8.886 -1.2632  0.0682 -0.6852
  141SAPE  H16Y15472   3.872   1.847   8.835 -0.0245 -0.9248  1.0236
  141SAPE  C31715473   4.034   1.848   8.710  0.5439  0.1421 -0.0580
  141SAPE  H17X15474   3.980   1.925   8.650  0.0114 -1.7156 -1.9978
  141SAPE  H17Y15475   4.013   1.745   8.676 -0.1194  0.1591  0.2835
  141SAPE  C31815476   4.182   1.869   8.687 -0.2611  0.1086  0.0622
  141SAPE  H18X15477   4.216   1.969   8.723  0.1411  0.7625 -2.0562
  141SAPE  H18Y15478   4.204   1.867   8.578 -1.3876 -2.1157 -0.1546
  141SAPE  H18Z15479   4.237   1.788   8.739 -1.2035  0.5204  1.7585
  142SAPE     N15480   3.892   0.471  11.155  0.1593  1.0073  0.2056
  142SAPE   HN115481   3.810   0.524  11.193 -0.0587  0.4985  0.4444
  142SAPE   HN215482   3.849   0.393  11.101  0.7418  0.1163  1.0246
  142SAPE   HN315483   3.956   0.442  11.231  0.4087 -2.3369 -1.2227
  142SAPE   C1215484   3.980   0.545  11.059 -0.6141  0.0344  0.5523
  142SAPE  H12A15485   3.910   0.574  10.978  0.8341 -1.8164 -1.4062
  142SAPE  H12B15486   4.039   0.472  11.001 -4.4083 -2.1096 -0.7892
  142SAPE   C1115487   4.064   0.657  11.133  0.2287  0.2748  0.1500
  142SAPE  H11A15488   4.120   0.596  11.207 -0.5015  1.1730  1.4614
  142SAPE  H11B15489   3.993   0.724  11.185 -1.6242 -0.8912 -0.8170
  142SAPE     P15490   4.114   0.853  10.960  0.5175 -0.0732 -0.2146
  142SAPE   O1315491   3.970   0.849  10.946  0.0684 -1.0031  0.0997
  142SAPE   O1415492   4.170   0.975  11.017 -0.0077  0.4401 -0.3484
  142SAPE   O1215493   4.151   0.734  11.050 -0.4687  0.1615 -0.2949
  142SAPE   O1115494   4.188   0.818  10.832  0.2195 -0.0849  0.0870
  142SAPE    C115495   4.315   0.874  10.798  0.4038 -0.0536 -0.0144
  142SAPE    HA15496   4.320   0.984  10.801  2.1980 -0.1389  0.7137
  142SAPE    HB15497   4.391   0.839  10.871  0.5804 -2.4083 -1.2655
  142SAPE    C215498   4.368   0.841  10.653  0.1639  0.0054 -0.8910
  142SAPE    HS15499   4.429   0.926  10.616  0.8682 -0.5904 -1.0931
  142SAPE   O2115500   4.246   0.827  10.569 -1.0110 -0.0628 -0.4500
  142SAPE   C2115501   4.183   0.944  10.538 -0.1692 -0.0993 -0.7959
  142SAPE   O2215502   4.233   1.051  10.565  0.1001  0.2548  0.4544
  142SAPE   C2215503   4.044   0.919  10.485 -0.4092 -0.3021 -0.9267
  142SAPE   H2R15504   3.981   0.861  10.555 -0.3839 -1.1928 -1.6318
  142SAPE   H2S15505   3.996   1.019  10.473  0.4736  0.3346  0.7428
  142SAPE    C315506   4.437   0.700  10.650 -0.0997 -0.0677  0.5502
  142SAPE    HX15507   4.400   0.638  10.734 -2.2377 -1.6256 -1.4772
  142SAPE    HY15508   4.546   0.701  10.674  0.0825  1.6347 -0.2952
  142SAPE   O3115509   4.419   0.614  10.531 -0.2461  0.2783 -0.2453
  142SAPE   C3115510   4.448   0.679  10.416 -0.4825  0.5549 -0.2248
  142SAPE   O3215511   4.492   0.793  10.411  0.1082 -0.6656  0.1976
  142SAPE   C3215512   4.406   0.590  10.296 -0.2465 -0.1895  0.6133
  142SAPE   H2X15513   4.304   0.622  10.264  0.2226 -1.8184 -2.7730
  142SAPE   H2Y15514   4.401   0.486  10.335  0.3553  0.1045  1.4678
  142SAPE   C2315515   4.050   0.851  10.348 -0.2606  0.0347 -0.2572
  142SAPE   H3R15516   3.945   0.837  10.314  0.9040  0.1904 -4.1656
  142SAPE   H3S15517   4.085   0.746  10.357  0.3773  0.3455  1.0514
  142SAPE   C2415518   4.123   0.939  10.241  0.1251  0.0264  0.6962
  142SAPE   H4R15519   4.083   1.043  10.247 -1.6482 -0.6485  0.7651
  142SAPE   H4S15520   4.074   0.912  10.145  0.8912 -0.0040  0.3064
  142SAPE   C2515521   4.276   0.937  10.234  0.0438 -0.5571  0.0500
  142SAPE   H5R15522   4.315   0.972  10.331 -0.0453 -2.1192  0.6562
  142SAPE   C2615523   4.359   0.918  10.127 -0.6778 -0.0873 -0.5240
  142SAPE   H6R15524   4.468   0.933  10.137 -0.7463  0.9716 -1.2649
  142SAPE   C2715525   4.313   0.883   9.990  0.2652  0.6479 -0.3190
  142SAPE   H7R15526   4.398   0.908   9.924  0.9701 -0.2315  0.2396
  142SAPE   H7S15527   4.231   0.946   9.948  0.1484 -0.2471 -1.4658
  142SAPE   C2815528   4.266   0.738   9.969  0.1839 -0.1307 -1.2114
  142SAPE   H8R15529   4.232   0.689  10.062 -0.0284  1.9471 -0.1612
  142SAPE   C2915530   4.252   0.669   9.854 -1.1583 -0.5603 -0.7650
  142SAPE   H9R15531   4.225   0.562   9.852 -1.8458 -0.4412  1.0550
  142SAPE  C21015532   4.271   0.729   9.716  0.2503 -0.0460 -0.0569
  142SAPE  H10R15533   4.307   0.653   9.643 -0.1311  0.0751 -0.3695
  142SAPE  H10S15534   4.355   0.801   9.712 -1.0254  1.5313  0.9214
  142SAPE  C21115535   4.136   0.787   9.674  0.0482 -0.3905 -0.5850
  142SAPE  H11R15536   4.042   0.733   9.692 -0.4684  0.3880 -0.9036
  142SAPE  C21215537   4.127   0.907   9.611  0.1363  0.1346  0.0324
  142SAPE  H12R15538   4.024   0.935   9.585  0.9741  2.1937 -1.2329
  142SAPE  C21315539   4.234   1.005   9.573 -0.9084  0.2801  0.0531
  142SAPE  H13R15540   4.274   0.995   9.470  0.8588  0.5965  0.6822
  142SAPE  H13S15541   4.324   0.983   9.635 -0.7246  2.9243  0.7924
  142SAPE  C21415542   4.198   1.149   9.588  0.3375  0.1140 -0.5154
  142SAPE  H14R15543   4.268   1.207   9.650  1.0733 -2.2565  0.9188
  142SAPE  C21515544   4.096   1.216   9.527 -0.7872  0.5851  0.2235
  142SAPE  H15R15545   4.082   1.325   9.537  0.8536  0.7212  1.2047
  142SAPE  C21615546   4.008   1.161   9.420 -0.3428  0.0650  0.4280
  142SAPE  H16R15547   3.900   1.151   9.445 -1.1135  2.9498 -1.5622
  142SAPE  H16S15548   4.033   1.054   9.402 -1.2395 -0.3503  1.5424
  142SAPE  C21715549   4.011   1.233   9.288  0.1293  0.7080 -0.3091
  142SAPE  H17R15550   4.109   1.243   9.237 -0.3457 -1.4703 -1.7286
  142SAPE  H17S15551   3.957   1.329   9.302  2.5063  2.2074 -1.1256
  142SAPE  C21815552   3.931   1.165   9.181 -0.5833 -0.2866  0.1681
  142SAPE  H18R15553   3.838   1.122   9.224 -0.5947 -2.1417 -1.6371
  142SAPE  H18S15554   3.988   1.073   9.158  0.9641  0.3259  1.4908
  142SAPE  C21915555   3.929   1.252   9.052  0.2431 -0.8069 -0.3440
  142SAPE  H19R15556   4.036   1.278   9.036  0.2976 -0.5466  0.4524
  142SAPE  H19S15557   3.863   1.339   9.071 -1.7263 -2.5980  1.2562
  142SAPE  C22015558   3.881   1.181   8.918 -0.5248 -0.5223 -0.2103
  142SAPE  H20R15559   3.901   1.245   8.829  0.9839 -1.3361 -0.4760
  142SAPE  H20S15560   3.773   1.159   8.905 -0.9664  0.4891  1.6261
  142SAPE  H20T15561   3.931   1.083   8.905  1.4957  0.3626  0.5476
  142SAPE   C3315562   4.500   0.590  10.172 -0.3001 -0.2637  0.3549
  142SAPE   H3X15563   4.517   0.689  10.126 -1.1276  0.0128  0.6233
  142SAPE   H3Y15564   4.446   0.527  10.098  2.4012 -1.7160 -0.4655
  142SAPE   C3415565   4.636   0.506  10.188 -0.3453  0.5474 -0.0723
  142SAPE   H4X15566   4.608   0.402  10.216 -2.1975  1.1222  0.2170
  142SAPE   H4Y15567   4.686   0.556  10.274  0.2942 -0.4046  0.1198
  142SAPE   C3515568   4.727   0.529  10.070  0.3439  0.5432 -0.5255
  142SAPE   H5X15569   4.794   0.441  10.070  0.9276  0.9571  1.8319
  142SAPE   H5Y15570   4.786   0.622  10.088  0.0601  0.9932 -1.8629
  142SAPE   C3615571   4.655   0.545   9.935 -0.5874  0.5911  0.6938
  142SAPE   H6X15572   4.608   0.645   9.941  0.8061  1.2954  0.0924
  142SAPE   H6Y15573   4.568   0.475   9.933 -0.3913  0.3400  0.9312
  142SAPE   C3715574   4.747   0.535   9.806  0.1664  0.9013 -0.2123
  142SAPE   H7X15575   4.746   0.425   9.794 -1.4580  0.9967 -1.0516
  142SAPE   H7Y15576   4.850   0.570   9.827  0.4058  0.3698 -0.5106
  142SAPE   C3815577   4.694   0.621   9.698 -1.0419  0.8814 -0.5165
  142SAPE   H8X15578   4.723   0.722   9.736 -0.2823 -0.5113  2.7428
  142SAPE   H8Y15579   4.584   0.620   9.710 -0.9020 -1.6503  1.0282
  142SAPE   C3915580   4.736   0.607   9.557 -0.2302  0.4905  1.1975
  142SAPE   H9X15581   4.699   0.505   9.533  0.0076  0.5173  0.6924
  142SAPE   H9Y15582   4.845   0.627   9.549 -0.5796  1.9302 -0.2071
  142SAPE  C31015583   4.668   0.713   9.469 -0.8758 -0.0790  0.6213
  142SAPE  H10X15584   4.686   0.811   9.518  0.0761  0.1914 -0.2688
  142SAPE  H10Y15585   4.561   0.685   9.480 -0.7229 -0.5433  0.9565
  142SAPE  C31115586   4.720   0.697   9.331  0.4739 -0.3077  0.4313
  142SAPE  H11X15587   4.715   0.587   9.318 -0.3747 -0.3536  1.1520
  142SAPE  H11Y15588   4.824   0.729   9.306  0.3250 -0.4834 -0.4314
  142SAPE  C31215589   4.624   0.750   9.221  0.5784  0.6658 -0.5530
  142SAPE  H12X15590   4.627   0.858   9.195  1.0318  0.2569 -2.2434
  142SAPE  H12Y15591   4.521   0.719   9.247  0.9116  0.2682  0.3334
  142SAPE  C31315592   4.668   0.689   9.077 -0.1714  0.3663  0.0438
  142SAPE  H13X15593   4.672   0.579   9.093 -2.8301 -0.0459 -1.8780
  142SAPE  H13Y15594   4.771   0.726   9.055  0.7467  0.0837  3.4822
  142SAPE  C31415595   4.573   0.706   8.966 -0.3034  0.0475 -0.8364
  142SAPE  H14X15596   4.531   0.809   8.977 -1.8995 -0.5283 -1.4189
  142SAPE  H14Y15597   4.488   0.635   8.971 -0.2267  0.0331  0.4388
  142SAPE  C31515598   4.622   0.694   8.826  0.5903 -0.5633 -0.6116
  142SAPE  H15X15599   4.647   0.588   8.808  0.4796 -0.5748 -0.6995
  142SAPE  H15Y15600   4.702   0.771   8.816  0.3219  0.3203  3.4055
  142SAPE  C31615601   4.510   0.715   8.716 -0.5657  0.0017 -0.7433
  142SAPE  H16X15602   4.490   0.824   8.701  1.1070  0.2538 -1.3030
  142SAPE  H16Y15603   4.417   0.672   8.758 -1.4779  1.8087 -0.8403
  142SAPE  C31715604   4.541   0.651   8.582 -0.2579  0.0768 -0.2076
  142SAPE  H17X15605   4.583   0.549   8.582 -0.9007 -0.1913 -0.1666
  142SAPE  H17Y15606   4.623   0.707   8.531 -0.7779  1.2725  0.2375
  142SAPE  C31815607   4.416   0.645   8.489  0.0228  0.2928 -0.3154
  142SAPE  H18X15608   4.377   0.744   8.456 -0.5054 -0.1840 -1.1408
  142SAPE  H18Y15609   4.339   0.576   8.528 -0.2238  2.0628  2.4628
  142SAPE  H18Z15610   4.463   0.597   8.401 -1.9943  3.2312 -3.1123
  143SAPE     N15611   6.363   0.738  11.613 -0.3938  0.2875 -0.5073
  143SAPE   HN115612   6.448   0.776  11.659 -0.4826 -1.1091  0.8481
  143SAPE   HN215613   6.312   0.675  11.678 -0.2578  1.1936  0.4845
  143SAPE   HN315614   6.387   0.691  11.524  0.3916  1.0279 -0.6979
  143SAPE   C1215615   6.276   0.854  11.573  0.5797  0.2280 -1.2699
  143SAPE  H12A15616   6.258   0.924  11.658  2.2763 -1.2656  0.3801
  143SAPE  H12B15617   6.176   0.813  11.547  0.1764 -0.5718  1.3556
  143SAPE   C1115618   6.326   0.939  11.463 -0.2671  0.2747 -0.5182
  143SAPE  H11A15619   6.431   0.968  11.483  0.8432 -3.2245 -1.0028
  143SAPE  H11B15620   6.260   1.029  11.461  1.2355  1.3988 -3.1897
  143SAPE     P15621   6.284   0.937  11.205 -0.4844 -0.3049  0.0422
  143SAPE   O1315622   6.142   0.897  11.192  0.3341 -0.1121 -0.7782
  143SAPE   O1415623   6.313   1.083  11.227 -0.7894  0.7061  0.2541
  143SAPE   O1215624   6.332   0.872  11.341 -0.1514 -0.2929 -0.0993
  143SAPE   O1115625   6.375   0.868  11.092  0.0837  0.1992  0.3675
  143SAPE    C115626   6.510   0.905  11.065 -0.1819  0.5081 -0.3978
  143SAPE    HA15627   6.566   0.939  11.155 -2.0194 -2.2608  1.8976
  143SAPE    HB15628   6.561   0.811  11.032 -1.6901 -0.4523 -0.0471
  143SAPE    C215629   6.510   1.002  10.947  0.1901  0.4777  0.4179
  143SAPE    HS15630   6.462   1.093  10.988  1.6691  1.3976  0.1136
  143SAPE   O2115631   6.437   0.950  10.831 -0.8482  0.3372  0.3121
  143SAPE   C2115632   6.348   1.028  10.776 -0.3619  0.0970  0.0083
  143SAPE   O2215633   6.310   1.137  10.810  0.4732  0.1830 -0.0872
  143SAPE   C2215634   6.286   0.944  10.662  0.0042  0.1340 -0.2911
  143SAPE   H2R15635   6.364   0.878  10.618 -0.4842 -1.7698  1.6250
  143SAPE   H2S15636   6.214   0.871  10.704  1.4606 -1.3391 -0.2980
  143SAPE    C315637   6.658   1.024  10.895  0.1950 -0.0149 -0.4215
  143SAPE    HX15638   6.705   0.929  10.865 -3.2409 -1.8350 -0.2978
  143SAPE    HY15639   6.711   1.065  10.984 -2.3167  2.2671  0.0985
  143SAPE   O3115640   6.657   1.125  10.792  0.1314 -0.2552  0.5915
  143SAPE   C3115641   6.709   1.084  10.668  0.4341 -0.2242  0.4590
  143SAPE   O3215642   6.726   0.974  10.632  0.3100  0.1984  0.1339
  143SAPE   C3215643   6.733   1.215  10.586 -0.7246  0.4280  0.2114
  143SAPE   H2X15644   6.835   1.200  10.544 -0.7131  1.4798 -0.1490
  143SAPE   H2Y15645   6.741   1.298  10.659 -0.9268 -0.2119  0.9632
  143SAPE   C2315646   6.202   1.029  10.561  0.6337  0.1213 -0.3167
  143SAPE   H3R15647   6.258   1.119  10.527 -2.0028  0.9481 -2.6734
  143SAPE   H3S15648   6.117   1.069  10.620  0.8648 -0.4287  0.4023
  143SAPE   C2415649   6.154   0.951  10.435  0.2893  0.2366 -0.5530
  143SAPE   H4R15650   6.116   0.850  10.463  0.7403 -0.2584 -1.6972
  143SAPE   H4S15651   6.238   0.944  10.363 -0.3029  1.1077 -1.3287
  143SAPE   C2515652   6.034   1.022  10.385 -0.0138  0.4025 -0.0466
  143SAPE   H5R15653   5.953   1.034  10.459 -0.2823 -0.5689 -0.1818
  143SAPE   C2615654   6.019   1.086  10.268 -0.4384 -0.2531 -0.0205
  143SAPE   H6R15655   5.924   1.134  10.239 -0.0512  2.1627  2.5505
  143SAPE   C2715656   6.127   1.084  10.166  0.4576  0.2559 -0.6482
  143SAPE   H7R15657   6.152   0.979  10.142  1.3832  0.6152 -1.3177
  143SAPE   H7S15658   6.219   1.127  10.210 -0.3470  2.4535 -0.9958
  143SAPE   C2815659   6.105   1.163  10.040  0.0319 -0.0833  0.3013
  143SAPE   H8R15660   6.154   1.261  10.045 -1.6790  0.6906  2.7361
  143SAPE   C2915661   6.046   1.120   9.933 -0.4276 -0.4117 -0.1944
  143SAPE   H9R15662   6.056   1.186   9.846  0.4442  0.3565  0.4794
  143SAPE  C21015663   5.979   0.984   9.894 -0.3540 -0.2669  0.0650
  143SAPE  H10R15664   5.948   0.918   9.978 -0.9289 -0.6711 -0.4684
  143SAPE  H10S15665   6.060   0.923   9.849 -0.4879 -1.1224  0.9589
  143SAPE  C21115666   5.854   1.006   9.806  0.2444 -0.6012 -0.2026
  143SAPE  H11R15667   5.762   0.998   9.865  1.1751  0.7327  1.4838
  143SAPE  C21215668   5.859   1.001   9.671 -0.1268 -0.5707  0.5891
  143SAPE  H12R15669   5.767   1.014   9.612  0.5669 -1.9704 -0.8490
  143SAPE  C21315670   5.982   0.994   9.591  0.4248  0.5280 -0.6436
  143SAPE  H13R15671   5.968   0.927   9.504  0.1748  0.5433 -0.6146
  143SAPE  H13S15672   6.065   0.946   9.648  0.4253 -2.5813 -3.1131
  143SAPE  C21415673   6.008   1.134   9.549  0.7012  1.0996  0.5895
  143SAPE  H14R15674   5.990   1.212   9.624 -0.0764  3.0331 -1.5330
  143SAPE  C21515675   6.075   1.163   9.433 -0.5185  0.5182  1.0564
  143SAPE  H15R15676   6.081   1.268   9.403  1.8427 -0.1501 -0.9001
  143SAPE  C21615677   6.110   1.065   9.324  0.0333  0.3729 -0.1952
  143SAPE  H16R15678   6.089   0.959   9.350 -2.7337  0.7565 -0.6395
  143SAPE  H16S15679   6.219   1.067   9.305 -0.2906 -0.7030 -2.3093
  143SAPE  C21715680   6.038   1.100   9.193  0.6570  0.4376 -0.0721
  143SAPE  H17R15681   6.063   1.203   9.162  0.6308  0.6406  0.5681
  143SAPE  H17S15682   5.929   1.103   9.213  1.2899  0.3085  3.8512
  143SAPE  C21815683   6.082   1.004   9.083  0.2284 -0.0710 -0.1652
  143SAPE  H18R15684   6.056   0.903   9.120 -2.2357  0.1190 -1.2842
  143SAPE  H18S15685   6.191   1.012   9.066  0.5189 -1.2060  1.0571
  143SAPE  C21915686   5.998   1.023   8.944 -0.3658 -0.6515 -0.9765
  143SAPE  H19R15687   6.015   1.129   8.918 -0.7917 -0.0325  1.2336
  143SAPE  H19S15688   5.888   1.014   8.963 -0.2497 -0.7129 -0.3431
  143SAPE  C22015689   6.043   0.922   8.838 -0.5374  0.3971 -0.6881
  143SAPE  H20R15690   6.148   0.916   8.801 -0.6282  3.2305 -1.5336
  143SAPE  H20S15691   5.985   0.947   8.746 -0.6194  0.3660 -0.6440
  143SAPE  H20T15692   6.007   0.820   8.862  1.8086  0.3435  2.9485
  143SAPE   C3315693   6.636   1.233  10.472 -0.5064 -0.4061 -0.5004
  143SAPE   H3X15694   6.628   1.336  10.431 -1.8410  0.6064  2.1716
  143SAPE   H3Y15695   6.534   1.216  10.514 -1.4504 -1.6352 -3.2220
  143SAPE   C3415696   6.660   1.139  10.355  0.5976  0.1286  0.2824
  143SAPE   H4X15697   6.677   1.037  10.396 -1.6425  0.1336  1.3202
  143SAPE   H4Y15698   6.749   1.168  10.296  0.4256  0.8164  0.3552
  143SAPE   C3515699   6.543   1.132  10.258 -0.2402 -0.1208 -0.4530
  143SAPE   H5X15700   6.515   1.230  10.213  1.8377  1.0123  0.6485
  143SAPE   H5Y15701   6.452   1.096  10.311 -1.1035  0.6601 -1.3892
  143SAPE   C3615702   6.578   1.042  10.143 -0.4478 -0.3474 -0.2530
  143SAPE   H6X15703   6.635   0.955  10.183 -0.8081  0.1217  1.3436
  143SAPE   H6Y15704   6.637   1.108  10.076 -0.6719 -2.3205 -2.4717
  143SAPE   C3715705   6.462   0.995  10.057  0.5791  0.2356  0.1893
  143SAPE   H7X15706   6.402   1.085  10.037  1.0343  0.7443  1.0713
  143SAPE   H7Y15707   6.410   0.918  10.119  1.3353 -2.1323 -2.0092
  143SAPE   C3815708   6.514   0.937   9.921  0.3456  0.0318 -0.7512
  143SAPE   H8X15709   6.585   0.857   9.952 -2.5069 -1.6529  1.7260
  143SAPE   H8Y15710   6.568   1.019   9.870  1.6442  1.5266  2.9250
  143SAPE   C3915711   6.409   0.863   9.836  0.7692  0.3815 -0.7043
  143SAPE   H9X15712   6.319   0.929   9.829  0.0605 -0.5128 -0.1636
  143SAPE   H9Y15713   6.364   0.775   9.887 -1.6194  0.9598 -1.7438
  143SAPE  C31015714   6.458   0.817   9.699  0.6178  0.1588  0.1014
  143SAPE  H10X15715   6.489   0.908   9.642  0.7085 -0.0161 -0.1262
  143SAPE  H10Y15716   6.369   0.789   9.640  1.1542 -0.4624 -0.4191
  143SAPE  C31115717   6.566   0.706   9.699  0.7763 -0.0056 -0.7891
  143SAPE  H11X15718   6.526   0.607   9.732  0.2623  0.1529 -0.9329
  143SAPE  H11Y15719   6.646   0.740   9.768  1.3697 -0.0012 -1.4776
  143SAPE  C31215720   6.620   0.693   9.557 -0.3699  0.2141  0.1476
  143SAPE  H12X15721   6.712   0.631   9.552 -1.4196 -1.6233  2.7691
  143SAPE  H12Y15722   6.647   0.794   9.520 -1.5545  0.9536  1.2439
  143SAPE  C31315723   6.523   0.621   9.456 -0.3931 -0.1794 -0.7156
  143SAPE  H13X15724   6.585   0.614   9.364  0.8251 -0.0021  0.0808
  143SAPE  H13Y15725   6.430   0.681   9.442 -1.1228 -1.6856 -2.5268
  143SAPE  C31415726   6.478   0.491   9.505 -0.8877  0.3079  0.2973
  143SAPE  H14X15727   6.409   0.515   9.589 -3.0204 -1.1949 -0.9389
  143SAPE  H14Y15728   6.563   0.428   9.539  0.7441  3.1420  1.6528
  143SAPE  C31515729   6.386   0.419   9.409 -0.3551 -0.3431  0.5829
  143SAPE  H15X15730   6.311   0.497   9.380  0.8468  1.5667  2.4522
  143SAPE  H15Y15731   6.346   0.339   9.473  0.1439 -0.3168  0.9302
  143SAPE  C31615732   6.451   0.346   9.281  0.1763  0.4255 -0.7348
  143SAPE  H16X15733   6.540   0.284   9.306 -1.0527 -1.9051 -1.9154
  143SAPE  H16Y15734   6.489   0.420   9.207  1.1869 -0.4062 -1.0540
  143SAPE  C31715735   6.344   0.257   9.215  0.1404  0.2505 -0.6776
  143SAPE  H17X15736   6.325   0.170   9.282 -0.6258  1.3679  0.5684
  143SAPE  H17Y15737   6.392   0.214   9.124 -1.0207  2.2544 -2.2835
  143SAPE  C31815738   6.207   0.325   9.190 -0.7619 -0.1627 -0.7088
  143SAPE  H18X15739   6.162   0.361   9.285  0.3026 -1.5130  0.3389
  143SAPE  H18Y15740   6.138   0.259   9.134 -1.5347 -0.2346  0.3198
  143SAPE  H18Z15741   6.233   0.417   9.133 -0.0491  0.3648  0.4472
  144SAPE     N15742   2.518   5.821  10.987 -0.2659 -0.1625 -0.0674
  144SAPE   HN115743   2.547   5.862  11.078  0.1462  1.9854 -1.1162
  144SAPE   HN215744   2.483   5.901  10.931  1.5670  1.9951  1.7492
  144SAPE   HN315745   2.453   5.741  10.995  1.5333 -1.8216 -1.5252
  144SAPE   C1215746   2.638   5.764  10.918 -0.5141  0.0268 -0.4748
  144SAPE  H12A15747   2.620   5.735  10.813  0.4611 -1.4130 -0.2612
  144SAPE  H12B15748   2.669   5.675  10.977  0.7798  0.1068 -1.0160
  144SAPE   C1115749   2.757   5.863  10.921  0.2587 -0.1587  0.2119
  144SAPE  H11A15750   2.851   5.816  10.884  0.8843 -0.5733  2.2084
  144SAPE  H11B15751   2.785   5.880  11.028  1.8451 -0.3121 -0.1657
  144SAPE     P15752   2.803   6.115  10.849  0.1594 -0.2610  0.0671
  144SAPE   O1315753   2.724   6.235  10.884  0.6750 -0.6258 -0.0781
  144SAPE   O1415754   2.931   6.091  10.917 -0.1463 -0.1408 -0.5432
  144SAPE   O1215755   2.725   5.979  10.849  0.5763 -0.2512  0.3176
  144SAPE   O1115756   2.831   6.128  10.692  0.3189  0.3837 -0.4081
  144SAPE    C115757   2.905   6.020  10.631  0.3300  1.0011 -0.0758
  144SAPE    HA15758   2.988   6.066  10.573  0.3025  1.8915  0.5662
  144SAPE    HB15759   2.955   5.945  10.696  0.2107 -0.4807 -1.6838
  144SAPE    C215760   2.811   5.950  10.530 -0.4565 -0.2240 -0.2664
  144SAPE    HS15761   2.737   5.895  10.592  0.9255 -1.8128  0.0048
  144SAPE   O2115762   2.885   5.881  10.433 -0.1585 -0.1295 -0.6912
  144SAPE   C2115763   2.840   5.757  10.410 -0.4102 -0.0419 -0.1516
  144SAPE   O2215764   2.760   5.698  10.482 -0.0621 -0.3439  0.4779
  144SAPE   C2215765   2.891   5.702  10.273 -0.1777  0.0483 -0.1159
  144SAPE   H2R15766   2.873   5.780  10.196  0.4407 -0.5419 -0.8734
  144SAPE   H2S15767   3.001   5.687  10.285 -0.8436 -4.5472  1.1396
  144SAPE    C315768   2.716   6.061  10.451 -0.0371 -0.2559  0.4010
  144SAPE    HX15769   2.776   6.136  10.396 -2.0762 -0.0875 -1.6409
  144SAPE    HY15770   2.648   6.119  10.517 -0.8741 -1.5393  0.7064
  144SAPE   O3115771   2.630   5.994  10.352  0.2999  0.4192  0.7263
  144SAPE   C3115772   2.528   5.924  10.389  0.3782  0.2471  0.3400
  144SAPE   O3215773   2.487   5.911  10.501 -0.5717 -0.0167 -0.1902
  144SAPE   C3215774   2.465   5.863  10.265 -0.1514  0.4812 -0.0090
  144SAPE   H2X15775   2.359   5.898  10.271 -0.2461  0.5906 -2.0146
  144SAPE   H2Y15776   2.472   5.752  10.267  0.3257  0.4715 -1.3385
  144SAPE   C2315777   2.815   5.571  10.222 -0.6719 -0.4014 -0.4520
  144SAPE   H3R15778   2.711   5.573  10.262 -0.6153 -2.0263 -0.2169
  144SAPE   H3S15779   2.874   5.480  10.242 -1.9863 -1.1600  0.0369
  144SAPE   C2415780   2.785   5.579  10.075  0.1367 -0.4943  0.4955
  144SAPE   H4R15781   2.740   5.678  10.050 -2.8378 -1.8034  0.4703
  144SAPE   H4S15782   2.708   5.502  10.050  0.2488 -0.4257 -0.0668
  144SAPE   C2515783   2.911   5.543   9.991 -0.0002 -0.3659  0.6717
  144SAPE   H5R15784   3.003   5.560  10.049 -0.0597  0.7986  0.4417
  144SAPE   C2615785   2.911   5.498   9.863 -0.9560  0.0204  0.0907
  144SAPE   H6R15786   3.012   5.478   9.825 -1.3667 -1.1633 -0.4081
  144SAPE   C2715787   2.793   5.464   9.778  0.6474  0.3950  0.3150
  144SAPE   H7R15788   2.698   5.474   9.833 -0.2138 -3.5192 -0.3312
  144SAPE   H7S15789   2.807   5.360   9.742  1.1936  0.6617 -0.2623
  144SAPE   C2815790   2.809   5.562   9.658  0.3241 -0.1552 -1.1649
  144SAPE   H8R15791   2.781   5.661   9.697  0.9869 -0.8748  1.1871
  144SAPE   C2915792   2.843   5.522   9.533 -0.1907 -0.5467 -0.7401
  144SAPE   H9R15793   2.854   5.593   9.450 -5.0693 -0.6866 -1.6178
  144SAPE  C21015794   2.887   5.387   9.490 -0.4922  0.1256  0.7028
  144SAPE  H10R15795   2.944   5.326   9.563  0.4621 -0.0045 -0.1334
  144SAPE  H10S15796   2.963   5.404   9.410 -1.4336  3.5919  0.4385
  144SAPE  C21115797   2.773   5.308   9.447 -0.4088 -0.3215  0.3564
  144SAPE  H11R15798   2.708   5.285   9.533  1.0620 -0.3531  1.4881
  144SAPE  C21215799   2.740   5.254   9.330 -0.3543 -0.2618  0.2147
  144SAPE  H12R15800   2.645   5.198   9.326 -0.6011  0.1913 -0.2376
  144SAPE  C21315801   2.800   5.270   9.195 -0.4219  0.6433  0.5198
  144SAPE  H13R15802   2.906   5.300   9.207 -0.5130  0.9696  0.5366
  144SAPE  H13S15803   2.753   5.351   9.134 -2.4918  0.6583  2.0890
  144SAPE  C21415804   2.803   5.135   9.121 -0.3426  0.3022 -0.5034
  144SAPE  H14R15805   2.892   5.081   9.157 -0.2406 -1.0333 -2.7328
  144SAPE  C21515806   2.727   5.086   9.023 -0.0220  0.4258  0.0750
  144SAPE  H15R15807   2.762   4.994   8.974 -0.7968 -0.1401  0.5729
  144SAPE  C21615808   2.601   5.141   8.971 -0.0677  0.3609  0.4658
  144SAPE  H16R15809   2.629   5.189   8.875  1.7174  1.3459  1.4517
  144SAPE  H16S15810   2.559   5.214   9.044 -2.4113  1.6156 -2.0390
  144SAPE  C21715811   2.495   5.043   8.932 -0.0898 -0.1264  0.6990
  144SAPE  H17R15812   2.456   4.978   9.014 -0.9497 -0.8174 -0.2437
  144SAPE  H17S15813   2.549   4.980   8.859 -0.2953  1.0370 -0.4749
  144SAPE  C21815814   2.390   5.114   8.853  0.5634  0.3035 -0.1482
  144SAPE  H18R15815   2.325   5.033   8.813 -0.1038  1.6591 -1.8580
  144SAPE  H18S15816   2.446   5.153   8.766  0.3157  0.6465 -0.1573
  144SAPE  C21915817   2.323   5.233   8.931  0.0606  0.2661 -0.0296
  144SAPE  H19R15818   2.387   5.321   8.907 -1.9358  1.7994  0.1140
  144SAPE  H19S15819   2.322   5.226   9.042 -1.4974  2.9229  0.1824
  144SAPE  C22015820   2.183   5.251   8.873 -0.9101 -0.3557  1.1437
  144SAPE  H20R15821   2.164   5.192   8.781 -2.7687 -1.5969  2.2868
  144SAPE  H20S15822   2.143   5.352   8.849  1.6404  0.0980 -1.3746
  144SAPE  H20T15823   2.108   5.216   8.947 -0.6111 -2.1114  0.6303
  144SAPE   C3315824   2.517   5.909  10.127  0.3304  0.2297 -0.0081
  144SAPE   H3X15825   2.624   5.887  10.107  0.2653 -1.2740  1.1797
  144SAPE   H3Y15826   2.519   6.020  10.128 -1.3757  0.2809  0.4981
  144SAPE   C3415827   2.432   5.861  10.020  0.6672 -0.0902 -0.2588
  144SAPE   H4X15828   2.333   5.912  10.022  1.1762  0.8772  0.4331
  144SAPE   H4Y15829   2.414   5.754  10.045 -1.4710  0.4199  0.5312
  144SAPE   C3515830   2.478   5.867   9.874  0.7691  0.2867  0.1368
  144SAPE   H5X15831   2.588   5.852   9.873  0.6076 -1.7159  4.1199
  144SAPE   H5Y15832   2.451   5.967   9.835 -1.4362 -0.1898  0.3573
  144SAPE   C3615833   2.398   5.768   9.786 -0.8233 -0.2332  0.0481
  144SAPE   H6X15834   2.289   5.783   9.803 -1.2215 -0.0498 -2.4372
  144SAPE   H6Y15835   2.428   5.667   9.821  1.2313  0.2271 -0.3114
  144SAPE   C3715836   2.413   5.788   9.636  0.0747 -0.0017  1.1123
  144SAPE   H7X15837   2.514   5.774   9.592 -1.0687  1.7752 -2.2806
  144SAPE   H7Y15838   2.387   5.893   9.613  3.2305  0.8954  1.3817
  144SAPE   C3815839   2.325   5.691   9.559 -0.5545 -0.6760  0.6573
  144SAPE   H8X15840   2.221   5.704   9.594 -0.4607 -2.8440  1.8860
  144SAPE   H8Y15841   2.345   5.582   9.575  2.5041 -0.5067 -1.5976
  144SAPE   C3915842   2.317   5.724   9.409  0.3494 -0.0356  1.0157
  144SAPE   H9X15843   2.417   5.714   9.361 -0.4962 -1.4439 -0.4896
  144SAPE   H9Y15844   2.280   5.828   9.395  2.7225  0.4063 -2.4349
  144SAPE  C31015845   2.218   5.633   9.324 -0.2105  0.1630 -0.3578
  144SAPE  H10X15846   2.117   5.642   9.369  0.3801 -0.9507  1.2292
  144SAPE  H10Y15847   2.245   5.526   9.339 -0.1557  0.1451 -0.5828
  144SAPE  C31115848   2.229   5.681   9.182 -0.0660  0.7765  0.9835
  144SAPE  H11X15849   2.334   5.677   9.144 -0.3207  2.8820 -0.0401
  144SAPE  H11Y15850   2.190   5.784   9.172  1.1926  1.1075 -0.7438
  144SAPE  C31215851   2.145   5.600   9.080 -0.5156 -0.2083  0.2520
  144SAPE  H12X15852   2.048   5.598   9.133 -0.2494  0.0893  0.7574
  144SAPE  H12Y15853   2.168   5.492   9.064  0.1688  0.1472 -1.2842
  144SAPE  C31315854   2.129   5.676   8.941 -0.1444 -0.7742  0.0847
  144SAPE  H13X15855   2.092   5.779   8.958 -0.8363 -0.7418 -1.5682
  144SAPE  H13Y15856   2.056   5.629   8.871 -0.4486 -0.2781  0.0666
  144SAPE  C31415857   2.270   5.684   8.871  0.9412  0.6490  0.3321
  144SAPE  H14X15858   2.317   5.585   8.853  0.3063  0.3337  0.4053
  144SAPE  H14Y15859   2.345   5.729   8.940  3.4176 -0.7987 -1.3436
  144SAPE  C31515860   2.266   5.766   8.738  0.0678 -0.7247  0.3550
  144SAPE  H15X15861   2.221   5.866   8.756  0.4969 -0.6999  1.3140
  144SAPE  H15Y15862   2.200   5.705   8.673 -0.2359 -1.3272  1.2311
  144SAPE  C31615863   2.401   5.787   8.671 -0.4042  0.3542 -0.4766
  144SAPE  H16X15864   2.467   5.699   8.688 -1.5834 -0.6279 -0.9239
  144SAPE  H16Y15865   2.453   5.866   8.729 -1.2638  1.1926 -0.8290
  144SAPE  C31715866   2.386   5.813   8.517  0.1181 -0.1348 -0.8027
  144SAPE  H17X15867   2.304   5.751   8.474 -0.3835 -0.8909  1.1828
  144SAPE  H17Y15868   2.473   5.779   8.458 -0.8475 -1.0385 -1.7473
  144SAPE  C31815869   2.358   5.961   8.495 -0.5441  0.2821  0.0134
  144SAPE  H18X15870   2.426   5.995   8.414  0.9695  0.3048  1.2645
  144SAPE  H18Y15871   2.381   6.022   8.585  1.0282  0.7704 -0.7157
  144SAPE  H18Z15872   2.248   5.967   8.481 -0.6789  3.0679  1.8062
  145SAPE     N15873   0.062   0.297  11.358 -0.4343 -0.4886  0.1779
  145SAPE   HN115874  -0.004   0.322  11.435 -1.5101 -0.0221 -0.8671
  145SAPE   HN215875   0.104   0.388  11.330 -2.6666  0.9780  1.3889
  145SAPE   HN315876   0.007   0.258  11.279  0.4374 -1.1078 -0.1208
  145SAPE   C1215877   0.169   0.209  11.409 -0.4999 -0.7667 -0.1883
  145SAPE  H12A15878   0.139   0.119  11.351  2.2092  0.2360 -3.2659
  145SAPE  H12B15879   0.167   0.193  11.519  1.8174 -0.8700 -0.1446
  145SAPE   C1115880   0.311   0.244  11.358  0.2943  0.0284  0.4992
  145SAPE  H11A15881   0.372   0.161  11.399 -0.1538 -0.4506  0.2075
  145SAPE  H11B15882   0.341   0.343  11.400 -0.1993 -0.0667  1.0862
  145SAPE     P15883   0.415   0.327  11.130 -0.5430  0.4201  0.0614
  145SAPE   O1315884   0.405   0.466  11.181  0.8150  0.4694 -0.1511
  145SAPE   O1415885   0.545   0.257  11.126  0.2303  0.0589 -0.5904
  145SAPE   O1215886   0.319   0.232  11.211 -0.9864  0.2463 -0.2227
  145SAPE   O1115887   0.351   0.305  10.988 -0.0638  0.5700  0.0918
  145SAPE    C115888   0.207   0.305  10.966 -0.5983 -0.6740 -0.1432
  145SAPE    HA15889   0.180   0.227  10.892 -2.3283 -0.1263 -0.1135
  145SAPE    HB15890   0.144   0.287  11.056  0.4293  1.9401  1.1692
  145SAPE    C215891   0.158   0.447  10.921  0.2282 -0.4350 -0.6234
  145SAPE    HS15892   0.187   0.520  10.999 -2.9094 -1.9328  2.0710
  145SAPE   O2115893   0.013   0.455  10.894 -0.4982  0.4954  0.1575
  145SAPE   C2115894  -0.042   0.577  10.882  0.2217  1.2198 -0.1418
  145SAPE   O2215895   0.017   0.680  10.907  0.2488 -0.5271  0.1572
  145SAPE   C2215896  -0.183   0.560  10.819  0.4228 -0.4358  0.0946
  145SAPE   H2R15897  -0.194   0.461  10.769  0.1215 -1.1965  1.6539
  145SAPE   H2S15898  -0.264   0.579  10.893  1.0474  0.7848  0.4810
  145SAPE    C315899   0.230   0.488  10.790 -0.1158 -0.3940 -0.0326
  145SAPE    HX15900   0.337   0.482  10.819 -0.2449 -0.9013  0.3371
  145SAPE    HY15901   0.196   0.589  10.761  1.6531  0.8629  2.1484
  145SAPE   O3115902   0.199   0.401  10.676  0.5557  0.1092 -0.1327
  145SAPE   C3115903   0.249   0.443  10.559 -0.4158  0.2110 -0.3270
  145SAPE   O3215904   0.325   0.535  10.542 -0.4492  0.0609  0.1356
  145SAPE   C3215905   0.192   0.353  10.445 -0.1333  0.2707  0.0863
  145SAPE   H2X15906   0.081   0.357  10.456 -0.2219  0.2401 -0.7462
  145SAPE   H2Y15907   0.226   0.249  10.464  1.8339  0.3965 -2.5246
  145SAPE   C2315908  -0.211   0.677  10.726  0.2562 -0.4600  0.0923
  145SAPE   H3R15909  -0.172   0.774  10.765 -1.3624  0.5626 -0.7892
  145SAPE   H3S15910  -0.322   0.686  10.728 -0.0316 -2.8276 -2.2637
  145SAPE   C2415911  -0.176   0.658  10.577 -0.3197  0.2214  0.1031
  145SAPE   H4R15912  -0.070   0.624  10.572 -0.9909 -1.7499 -1.0707
  145SAPE   H4S15913  -0.172   0.762  10.537  1.1917 -0.1970 -0.9098
  145SAPE   C2515914  -0.276   0.576  10.503  0.9416  0.1839 -0.0595
  145SAPE   H5R15915  -0.377   0.561  10.545  1.5932 -0.5699  1.2461
  145SAPE   C2615916  -0.265   0.529  10.378 -0.3206 -0.8810  1.2243
  145SAPE   H6R15917  -0.339   0.460  10.336 -0.1197 -0.9171  0.9319
  145SAPE   C2715918  -0.146   0.537  10.279  0.7278 -0.3922 -0.5721
  145SAPE   H7R15919  -0.115   0.431  10.273 -0.1472 -0.8223  1.8002
  145SAPE   H7S15920  -0.067   0.599  10.326  0.1884  1.6730 -2.3133
  145SAPE   C2815921  -0.186   0.601  10.155 -0.6218 -0.0847 -0.5279
  145SAPE   H8R15922  -0.176   0.710  10.146  0.8366 -0.0408  1.3986
  145SAPE   C2915923  -0.247   0.532  10.055 -0.5690  1.3772  0.3391
  145SAPE   H9R15924  -0.289   0.586   9.969 -0.9773  0.4125 -0.0656
  145SAPE  C21015925  -0.277   0.383  10.054  0.5575 -0.2525 -0.9032
  145SAPE  H10R15926  -0.342   0.368  10.142 -0.9989 -0.0529 -1.9804
  145SAPE  H10S15927  -0.192   0.320  10.087  0.9909  1.1715  0.7955
  145SAPE  C21115928  -0.359   0.320   9.939  0.4348  0.4322  0.2621
  145SAPE  H11R15929  -0.446   0.384   9.921 -0.7816 -1.6513 -1.5751
  145SAPE  C21215930  -0.335   0.208   9.868 -0.2452  0.2482 -0.2030
  145SAPE  H12R15931  -0.412   0.176   9.796 -1.2814 -1.2235  1.5113
  145SAPE  C21315932  -0.214   0.119   9.884 -0.0630  0.3833  0.4632
  145SAPE  H13R15933  -0.139   0.187   9.931  0.0999  1.3974 -1.2295
  145SAPE  H13S15934  -0.171   0.090   9.786 -1.2895  0.1815 -0.0218
  145SAPE  C21415935  -0.239  -0.000   9.966 -0.3109 -0.2701 -0.3415
  145SAPE  H14R15936  -0.328  -0.004  10.030  0.8691 -1.3702  1.2839
  145SAPE  C21515937  -0.147  -0.097   9.982 -0.5850  0.5761 -0.1628
  145SAPE  H15R15938  -0.164  -0.179  10.054  0.1743  0.3266 -0.2694
  145SAPE  C21615939  -0.017  -0.107   9.910 -0.2260  0.3990 -0.0872
  145SAPE  H16R15940   0.011  -0.016   9.851  1.7030  0.0054  0.1729
  145SAPE  H16S15941  -0.034  -0.185   9.833 -1.2746 -0.2954  0.8395
  145SAPE  C21715942   0.108  -0.141  10.002  0.4303 -0.0643 -0.8290
  145SAPE  H17R15943   0.142  -0.068  10.079 -0.8662  0.9799 -1.2320
  145SAPE  H17S15944   0.195  -0.136   9.934 -0.5299 -0.0745 -2.0834
  145SAPE  C21815945   0.106  -0.275  10.074  0.3440  0.6897 -0.1572
  145SAPE  H18R15946   0.020  -0.284  10.144  2.5166 -2.0697  2.3143
  145SAPE  H18S15947   0.190  -0.289  10.145 -1.0282 -1.3783  1.1047
  145SAPE  C21915948   0.087  -0.389   9.972  0.0526 -0.2158  0.2669
  145SAPE  H19R15949   0.157  -0.383   9.887  0.6005  3.0918  0.8751
  145SAPE  H19S15950  -0.018  -0.375   9.938  0.3173 -0.0115 -0.4707
  145SAPE  C22015951   0.098  -0.532  10.030  0.0253  0.2824 -0.3019
  145SAPE  H20R15952   0.042  -0.558  10.122  0.3565  0.6039 -0.0128
  145SAPE  H20S15953   0.205  -0.562  10.031 -0.3290 -0.9867  0.7064
  145SAPE  H20T15954   0.056  -0.591   9.945  1.2039 -2.9283  1.2769
  145SAPE   C3315955   0.240   0.403  10.305  0.4802  0.5581 -0.0856
  145SAPE   H3X15956   0.351   0.392  10.297  0.5116 -0.4926  1.5224
  145SAPE   H3Y15957   0.221   0.513  10.304  0.3868  0.5370 -0.4957
  145SAPE   C3415958   0.174   0.326  10.190 -0.0665  0.0003 -0.1410
  145SAPE   H4X15959   0.067   0.314  10.215 -0.1774  0.2446 -0.4952
  145SAPE   H4Y15960   0.211   0.221  10.185 -0.7557 -0.1796 -1.8202
  145SAPE   C3515961   0.198   0.384  10.050 -0.4724 -0.7159  0.4616
  145SAPE   H5X15962   0.304   0.364  10.023 -0.2583 -0.3967  1.0576
  145SAPE   H5Y15963   0.190   0.494  10.060 -0.8347 -0.8268  1.5274
  145SAPE   C3615964   0.101   0.322   9.941  0.0146 -0.1834 -0.1658
  145SAPE   H6X15965  -0.004   0.358   9.941  0.3402  0.7928 -1.3241
  145SAPE   H6Y15966   0.093   0.214   9.966 -0.7764  0.3705  2.1579
  145SAPE   C3715967   0.155   0.353   9.795  0.9368 -0.0601 -0.5586
  145SAPE   H7X15968   0.255   0.305   9.783  2.2433  3.0465 -2.7288
  145SAPE   H7Y15969   0.162   0.464   9.798  0.8441 -0.0847  1.6021
  145SAPE   C3815970   0.056   0.302   9.683 -0.0022 -0.2045  0.0607
  145SAPE   H8X15971  -0.046   0.345   9.689  1.0529  2.2454  1.5092
  145SAPE   H8Y15972   0.043   0.192   9.683 -0.3672 -0.1966  3.9288
  145SAPE   C3915973   0.111   0.345   9.546 -0.0083 -0.6026  1.1386
  145SAPE   H9X15974   0.218   0.313   9.541 -0.0729 -0.4451 -1.9013
  145SAPE   H9Y15975   0.101   0.455   9.536  1.8931 -0.5662 -0.8131
  145SAPE  C31015976   0.029   0.275   9.434 -0.2140 -0.9768 -0.9013
  145SAPE  H10X15977  -0.080   0.297   9.439  0.3799  1.6512  1.2259
  145SAPE  H10Y15978   0.034   0.166   9.455  1.4911 -0.8681 -0.6521
  145SAPE  C31115979   0.076   0.296   9.288  0.1537  0.1180  0.1828
  145SAPE  H11X15980   0.019   0.217   9.235  2.0500 -0.5887 -0.8748
  145SAPE  H11Y15981   0.184   0.272   9.296  0.1547  0.3665  0.8997
  145SAPE  C31215982   0.047   0.434   9.238 -0.8351 -0.5432  0.0246
  145SAPE  H12X15983   0.090   0.506   9.311 -0.0213 -1.6976  0.6914
  145SAPE  H12Y15984  -0.063   0.449   9.231 -0.4818  1.9439 -0.5342
  145SAPE  C31315985   0.106   0.467   9.095  0.6507 -0.0989  0.0699
  145SAPE  H13X15986   0.045   0.416   9.017  1.0337 -0.4629  0.0103
  145SAPE  H13Y15987   0.203   0.416   9.081  1.1812  0.5401  1.3381
  145SAPE  C31415988   0.116   0.630   9.073  0.5535  0.7451  0.0668
  145SAPE  H14X15989   0.182   0.657   9.158 -0.0505 -0.4763  0.9409
  145SAPE  H14Y15990   0.015   0.676   9.078 -0.9750 -2.4732 -0.4270
  145SAPE  C31515991   0.178   0.670   8.938  0.8479 -0.2959 -0.2700
  145SAPE  H15X15992   0.124   0.608   8.864  0.5994 -1.3853  0.8173
  145SAPE  H15Y15993   0.279   0.627   8.924  0.7133 -0.3606 -1.0713
  145SAPE  C31615994   0.176   0.824   8.905 -1.0102  0.1566 -1.2606
  145SAPE  H16X15995   0.225   0.882   8.986 -0.5785 -1.1686 -0.5400
  145SAPE  H16Y15996   0.072   0.861   8.907 -1.0223  0.3243 -3.6475
  145SAPE  C31715997   0.244   0.867   8.777 -0.2123 -0.4198  0.4588
  145SAPE  H17X15998   0.237   0.978   8.771 -0.7920 -0.3900  1.6373
  145SAPE  H17Y15999   0.193   0.827   8.687 -0.6324  1.4510 -0.1700
  145SAPE  C31816000   0.391   0.845   8.772 -0.2866  0.1823  0.1728
  145SAPE  H18X16001   0.440   0.903   8.691  1.7645  1.0600  1.9879
  145SAPE  H18Y16002   0.429   0.741   8.782 -0.7025 -0.1390 -1.3437
  145SAPE  H18Z16003   0.435   0.890   8.863 -1.1941  0.7988  0.3086
  146SAPE     N16004   4.587   6.411  10.930  0.5499 -0.1913 -0.1127
  146SAPE   HN116005   4.687   6.382  10.927  0.6048  0.0581 -1.3368
  146SAPE   HN216006   4.584   6.492  10.994  2.0805 -1.0400  1.0789
  146SAPE   HN316007   4.525   6.335  10.966  2.4277 -0.8704  1.7661
  146SAPE   C1216008   4.565   6.441  10.781 -0.3623 -0.6305  0.1226
  146SAPE  H12A16009   4.653   6.493  10.738 -1.1176  0.3749 -0.2307
  146SAPE  H12B16010   4.477   6.508  10.765 -1.0683 -2.0223 -2.0391
  146SAPE   C1116011   4.546   6.301  10.711 -0.5554 -0.5553 -0.3987
  146SAPE  H11A16012   4.565   6.305  10.601 -0.7677 -0.3640 -0.4280
  146SAPE  H11B16013   4.443   6.263  10.725 -0.1399 -1.5007  0.1456
  146SAPE     P16014   4.597   6.071  10.831  0.2782  0.2773 -0.0445
  146SAPE   O1316015   4.716   5.994  10.870  0.1527 -0.6896 -0.2108
  146SAPE   O1416016   4.505   6.107  10.945 -0.0748  0.1219  0.3788
  146SAPE   O1216017   4.643   6.207  10.764  0.1139 -0.0292  0.3015
  146SAPE   O1116018   4.519   5.996  10.715 -0.1991 -0.2526  0.1934
  146SAPE    C116019   4.582   5.886  10.650 -0.2118  0.1506  0.2517
  146SAPE    HA16020   4.662   5.840  10.711  1.2243  0.1987 -1.5224
  146SAPE    HB16021   4.503   5.809  10.634  0.8439 -0.3716 -2.8999
  146SAPE    C216022   4.633   5.928  10.506 -0.5008 -0.0176  0.2508
  146SAPE    HS16023   4.700   5.846  10.473 -1.3971 -1.2453  1.4027
  146SAPE   O2116024   4.703   6.053  10.515  0.4147  0.4259  0.4441
  146SAPE   C2116025   4.825   6.033  10.553 -0.3065  0.2826 -1.4148
  146SAPE   O2216026   4.876   5.939  10.608 -0.0420 -0.4761 -0.2573
  146SAPE   C2216027   4.912   6.150  10.497  0.6104  0.0286 -0.0798
  146SAPE   H2R16028   4.859   6.247  10.492 -0.3988 -0.5870 -1.6288
  146SAPE   H2S16029   4.993   6.173  10.570  0.6888  0.2127 -0.2228
  146SAPE    C316030   4.510   5.937  10.416  0.1176 -0.8355 -0.2802
  146SAPE    HX16031   4.463   6.034  10.442  1.1930 -0.3500 -0.1256
  146SAPE    HY16032   4.445   5.851  10.443 -1.4922  0.2534 -0.6581
  146SAPE   O3116033   4.544   5.941  10.275  0.7614 -0.0053  0.0510
  146SAPE   C3116034   4.438   5.988  10.202  0.7466 -0.6751 -1.3332
  146SAPE   O3216035   4.331   6.015  10.253 -0.1403  0.2593  0.6396
  146SAPE   C3216036   4.481   6.015  10.059 -0.3862  0.9868  0.0699
  146SAPE   H2X16037   4.589   6.024  10.032  0.0919 -2.1044  0.8003
  146SAPE   H2Y16038   4.438   6.111  10.023 -0.0170  0.7101 -1.1479
  146SAPE   C2316039   4.992   6.109  10.369  0.1242 -0.5841 -0.2729
  146SAPE   H3R16040   4.927   6.057  10.295 -0.3291 -0.7519  0.2446
  146SAPE   H3S16041   5.063   6.027  10.393  0.2092 -0.3026  0.4533
  146SAPE   C2416042   5.079   6.233  10.320  0.3560  0.2277 -0.3620
  146SAPE   H4R16043   5.140   6.263  10.408 -0.2435 -2.4750  1.0012
  146SAPE   H4S16044   5.009   6.314  10.290  0.2126  0.4098  0.4493
  146SAPE   C2516045   5.172   6.185  10.213 -0.0738  0.1239 -0.2928
  146SAPE   H5R16046   5.256   6.124  10.249  0.1376  1.3940  1.4282
  146SAPE   C2616047   5.149   6.199  10.082  0.6558 -0.1669 -0.6153
  146SAPE   H6R16048   5.211   6.152  10.004  0.8426 -0.3819 -0.3357
  146SAPE   C2716049   5.032   6.255  10.010  0.1656  0.4062  0.8412
  146SAPE   H7R16050   5.073   6.320   9.930 -0.3089  0.3859  0.5821
  146SAPE   H7S16051   4.969   6.317  10.077  2.1357 -0.4598  3.5870
  146SAPE   C2816052   4.947   6.140   9.957  0.0732  0.4334 -0.4972
  146SAPE   H8R16053   4.897   6.088  10.040  3.3615 -2.2089 -0.0768
  146SAPE   C2916054   4.946   6.105   9.829 -0.3116  0.0496 -0.0345
  146SAPE   H9R16055   4.882   6.020   9.800 -3.5196  2.6140 -0.7927
  146SAPE  C21016056   5.029   6.172   9.719  0.0773  0.1134  0.2017
  146SAPE  H10R16057   5.110   6.238   9.756  0.0087  0.2169  0.1661
  146SAPE  H10S16058   4.961   6.222   9.648  0.4150 -0.5617 -0.6047
  146SAPE  C21116059   5.111   6.067   9.647  0.7479  0.2191 -0.2993
  146SAPE  H11R16060   5.170   6.002   9.714 -2.1398 -1.4599  0.7188
  146SAPE  C21216061   5.116   6.048   9.517  1.0594  0.1254  0.0366
  146SAPE  H12R16062   5.197   5.990   9.470 -0.0161 -1.4060  0.0119
  146SAPE  C21316063   5.044   6.132   9.414  0.1806 -0.2172  1.2167
  146SAPE  H13R16064   4.953   6.188   9.443 -1.1385 -2.1571  0.9784
  146SAPE  H13S16065   5.006   6.067   9.332 -0.4481 -0.7617  1.9273
  146SAPE  C21416066   5.128   6.255   9.370  0.3370  0.2533  0.0906
  146SAPE  H14R16067   5.155   6.328   9.448  0.0665  2.2089 -1.6051
  146SAPE  C21516068   5.187   6.270   9.244 -1.3811 -0.7990  0.1095
  146SAPE  H15R16069   5.240   6.364   9.222  0.5993 -1.7254  0.8734
  146SAPE  C21616070   5.171   6.174   9.134 -0.9459 -0.1469 -0.3843
  146SAPE  H16R16071   5.076   6.181   9.077 -2.6704  0.8616  2.4801
  146SAPE  H16S16072   5.162   6.071   9.176 -1.8048  0.2370  0.3911
  146SAPE  C21716073   5.287   6.190   9.042  0.0133  0.6714 -0.1929
  146SAPE  H17R16074   5.315   6.094   8.995 -0.6405  1.0089 -1.2872
  146SAPE  H17S16075   5.377   6.224   9.098  0.9449  0.7367 -1.7211
  146SAPE  C21816076   5.264   6.282   8.920  0.1998 -0.0857  0.0678
  146SAPE  H18R16077   5.264   6.386   8.960  0.6423  0.1970 -0.6524
  146SAPE  H18S16078   5.169   6.253   8.871  0.3380 -0.2920 -0.0771
  146SAPE  C21916079   5.386   6.271   8.819  0.7443 -1.0242  0.2317
  146SAPE  H19R16080   5.382   6.166   8.783 -0.9323 -0.5772 -0.9390
  146SAPE  H19S16081   5.473   6.286   8.887  0.1480 -0.6096  0.9201
  146SAPE  C22016082   5.379   6.366   8.701  0.4728 -0.1278  0.1490
  146SAPE  H20R16083   5.379   6.469   8.742 -0.2300 -1.3730  3.4233
  146SAPE  H20S16084   5.290   6.349   8.637  0.3675 -1.0702  0.5410
  146SAPE  H20T16085   5.463   6.341   8.632  0.4221 -2.0320  0.7511
  146SAPE   C3316086   4.415   5.907   9.966 -0.1007 -0.6720 -0.4578
  146SAPE   H3X16087   4.304   5.904   9.969 -0.2001  0.7637 -2.0065
  146SAPE   H3Y16088   4.452   5.811  10.009 -1.3406  0.6702  3.8411
  146SAPE   C3416089   4.464   5.905   9.821 -0.7145 -0.6045  0.6371
  146SAPE   H4X16090   4.574   5.895   9.829 -0.7487 -2.8816 -0.9515
  146SAPE   H4Y16091   4.441   6.004   9.777  2.3085  0.7654  2.0394
  146SAPE   C3516092   4.409   5.786   9.733 -0.1247  0.1693 -0.0129
  146SAPE   H5X16093   4.325   5.740   9.790 -0.7905  1.3322 -0.0361
  146SAPE   H5Y16094   4.486   5.707   9.719 -1.4791 -1.2728  0.3890
  146SAPE   C3616095   4.351   5.841   9.596 -0.1987  0.7331  0.9658
  146SAPE   H6X16096   4.400   5.930   9.552 -0.6442 -0.3691 -1.8944
  146SAPE   H6Y16097   4.247   5.869   9.624 -1.0059 -1.0026 -0.1328
  146SAPE   C3716098   4.333   5.737   9.492 -1.2669 -0.0549 -1.4218
  146SAPE   H7X16099   4.287   5.645   9.533 -2.2665  1.1902  0.2972
  146SAPE   H7Y16100   4.434   5.721   9.449 -0.0408 -0.5609  1.5680
  146SAPE   C3816101   4.239   5.780   9.380  0.3688 -0.4311 -0.0238
  146SAPE   H8X16102   4.272   5.880   9.344 -1.2229 -0.4140 -1.4829
  146SAPE   H8Y16103   4.134   5.773   9.417  0.8486 -0.6971  1.3379
  146SAPE   C3916104   4.250   5.683   9.263  0.8574 -0.4839 -0.2129
  146SAPE   H9X16105   4.179   5.601   9.288  0.7150  0.2449  1.9031
  146SAPE   H9Y16106   4.352   5.643   9.249  0.4977 -1.1166 -1.0744
  146SAPE  C31016107   4.207   5.749   9.132 -0.1094  0.0805  0.5570
  146SAPE  H10X16108   4.269   5.832   9.091 -0.4540  0.5615  0.9951
  146SAPE  H10Y16109   4.107   5.794   9.152 -0.4966 -0.6814  0.3727
  146SAPE  C31116110   4.197   5.638   9.016 -0.0470  0.5139  0.3286
  146SAPE  H11X16111   4.139   5.550   9.049  1.3625 -0.5735 -0.0363
  146SAPE  H11Y16112   4.293   5.589   8.989 -0.4046 -0.5740  0.9996
  146SAPE  C31216113   4.144   5.708   8.893 -0.5803 -0.7664  0.1928
  146SAPE  H12X16114   4.219   5.789   8.885 -2.9560  1.5535  0.4597
  146SAPE  H12Y16115   4.043   5.746   8.920  0.4952  1.9672  0.5822
  146SAPE  C31316116   4.155   5.626   8.764 -0.2387 -1.2811  0.5839
  146SAPE  H13X16117   4.260   5.592   8.751  0.0936  0.0417 -0.2716
  146SAPE  H13Y16118   4.144   5.694   8.677  2.6372 -1.0573  0.3591
  146SAPE  C31416119   4.061   5.512   8.742 -0.1521  0.6499 -0.1127
  146SAPE  H14X16120   3.958   5.550   8.758 -0.9347 -0.6817 -1.7440
  146SAPE  H14Y16121   4.077   5.444   8.829  3.0765  1.6607  0.1575
  146SAPE  C31516122   4.064   5.442   8.604 -0.8149 -0.1546 -0.0202
  146SAPE  H15X16123   4.027   5.337   8.604  1.6886 -1.0719  0.7402
  146SAPE  H15Y16124   4.168   5.458   8.567 -1.7008  1.4529 -1.9370
  146SAPE  C31616125   3.972   5.520   8.498  0.1237 -0.3826  0.6626
  146SAPE  H16X16126   4.018   5.620   8.482  1.8179 -1.7479 -3.8365
  146SAPE  H16Y16127   3.869   5.538   8.534 -0.4011 -1.3529 -0.3402
  146SAPE  C31716128   3.970   5.463   8.359  0.0500 -0.1149 -0.4405
  146SAPE  H17X16129   3.907   5.525   8.292 -1.4864 -3.0603 -1.8025
  146SAPE  H17Y16130   3.924   5.362   8.359  1.7778 -0.9174 -0.7509
  146SAPE  C31816131   4.108   5.445   8.287 -0.7008  0.1802 -0.1963
  146SAPE  H18X16132   4.186   5.417   8.360  1.5922  0.1124 -2.5985
  146SAPE  H18Y16133   4.136   5.537   8.231 -1.0551  0.5749  0.2749
  146SAPE  H18Z16134   4.096   5.361   8.216 -1.4555  0.1219 -0.0008
  147SAPE     N16135   0.830   4.496   6.162  0.1800  0.3361 -0.0025
  147SAPE   HN116136   0.925   4.457   6.149 -1.0267 -2.0779 -1.9533
  147SAPE   HN216137   0.751   4.433   6.136 -0.1683 -0.1634  2.1492
  147SAPE   HN316138   0.816   4.571   6.091  0.0320  0.7701  0.4786
  147SAPE   C1216139   0.826   4.547   6.298 -0.3220 -0.5936 -0.7273
  147SAPE  H12A16140   0.826   4.463   6.370  1.4783 -0.0828 -0.0964
  147SAPE  H12B16141   0.737   4.611   6.313 -0.4371 -0.4306 -2.0371
  147SAPE   C1116142   0.942   4.647   6.334 -0.4264 -0.6062  0.5162
  147SAPE  H11A16143   0.917   4.708   6.424  2.2181 -1.4034  1.8426
  147SAPE  H11B16144   0.952   4.725   6.256 -0.0113 -1.5086 -0.3322
  147SAPE     P16145   1.101   4.491   6.479  0.3361  0.1151 -0.1903
  147SAPE   O1316146   1.075   4.347   6.445  0.1179  0.4888 -0.1241
  147SAPE   O1416147   1.238   4.522   6.523  0.6349 -0.6309  0.1340
  147SAPE   O1216148   1.063   4.570   6.348 -0.2669 -0.2849  0.2776
  147SAPE   O1116149   0.998   4.542   6.593  0.2203  0.6458  0.6607
  147SAPE    C116150   1.026   4.653   6.672  0.2453  0.1079  0.3110
  147SAPE    HA16151   1.093   4.729   6.625 -0.2843  1.3909  1.5851
  147SAPE    HB16152   0.935   4.705   6.710 -0.4673 -0.8841 -0.0297
  147SAPE    C216153   1.114   4.608   6.793 -0.4699  0.5461 -0.3585
  147SAPE    HS16154   1.201   4.551   6.756 -1.0615  0.5408 -1.7521
  147SAPE   O2116155   1.031   4.540   6.890  0.4148  0.2852  0.4688
  147SAPE   C2116156   1.044   4.412   6.892  0.1406  0.1295 -0.0495
  147SAPE   O2216157   1.119   4.347   6.825  0.1548 -0.0100 -0.2831
  147SAPE   C2216158   0.962   4.353   7.007  0.0945 -0.9948  0.6654
  147SAPE   H2R16159   0.981   4.244   7.012  1.0826 -0.9408 -1.3137
  147SAPE   H2S16160   1.001   4.389   7.105  0.8164 -1.2793  0.4855
  147SAPE    C316161   1.171   4.733   6.863 -0.1686 -0.2519 -0.3200
  147SAPE    HX16162   1.092   4.810   6.873 -0.2032 -0.3723  0.3574
  147SAPE    HY16163   1.244   4.782   6.796  0.8765  2.0762  2.4013
  147SAPE   O3116164   1.222   4.713   7.001  0.4822 -0.1672 -0.2022
  147SAPE   C3116165   1.293   4.818   7.048  0.2573  0.0040  0.0854
  147SAPE   O3216166   1.315   4.914   6.978  0.0877 -0.1068  0.4691
  147SAPE   C3216167   1.319   4.805   7.199 -0.7143  0.3750 -0.0435
  147SAPE   H2X16168   1.367   4.706   7.208  1.5215  1.3863 -0.4602
  147SAPE   H2Y16169   1.220   4.805   7.250 -0.3808  1.2369  0.6214
  147SAPE   C2316170   0.803   4.377   6.985 -0.6193 -0.7751  0.3070
  147SAPE   H3R16171   0.780   4.312   6.898 -0.1023 -2.2014  1.2215
  147SAPE   H3S16172   0.793   4.486   6.965  1.5508 -0.1400  2.3865
  147SAPE   C2416173   0.717   4.363   7.108 -0.6925 -0.3793 -1.0078
  147SAPE   H4R16174   0.621   4.400   7.067 -1.1302 -2.2283 -1.7047
  147SAPE   H4S16175   0.755   4.439   7.180 -1.4210 -0.9486 -0.0108
  147SAPE   C2516176   0.711   4.226   7.178  0.5378 -0.3612  0.1004
  147SAPE   H5R16177   0.698   4.130   7.124  2.3931 -0.3272 -0.4499
  147SAPE   C2616178   0.719   4.210   7.312 -0.8328  0.2847 -0.5957
  147SAPE   H6R16179   0.720   4.115   7.367  1.9557  0.6318  0.0659
  147SAPE   C2716180   0.744   4.317   7.418 -0.4700  0.1511  0.1759
  147SAPE   H7R16181   0.715   4.421   7.392  1.0410 -0.1195 -2.9325
  147SAPE   H7S16182   0.852   4.324   7.442 -0.9428  3.6526  1.6181
  147SAPE   C2816183   0.686   4.275   7.548  0.3772  0.8027  0.4843
  147SAPE   H8R16184   0.581   4.308   7.558  0.5945  1.6602 -0.0209
  147SAPE   C2916185   0.749   4.218   7.646 -0.1647 -0.1512  0.7427
  147SAPE   H9R16186   0.691   4.168   7.725 -0.5964 -0.4653  0.2238
  147SAPE  C21016187   0.894   4.165   7.653 -0.3476 -0.5111  0.0606
  147SAPE  H10R16188   0.951   4.190   7.560  0.8177 -0.0941  0.8695
  147SAPE  H10S16189   0.904   4.055   7.660  1.1070 -0.7149 -3.7770
  147SAPE  C21116190   0.969   4.210   7.780 -0.1184 -0.5001 -0.5652
  147SAPE  H11R16191   0.991   4.318   7.769  0.9807 -0.9409 -3.0500
  147SAPE  C21216192   1.022   4.139   7.882 -0.1272  0.0197  0.1960
  147SAPE  H12R16193   1.079   4.188   7.962  1.5899 -0.3939 -0.7597
  147SAPE  C21316194   1.021   3.989   7.897  0.1034  0.2959  0.2744
  147SAPE  H13R16195   0.967   3.942   7.813  2.6548 -1.2697 -0.5586
  147SAPE  H13S16196   0.970   3.949   7.988 -0.4758 -1.7946 -0.9477
  147SAPE  C21416197   1.163   3.942   7.899  0.3928 -0.3407 -0.8606
  147SAPE  H14R16198   1.212   3.943   7.800  1.7249  1.0802 -0.2066
  147SAPE  C21516199   1.233   3.898   8.004 -0.9126 -0.1943 -1.3601
  147SAPE  H15R16200   1.331   3.851   7.992  0.0537  2.0358 -2.5042
  147SAPE  C21616201   1.177   3.889   8.146  0.3923  0.5031 -0.3673
  147SAPE  H16R16202   1.239   3.818   8.205 -0.2736  0.5703  0.4210
  147SAPE  H16S16203   1.077   3.842   8.138  0.8237 -1.0599  2.5294
  147SAPE  C21716204   1.163   4.022   8.215  0.0566  0.6606  0.5077
  147SAPE  H17R16205   1.116   4.009   8.315 -1.2617  2.0290  0.0689
  147SAPE  H17S16206   1.108   4.096   8.154 -2.4186 -1.2826  0.3358
  147SAPE  C21816207   1.297   4.091   8.232 -0.0813 -0.3804 -0.1826
  147SAPE  H18R16208   1.358   4.089   8.140  0.0849  0.2798 -0.0917
  147SAPE  H18S16209   1.343   4.033   8.315 -1.9456 -1.6678 -0.0254
  147SAPE  C21916210   1.271   4.234   8.272  0.1469 -0.6475 -0.2014
  147SAPE  H19R16211   1.195   4.230   8.353 -2.7761  1.0276 -2.7469
  147SAPE  H19S16212   1.215   4.291   8.195 -0.3268 -1.8082 -0.7268
  147SAPE  C22016213   1.395   4.313   8.307  0.3913  0.2816 -0.2341
  147SAPE  H20R16214   1.466   4.335   8.224  0.1346  1.1256 -0.2302
  147SAPE  H20S16215   1.447   4.263   8.392  0.3958  0.6624 -0.0097
  147SAPE  H20T16216   1.365   4.415   8.338 -1.2881 -0.5213  0.8655
  147SAPE   C3316217   1.402   4.919   7.263 -0.7738  0.5323  0.1355
  147SAPE   H3X16218   1.362   5.021   7.245 -1.3162  0.7719  2.5339
  147SAPE   H3Y16219   1.505   4.917   7.220  0.2070  1.0508  2.3588
  147SAPE   C3416220   1.421   4.899   7.414  0.1568  0.1831 -0.5801
  147SAPE   H4X16221   1.441   4.793   7.443 -3.4124 -0.0036  1.4535
  147SAPE   H4Y16222   1.323   4.927   7.457  0.3681  0.5319 -0.3249
  147SAPE   C3516223   1.533   4.980   7.480 -0.2695  0.3209 -0.0074
  147SAPE   H5X16224   1.539   5.083   7.440  2.2196 -0.0710 -0.7140
  147SAPE   H5Y16225   1.635   4.948   7.451 -0.6521  1.7002 -3.0158
  147SAPE   C3616226   1.528   4.978   7.629 -0.2630 -0.8645 -0.0966
  147SAPE   H6X16227   1.435   5.029   7.660  0.5579  0.6174  0.0289
  147SAPE   H6Y16228   1.619   5.030   7.668  0.6328 -1.6280 -1.1142
  147SAPE   C3716229   1.525   4.836   7.695 -0.5412 -0.0878 -0.0122
  147SAPE   H7X16230   1.613   4.776   7.664 -0.2541  0.4603 -0.2383
  147SAPE   H7Y16231   1.432   4.786   7.661 -2.4095  0.6192  3.7452
  147SAPE   C3816232   1.527   4.848   7.843 -0.0730 -0.4505  0.0367
  147SAPE   H8X16233   1.439   4.908   7.872  0.0741  0.2674 -0.9608
  147SAPE   H8Y16234   1.618   4.900   7.882 -0.1620  0.4341 -0.8932
  147SAPE   C3916235   1.516   4.716   7.912  0.5261 -0.2825  0.0590
  147SAPE   H9X16236   1.609   4.656   7.906  0.3522 -0.6279  0.7021
  147SAPE   H9Y16237   1.437   4.660   7.857  0.2905 -1.4122  1.5039
  147SAPE  C31016238   1.493   4.747   8.056  0.9756  0.1837 -0.3705
  147SAPE  H10X16239   1.408   4.684   8.090  1.1444  1.0749  1.8498
  147SAPE  H10Y16240   1.457   4.851   8.074  1.6676  0.9831 -3.4617
  147SAPE  C31116241   1.606   4.712   8.150  0.0707  0.1342 -0.4371
  147SAPE  H11X16242   1.581   4.745   8.253 -0.6082  0.0435 -0.5683
  147SAPE  H11Y16243   1.692   4.774   8.116 -0.4655  1.9317  1.3934
  147SAPE  C31216244   1.643   4.562   8.153 -0.5429 -0.1216  0.5101
  147SAPE  H12X16245   1.574   4.508   8.084 -0.7930 -0.1342  0.7700
  147SAPE  H12Y16246   1.624   4.532   8.258  1.9497 -0.2405  0.9404
  147SAPE  C31316247   1.790   4.542   8.118  0.2173 -0.0540  0.5922
  147SAPE  H13X16248   1.860   4.598   8.184  0.0437 -1.2728  1.8187
  147SAPE  H13Y16249   1.804   4.583   8.016  0.6657  2.3414  1.5628
  147SAPE  C31416250   1.829   4.395   8.116 -0.1518 -0.3593  0.4405
  147SAPE  H14X16251   1.893   4.374   8.027 -0.6756 -0.1757  0.0175
  147SAPE  H14Y16252   1.741   4.329   8.099  0.0603 -0.6930  0.6387
  147SAPE  C31516253   1.889   4.347   8.251 -0.7306  0.3943 -0.1664
  147SAPE  H15X16254   1.826   4.388   8.332 -2.0332 -1.9719  0.0711
  147SAPE  H15Y16255   1.995   4.377   8.268 -0.7614  0.8086 -0.7272
  147SAPE  C31616256   1.879   4.194   8.264  0.1218 -0.0078 -0.0061
  147SAPE  H16X16257   1.770   4.171   8.257  0.2856 -0.7834 -0.0227
  147SAPE  H16Y16258   1.911   4.171   8.368 -1.1782 -0.1709  0.3736
  147SAPE  C31716259   1.948   4.116   8.151  0.0503  0.0271  0.4381
  147SAPE  H17X16260   2.058   4.127   8.152 -0.1192  1.7797  1.4749
  147SAPE  H17Y16261   1.917   4.141   8.048 -0.7637 -0.4610  0.5578
  147SAPE  C31816262   1.928   3.965   8.162  0.7720 -0.5247 -0.2816
  147SAPE  H18X16263   1.972   3.914   8.073  0.7182 -0.2284 -0.4789
  147SAPE  H18Y16264   1.819   3.943   8.170  0.4106  0.8186 -1.3288
  147SAPE  H18Z16265   1.983   3.928   8.251  0.3542  0.6269  0.4683
  148SAPE     N16266   0.731   2.538   6.672 -0.4816 -0.2451  0.4366
  148SAPE   HN116267   0.675   2.615   6.714  0.2800  1.3748 -1.4180
  148SAPE   HN216268   0.782   2.491   6.749 -0.3689 -2.6325 -1.0410
  148SAPE   HN316269   0.806   2.560   6.603 -0.6242  1.6209  0.8637
  148SAPE   C1216270   0.649   2.435   6.612  0.1513 -0.0365 -0.7002
  148SAPE  H12A16271   0.650   2.462   6.504 -1.1799  2.2667 -0.1559
  148SAPE  H12B16272   0.549   2.427   6.660  0.6189  1.2707  0.5302
  148SAPE   C1116273   0.727   2.301   6.614  0.2727  0.0113  0.0360
  148SAPE  H11A16274   0.746   2.279   6.721 -1.7861 -1.2415  0.1765
  148SAPE  H11B16275   0.826   2.305   6.564  1.1363  0.4152  1.7436
  148SAPE     P16276   0.677   2.055   6.597 -0.4958  0.1573  0.3577
  148SAPE   O1316277   0.598   1.967   6.514 -0.3174 -0.5398 -0.3805
  148SAPE   O1416278   0.824   2.046   6.599  0.0289 -0.1899 -0.1593
  148SAPE   O1216279   0.643   2.206   6.552  0.3012  0.2384  0.5321
  148SAPE   O1116280   0.624   2.053   6.749 -0.0103  0.4651 -0.2373
  148SAPE    C116281   0.478   2.054   6.774 -0.1629 -0.0964 -0.2515
  148SAPE    HA16282   0.410   2.047   6.686  1.2640 -0.9344 -1.3356
  148SAPE    HB16283   0.456   1.962   6.833  1.1360  0.1877  0.7136
  148SAPE    C216284   0.431   2.162   6.866 -0.1497  0.7302  0.4036
  148SAPE    HS16285   0.439   2.260   6.814  2.0995 -0.3140 -1.3439
  148SAPE   O2116286   0.499   2.155   6.992  0.3541  0.2748  0.3491
  148SAPE   C2116287   0.587   2.253   7.016 -0.3047 -0.8428  0.1660
  148SAPE   O2216288   0.614   2.343   6.938  0.0300  0.0088  0.1552
  148SAPE   C2216289   0.645   2.233   7.154  0.6966 -0.5778  0.2062
  148SAPE   H2R16290   0.598   2.149   7.209 -0.4138  0.8258  1.4379
  148SAPE   H2S16291   0.752   2.204   7.141  0.7420  0.2003 -1.2145
  148SAPE    C316292   0.272   2.152   6.905 -0.3391  1.3207  0.1432
  148SAPE    HX16293   0.253   2.053   6.952 -1.1827  1.8435  0.9141
  148SAPE    HY16294   0.221   2.149   6.807  0.6945 -3.5608 -0.4138
  148SAPE   O3116295   0.223   2.257   6.987  0.1938  0.6987 -0.6523
  148SAPE   C3116296   0.228   2.382   6.934 -1.0251 -0.0986  0.0196
  148SAPE   O3216297   0.264   2.412   6.824 -0.1756 -0.0534  0.9361
  148SAPE   C3216298   0.185   2.482   7.049  0.1086  0.0377  0.1213
  148SAPE   H2X16299   0.192   2.433   7.148  0.0191  0.3176  0.2689
  148SAPE   H2Y16300   0.074   2.484   7.034 -0.1107 -1.0161  1.5419
  148SAPE   C2316301   0.640   2.357   7.241  0.3089  0.1415 -0.8640
  148SAPE   H3R16302   0.533   2.377   7.260  0.4511 -2.2859  3.1563
  148SAPE   H3S16303   0.697   2.441   7.196  1.4265  0.3551  0.9010
  148SAPE   C2416304   0.695   2.328   7.386 -0.7567 -0.2737  0.5533
  148SAPE   H4R16305   0.659   2.230   7.425 -2.3322  0.4357  0.9305
  148SAPE   H4S16306   0.662   2.407   7.456  1.5940  1.5128 -0.3201
  148SAPE   C2516307   0.843   2.309   7.375 -0.7223 -0.0714 -0.3822
  148SAPE   H5R16308   0.888   2.322   7.276 -0.3947 -0.2911 -0.2635
  148SAPE   C2616309   0.928   2.288   7.478 -0.1432  0.4076  0.2945
  148SAPE   H6R16310   1.037   2.278   7.471 -0.0916 -0.6234  2.1801
  148SAPE   C2716311   0.875   2.279   7.624 -1.0880  0.0851 -0.3341
  148SAPE   H7R16312   0.769   2.243   7.630 -1.1549  0.5780  1.7390
  148SAPE   H7S16313   0.879   2.379   7.670 -1.9797 -0.3984  0.8360
  148SAPE   C2816314   0.966   2.197   7.721 -0.0914 -0.6877  0.4567
  148SAPE   H8R16315   1.054   2.151   7.675 -2.0608 -1.6213 -2.5271
  148SAPE   C2916316   0.937   2.169   7.846 -0.2734 -0.5818 -0.0835
  148SAPE   H9R16317   1.010   2.108   7.901  0.4029  0.7915  0.5625
  148SAPE  C21016318   0.818   2.209   7.926  0.1695 -0.5165 -0.2598
  148SAPE  H10R16319   0.788   2.127   7.995 -0.6233 -0.0749 -0.0765
  148SAPE  H10S16320   0.730   2.222   7.859 -0.5604 -1.2501  0.5485
  148SAPE  C21116321   0.849   2.340   8.000  0.0922 -0.5446  0.3852
  148SAPE  H11R16322   0.844   2.430   7.937 -2.0042  0.3837  1.8413
  148SAPE  C21216323   0.865   2.347   8.137 -0.3938  0.1960 -0.1063
  148SAPE  H12R16324   0.899   2.434   8.195 -2.5037  1.2322 -0.4068
  148SAPE  C21316325   0.857   2.221   8.223  0.3372  0.0954 -0.5065
  148SAPE  H13R16326   0.922   2.222   8.313  0.6044  0.3644 -0.6995
  148SAPE  H13S16327   0.888   2.126   8.175  1.4336 -0.2773  0.8925
  148SAPE  C21416328   0.716   2.196   8.264  0.1322 -0.2923 -0.1020
  148SAPE  H14R16329   0.643   2.243   8.196  0.2573 -0.5227 -0.3964
  148SAPE  C21516330   0.670   2.123   8.361  0.6163 -0.3937 -0.1382
  148SAPE  H15R16331   0.560   2.115   8.363  0.6199 -1.1865 -2.1168
  148SAPE  C21616332   0.757   2.046   8.460 -0.2169  0.4837  0.1389
  148SAPE  H16R16333   0.866   2.053   8.438  0.0804  0.0615  1.4251
  148SAPE  H16S16334   0.738   1.937   8.445  1.0341  0.1310  1.0227
  148SAPE  C21716335   0.742   2.075   8.609 -0.2246  0.4422 -0.6582
  148SAPE  H17R16336   0.641   2.066   8.654  0.6021  2.5006  1.7758
  148SAPE  H17S16337   0.781   2.179   8.616 -0.8810  0.6106  0.8007
  148SAPE  C21816338   0.845   1.991   8.696 -0.3327 -0.2117 -0.0984
  148SAPE  H18R16339   0.830   1.885   8.668 -2.2684 -0.1343  0.5778
  148SAPE  H18S16340   0.801   1.994   8.798  0.9969 -0.3303  0.4866
  148SAPE  C21916341   0.994   2.025   8.687  0.7220  0.2293 -0.1203
  148SAPE  H19R16342   1.016   2.130   8.716  0.3212  0.0897  0.7138
  148SAPE  H19S16343   1.016   2.011   8.579 -1.8795 -0.1864 -0.6378
  148SAPE  C22016344   1.074   1.933   8.777  0.4947  0.0234  0.2346
  148SAPE  H20R16345   1.166   1.985   8.811  0.4713  0.0699  0.2288
  148SAPE  H20S16346   1.097   1.833   8.736  2.9949  0.9477 -0.7249
  148SAPE  H20T16347   1.013   1.915   8.868  0.7748 -2.0345  0.0418
  148SAPE   C3316348   0.258   2.619   7.054  0.0139  0.9535  0.1945
  148SAPE   H3X16349   0.184   2.693   7.091  1.3916  1.5548  1.8468
  148SAPE   H3Y16350   0.281   2.666   6.956 -1.2713  1.8189  0.2986
  148SAPE   C3416351   0.399   2.631   7.127 -0.7688  0.2548  0.4184
  148SAPE   H4X16352   0.452   2.727   7.107 -0.2734 -0.4863 -1.9547
  148SAPE   H4Y16353   0.470   2.549   7.105 -0.1337  1.0404 -0.4561
  148SAPE   C3516354   0.366   2.623   7.282 -1.0567  0.5192  0.2767
  148SAPE   H5X16355   0.457   2.585   7.335 -0.6252 -0.2117 -0.9580
  148SAPE   H5Y16356   0.278   2.560   7.307 -2.0651  1.1691 -1.5754
  148SAPE   C3616357   0.330   2.763   7.334  0.1946 -0.3238 -0.3459
  148SAPE   H6X16358   0.231   2.796   7.295 -0.4420  2.4384  3.3100
  148SAPE   H6Y16359   0.407   2.830   7.291 -0.3638  0.4494 -0.1528
  148SAPE   C3716360   0.328   2.779   7.483  0.7259 -0.2532 -0.4972
  148SAPE   H7X16361   0.435   2.755   7.501  1.4718  1.2331 -2.7006
  148SAPE   H7Y16362   0.280   2.698   7.541 -0.2635  1.5464  1.2873
  148SAPE   C3816363   0.303   2.923   7.540  0.7096 -0.0372 -0.3997
  148SAPE   H8X16364   0.195   2.948   7.534  0.4462 -1.2528 -0.9397
  148SAPE   H8Y16365   0.366   2.988   7.475 -2.0044  1.4204 -1.6590
  148SAPE   C3916366   0.348   2.925   7.684  0.0629  1.7228 -0.5188
  148SAPE   H9X16367   0.449   2.879   7.687 -0.0860  1.2818 -1.8676
  148SAPE   H9Y16368   0.273   2.854   7.725  1.1038  0.0833 -1.3720
  148SAPE  C31016369   0.341   3.066   7.756  0.6800 -0.1160  0.3609
  148SAPE  H10X16370   0.233   3.089   7.744  1.3170  1.5989 -2.8461
  148SAPE  H10Y16371   0.402   3.142   7.702  1.1256  0.6423  1.9154
  148SAPE  C31116372   0.372   3.071   7.910  0.0801  0.0362  0.0475
  148SAPE  H11X16373   0.353   2.970   7.950  0.1776 -0.4599 -1.1377
  148SAPE  H11Y16374   0.300   3.138   7.961  1.8771  2.6639 -0.6981
  148SAPE  C31216375   0.506   3.130   7.945  0.2829  0.0173  0.1725
  148SAPE  H12X16376   0.518   3.230   7.898  1.5753 -0.0765  0.2899
  148SAPE  H12Y16377   0.579   3.065   7.893  1.0220  0.5307  0.5522
  148SAPE  C31316378   0.532   3.138   8.095  0.1983 -1.1413  1.1434
  148SAPE  H13X16379   0.450   3.206   8.130  1.0008  0.2278  0.4141
  148SAPE  H13Y16380   0.623   3.199   8.117 -1.2381  0.9300  1.5814
  148SAPE  C31416381   0.532   3.004   8.166  0.5586  0.4940 -0.0484
  148SAPE  H14X16382   0.587   2.930   8.104 -0.6534 -0.1717 -0.3483
  148SAPE  H14Y16383   0.428   2.967   8.165  0.6234  0.2584  1.1906
  148SAPE  C31516384   0.575   3.012   8.307  0.0702 -0.1793  0.0288
  148SAPE  H15X16385   0.536   3.106   8.352  2.1321  0.2563  0.9923
  148SAPE  H15Y16386   0.686   3.011   8.308  0.0647 -1.6334  1.2745
  148SAPE  C31616387   0.545   2.886   8.396 -0.1366 -1.0466  0.2447
  148SAPE  H16X16388   0.581   2.800   8.334  2.6444  0.3101 -0.0806
  148SAPE  H16Y16389   0.436   2.876   8.414 -0.7925  2.2428 -1.6462
  148SAPE  C31716390   0.607   2.895   8.527 -0.2874 -0.0852  0.2346
  148SAPE  H17X16391   0.717   2.885   8.514 -0.5570 -1.3213 -1.1280
  148SAPE  H17Y16392   0.575   2.804   8.583 -0.0495  0.6057  1.5188
  148SAPE  C31816393   0.579   3.024   8.601 -0.5469 -0.2639 -0.0945
  148SAPE  H18X16394   0.612   3.017   8.706 -0.0415 -1.7543 -0.3401
  148SAPE  H18Y16395   0.469   3.035   8.598 -0.4001  1.2105 -3.2603
  148SAPE  H18Z16396   0.620   3.111   8.545  0.2014 -0.1820  0.5694
  149SAPE     N16397   0.143   3.588   6.448  0.3886  0.2812 -0.7089
  149SAPE   HN116398   0.046   3.594   6.485  0.8680 -2.2202  1.0486
  149SAPE   HN216399   0.180   3.670   6.396  0.6909 -0.1220 -1.1359
  149SAPE   HN316400   0.139   3.519   6.370  2.1027 -2.0701  1.2285
  149SAPE   C1216401   0.244   3.556   6.557  0.1031  0.0444 -0.2401
  149SAPE  H12A16402   0.214   3.623   6.640 -1.7477 -0.9117 -0.1147
  149SAPE  H12B16403   0.343   3.586   6.516  1.8696 -4.1539  0.6514
  149SAPE   C1116404   0.233   3.409   6.603  0.8738  0.7541 -0.0945
  149SAPE  H11A16405   0.124   3.391   6.618  0.7557  1.3990 -0.1241
  149SAPE  H11B16406   0.296   3.388   6.691 -1.0868 -1.9030  0.7251
  149SAPE     P16407   0.374   3.218   6.468  0.3874 -0.1798 -0.3031
  149SAPE   O1316408   0.341   3.149   6.342  0.3036  0.4210 -0.4587
  149SAPE   O1416409   0.494   3.309   6.461 -0.5077  0.3355 -0.1735
  149SAPE   O1216410   0.256   3.318   6.499  0.2618 -0.0539 -0.4748
  149SAPE   O1116411   0.386   3.112   6.588 -0.4371 -0.4803 -0.1375
  149SAPE    C116412   0.279   3.044   6.651  0.0904  0.1687  0.1974
  149SAPE    HA16413   0.187   3.047   6.590 -0.0979 -2.4430  0.2987
  149SAPE    HB16414   0.315   2.939   6.663  0.4520  0.2636 -0.0284
  149SAPE    C216415   0.264   3.086   6.798  0.1980 -0.3439 -0.7795
  149SAPE    HS16416   0.241   3.194   6.804  0.7748 -0.3622  2.9131
  149SAPE   O2116417   0.392   3.051   6.864 -0.2692  0.7319 -0.4246
  149SAPE   C2116418   0.437   3.127   6.959 -0.0065 -0.2315  0.4896
  149SAPE   O2216419   0.394   3.244   6.987  0.0541  0.7141  0.1733
  149SAPE   C2216420   0.550   3.061   7.045  0.4661  0.4085  0.1638
  149SAPE   H2R16421   0.504   2.976   7.098  0.3560 -0.4053 -1.2130
  149SAPE   H2S16422   0.623   3.026   6.969 -1.2630  1.2821 -1.9773
  149SAPE    C316423   0.143   3.005   6.864  0.2605  0.2379  0.3790
  149SAPE    HX16424   0.153   2.902   6.823 -0.6035 -0.7203  2.4962
  149SAPE    HY16425   0.044   3.039   6.825 -0.6310 -1.8701  0.7504
  149SAPE   O3116426   0.156   3.004   7.011  0.0924 -0.3317  0.0320
  149SAPE   C3116427   0.058   3.051   7.091 -0.8614  0.4527  0.0912
  149SAPE   O3216428  -0.055   3.070   7.054 -0.3481 -0.4738 -0.1639
  149SAPE   C3216429   0.104   3.063   7.239 -0.6913 -0.3847  0.4098
  149SAPE   H2X16430   0.208   3.102   7.241 -0.9795  0.3735  3.2619
  149SAPE   H2Y16431   0.107   2.967   7.295  1.8854 -0.7225 -0.2484
  149SAPE   C2316432   0.619   3.158   7.140 -0.5054 -0.2001  1.0848
  149SAPE   H3R16433   0.631   3.253   7.083  0.8027 -1.2720 -0.4339
  149SAPE   H3S16434   0.724   3.129   7.161  0.1224  0.5967 -0.8127
  149SAPE   C2416435   0.543   3.194   7.266 -0.1718  0.4599  1.0797
  149SAPE   H4R16436   0.519   3.096   7.313 -0.5216  0.4259  0.8277
  149SAPE   H4S16437   0.445   3.238   7.239 -0.8836 -1.9767 -0.5153
  149SAPE   C2516438   0.625   3.269   7.366  0.8716  0.5142  0.0853
  149SAPE   H5R16439   0.731   3.252   7.343 -0.0682 -1.2856 -3.2096
  149SAPE   C2616440   0.576   3.342   7.468 -0.2434  0.2098  0.1004
  149SAPE   H6R16441   0.643   3.410   7.523 -2.1929  3.0687 -0.9169
  149SAPE   C2716442   0.435   3.358   7.515  0.6464  0.1504  0.6231
  149SAPE   H7R16443   0.419   3.311   7.614 -1.9291 -0.6210 -0.1359
  149SAPE   H7S16444   0.362   3.309   7.448  1.8849  1.4468 -1.7440
  149SAPE   C2816445   0.384   3.502   7.531 -0.0555  0.3359  0.0527
  149SAPE   H8R16446   0.395   3.564   7.441  3.3672  0.8091  0.7210
  149SAPE   C2916447   0.355   3.562   7.647  0.1726 -0.3364  0.5685
  149SAPE   H9R16448   0.310   3.663   7.648  1.5021  0.2836 -1.1144
  149SAPE  C21016449   0.378   3.509   7.784  0.4544  0.1170 -0.6467
  149SAPE  H10R16450   0.396   3.595   7.852  0.6270  0.0115 -0.5587
  149SAPE  H10S16451   0.477   3.459   7.789  0.8255  0.8505 -0.5747
  149SAPE  C21116452   0.267   3.425   7.843 -0.6819  0.1363 -0.2997
  149SAPE  H11R16453   0.276   3.317   7.823  3.5447  0.5122 -0.9715
  149SAPE  C21216454   0.169   3.475   7.917 -0.5794  0.0436 -0.4098
  149SAPE  H12R16455   0.100   3.401   7.959 -0.0502  0.2326  0.8179
  149SAPE  C21316456   0.151   3.622   7.943 -0.6445  1.2314  0.2548
  149SAPE  H13R16457   0.041   3.637   7.936 -0.8690 -0.8479 -1.0374
  149SAPE  H13S16458   0.181   3.674   7.849 -1.4723 -0.8209 -1.1691
  149SAPE  C21416459   0.217   3.670   8.066 -0.6180 -0.1645 -0.6464
  149SAPE  H14R16460   0.325   3.646   8.075  0.0330  1.1047 -4.1080
  149SAPE  C21516461   0.168   3.740   8.165 -0.5620  0.6458 -0.2073
  149SAPE  H15R16462   0.236   3.767   8.247 -0.1948 -2.9592  0.7426
  149SAPE  C21616463   0.031   3.796   8.175  0.0617  0.1058 -0.3663
  149SAPE  H16R16464  -0.009   3.776   8.276  0.4206 -0.7353 -0.3877
  149SAPE  H16S16465  -0.039   3.744   8.106  0.7156 -1.0384 -0.1690
  149SAPE  C21716466   0.011   3.946   8.144  0.2102  0.0147  0.1857
  149SAPE  H17R16467   0.074   3.964   8.054 -1.8224  1.7022 -0.9221
  149SAPE  H17S16468   0.047   4.018   8.221  0.4830 -0.5340  0.5752
  149SAPE  C21816469  -0.135   3.982   8.121 -0.2711  0.1423  0.1616
  149SAPE  H18R16470  -0.170   3.922   8.035 -0.4968 -0.5482  0.7216
  149SAPE  H18S16471  -0.152   4.088   8.094 -0.0030 -0.3514 -2.0166
  149SAPE  C21916472  -0.228   3.962   8.239  0.1381  0.5073  0.6850
  149SAPE  H19R16473  -0.174   3.975   8.335 -0.2225  1.3986  0.7801
  149SAPE  H19S16474  -0.249   3.853   8.244  0.7924  0.3865  0.7796
  149SAPE  C22016475  -0.353   4.050   8.247  0.2208  0.2893 -0.0130
  149SAPE  H20R16476  -0.332   4.151   8.290  0.0223  0.4205 -0.2249
  149SAPE  H20S16477  -0.429   4.003   8.312  0.3069  1.1763  0.7357
  149SAPE  H20T16478  -0.389   4.073   8.145 -0.4882 -2.7133 -0.4708
  149SAPE   C3316479   0.006   3.156   7.317  0.0951 -0.2213 -0.4747
  149SAPE   H3X16480  -0.067   3.078   7.348 -0.4066  0.1432 -0.7181
  149SAPE   H3Y16481  -0.039   3.242   7.263 -2.1932 -1.6990 -0.9970
  149SAPE   C3416482   0.088   3.219   7.432 -0.3983  0.4522  0.6592
  149SAPE   H4X16483   0.152   3.297   7.385 -1.7587  2.2183  1.6292
  149SAPE   H4Y16484   0.158   3.157   7.492 -0.6310 -0.1689  0.2823
  149SAPE   C3516485   0.011   3.306   7.535 -0.2307  0.1009  0.3883
  149SAPE   H5X16486  -0.036   3.382   7.469 -0.5713 -0.9283 -0.5762
  149SAPE   H5Y16487   0.086   3.352   7.603  1.3522  0.2323 -1.3869
  149SAPE   C3616488  -0.102   3.250   7.613  0.0612 -1.1884  0.3566
  149SAPE   H6X16489  -0.174   3.198   7.546 -1.7866  2.5592 -0.6816
  149SAPE   H6Y16490  -0.152   3.334   7.666 -0.0048 -0.7751 -0.3539
  149SAPE   C3716491  -0.063   3.152   7.726  0.1808 -0.0930 -0.2564
  149SAPE   H7X16492   0.004   3.211   7.792  0.5160 -0.0833 -0.6047
  149SAPE   H7Y16493  -0.001   3.066   7.694 -0.8783 -1.2182  0.6822
  149SAPE   C3816494  -0.182   3.099   7.805  1.0742  0.2701  0.4493
  149SAPE   H8X16495  -0.150   3.010   7.864 -0.7832  0.2935  1.5097
  149SAPE   H8Y16496  -0.257   3.061   7.733 -1.0966  2.6013  1.4310
  149SAPE   C3916497  -0.257   3.196   7.893 -0.0025 -0.8006 -0.7109
  149SAPE   H9X16498  -0.355   3.149   7.915  0.4255 -1.2805  0.1996
  149SAPE   H9Y16499  -0.283   3.291   7.841 -2.1394 -0.7272  0.4076
  149SAPE  C31016500  -0.166   3.245   8.008 -0.2160  0.1070 -0.7044
  149SAPE  H10X16501  -0.076   3.299   7.972  1.0740 -1.1028  0.6155
  149SAPE  H10Y16502  -0.129   3.150   8.054 -0.5818  0.2982 -0.0049
  149SAPE  C31116503  -0.224   3.333   8.113 -0.1902  0.4554  0.3205
  149SAPE  H11X16504  -0.319   3.283   8.143 -0.8452  1.3901 -0.1751
  149SAPE  H11Y16505  -0.252   3.426   8.059  2.0543  0.6840 -0.4896
  149SAPE  C31216506  -0.138   3.372   8.233 -0.0017  0.6779 -0.8402
  149SAPE  H12X16507  -0.198   3.446   8.291  1.8389  0.1442  1.8411
  149SAPE  H12Y16508  -0.054   3.441   8.208 -1.4604  2.1504 -1.8614
  149SAPE  C31316509  -0.060   3.261   8.313 -1.4150 -0.1330  0.5305
  149SAPE  H13X16510   0.003   3.299   8.396 -0.3620  1.4781 -0.9488
  149SAPE  H13Y16511  -0.001   3.200   8.241 -1.2479 -1.2126  1.5749
  149SAPE  C31416512  -0.162   3.164   8.372  0.2006  0.3679 -0.3018
  149SAPE  H14X16513  -0.238   3.147   8.292 -0.5557  1.1641  0.2333
  149SAPE  H14Y16514  -0.219   3.206   8.458  0.4184  0.7844 -0.3574
  149SAPE  C31516515  -0.104   3.031   8.420  0.6297  0.0493  0.1576
  149SAPE  H15X16516   0.001   3.042   8.455  0.4057 -0.7069  1.0914
  149SAPE  H15Y16517  -0.102   2.960   8.335  0.0646  1.9177 -1.4462
  149SAPE  C31616518  -0.175   2.966   8.542 -0.1194  0.3051 -0.1309
  149SAPE  H16X16519  -0.285   2.967   8.527 -0.4834 -0.3121  2.3255
  149SAPE  H16Y16520  -0.142   3.031   8.626 -0.8422  2.8816 -1.7684
  149SAPE  C31716521  -0.127   2.821   8.588  0.0656  0.3954  0.4313
  149SAPE  H17X16522  -0.144   2.748   8.505  0.0961  1.9573 -0.9655
  149SAPE  H17Y16523  -0.195   2.791   8.670  2.8431 -1.6852  2.0738
  149SAPE  C31816524   0.024   2.813   8.619  0.0318  0.6843  0.0457
  149SAPE  H18X16525   0.080   2.848   8.529  0.3608 -2.0733 -0.8689
  149SAPE  H18Y16526   0.043   2.704   8.624 -0.9571  0.5339  0.6505
  149SAPE  H18Z16527   0.044   2.867   8.714  0.0130  2.2809 -0.8292
  150SAPE     N16528   5.940   4.716   6.303  0.2160  0.2415 -0.1012
  150SAPE   HN116529   6.019   4.726   6.236  0.1637 -0.3950 -0.2559
  150SAPE   HN216530   5.980   4.718   6.399  1.1264 -3.1666 -0.3473
  150SAPE   HN316531   5.896   4.624   6.290 -0.4485  0.6032 -0.4223
  150SAPE   C1216532   5.836   4.824   6.288 -0.0362 -0.6251 -0.0371
  150SAPE  H12A16533   5.747   4.790   6.345 -0.4067 -0.7239 -0.6653
  150SAPE  H12B16534   5.814   4.826   6.179  0.2241  0.5698 -0.0741
  150SAPE   C1116535   5.899   4.961   6.325 -0.1558  0.5360 -0.1642
  150SAPE  H11A16536   5.923   4.960   6.433 -0.2461 -1.1615 -0.1418
  150SAPE  H11B16537   5.822   5.038   6.306 -0.4232  0.4177  0.4195
  150SAPE     P16538   6.113   5.107   6.263 -0.0228 -0.5741 -0.2517
  150SAPE   O1316539   6.245   5.069   6.208  0.7652  0.0907 -0.2331
  150SAPE   O1416540   6.041   5.225   6.218  0.3188  0.0485 -0.1278
  150SAPE   O1216541   6.013   4.986   6.246 -0.1139 -0.5345  0.0672
  150SAPE   O1116542   6.120   5.105   6.418  0.2069  0.3526 -0.0387
  150SAPE    C116543   6.221   5.024   6.482  0.0004 -0.5785  0.1271
  150SAPE    HA16544   6.199   4.918   6.459 -1.9268 -0.5775  1.8021
  150SAPE    HB16545   6.322   5.052   6.445 -0.3748 -0.1106 -0.5522
  150SAPE    C216546   6.222   5.037   6.634 -0.3197  0.2855  0.3962
  150SAPE    HS16547   6.134   4.976   6.664  0.1166 -0.3958  0.3093
  150SAPE   O2116548   6.229   5.181   6.664  0.2055  0.2340 -0.0621
  150SAPE   C2116549   6.139   5.205   6.765 -0.0954 -0.2431 -0.1037
  150SAPE   O2216550   6.054   5.129   6.806  0.3050  0.0307 -0.2538
  150SAPE   C2216551   6.168   5.341   6.822  0.0592  0.7448 -1.2341
  150SAPE   H2R16552   6.274   5.341   6.856 -0.1054  1.1534 -0.7134
  150SAPE   H2S16553   6.152   5.413   6.738 -3.2444  1.0051 -0.4454
  150SAPE    C316554   6.354   4.965   6.678 -0.0660 -0.0572 -0.3592
  150SAPE    HX16555   6.444   5.021   6.644  2.0756 -1.2402  3.0716
  150SAPE    HY16556   6.363   4.864   6.634  3.0796  0.3815 -0.8106
  150SAPE   O3116557   6.350   4.966   6.829  0.1959 -0.3347  0.7609
  150SAPE   C3116558   6.343   4.850   6.893 -0.4484 -0.9834  0.4392
  150SAPE   O3216559   6.327   4.741   6.837  0.0873  0.1972 -0.3828
  150SAPE   C3216560   6.383   4.864   7.035  0.1686 -0.1525 -0.4937
  150SAPE   H2X16561   6.409   4.970   7.055 -3.1996  0.7300 -0.5156
  150SAPE   H2Y16562   6.480   4.810   7.042 -0.6287 -1.7499 -1.4567
  150SAPE   C2316563   6.075   5.389   6.940  0.6410 -0.1612  0.0010
  150SAPE   H3R16564   5.970   5.379   6.906  0.9569  0.7620 -1.3229
  150SAPE   H3S16565   6.079   5.499   6.959  0.9722 -0.5954  2.5848
  150SAPE   C2416566   6.117   5.310   7.066  0.2229  0.2219  0.9865
  150SAPE   H4R16567   6.220   5.337   7.097 -0.1983 -0.5391  3.1398
  150SAPE   H4S16568   6.109   5.200   7.055  1.2347  0.2217  0.1307
  150SAPE   C2516569   6.026   5.347   7.179 -0.4556  0.3610 -0.0754
  150SAPE   H5R16570   5.919   5.358   7.153 -0.5766  1.9349  1.0902
  150SAPE   C2616571   6.055   5.361   7.307  0.5182 -0.4904  0.2153
  150SAPE   H6R16572   5.969   5.391   7.370  1.7821  1.0515  1.2520
  150SAPE   C2716573   6.188   5.344   7.375 -0.2282  0.0645  1.0007
  150SAPE   H7R16574   6.196   5.412   7.462  0.4739 -1.4449  2.1457
  150SAPE   H7S16575   6.272   5.378   7.310  0.3067 -0.1102  1.5983
  150SAPE   C2816576   6.211   5.196   7.425  0.1511 -0.6135 -0.5013
  150SAPE   H8R16577   6.267   5.133   7.354 -0.1125 -1.3545 -0.0534
  150SAPE   C2916578   6.183   5.143   7.543 -0.4856 -0.3168  0.2575
  150SAPE   H9R16579   6.200   5.037   7.562 -2.2593 -0.8350 -0.8920
  150SAPE  C21016580   6.125   5.214   7.660  0.4765  0.5833 -0.0366
  150SAPE  H10R16581   6.024   5.179   7.689 -0.2614  0.1158 -3.1008
  150SAPE  H10S16582   6.102   5.321   7.640 -0.1774  0.6042  0.8008
  150SAPE  C21116583   6.227   5.209   7.774 -0.1408  1.0392 -0.4928
  150SAPE  H11R16584   6.334   5.206   7.748  0.0660 -0.4398  0.4943
  150SAPE  C21216585   6.198   5.222   7.904 -0.2564 -0.4857  0.1842
  150SAPE  H12R16586   6.277   5.209   7.979  0.6850  1.3383 -0.4731
  150SAPE  C21316587   6.064   5.249   7.973 -0.0731  0.2672 -0.9221
  150SAPE  H13R16588   6.070   5.213   8.078 -1.0904  0.5912 -0.7452
  150SAPE  H13S16589   5.985   5.188   7.924  1.6936 -2.2778 -0.6223
  150SAPE  C21416590   6.022   5.397   7.976  0.2647  0.6581 -0.2945
  150SAPE  H14R16591   5.996   5.434   7.876  2.0688  2.2112 -0.2102
  150SAPE  C21516592   6.000   5.482   8.078  0.7826  0.4685 -0.5725
  150SAPE  H15R16593   5.969   5.587   8.063  0.1479  0.8387  2.8561
  150SAPE  C21616594   6.026   5.439   8.223  0.2317 -0.3091 -0.0391
  150SAPE  H16R16595   5.999   5.332   8.239  1.1736 -0.4481  0.6562
  150SAPE  H16S16596   5.953   5.500   8.280  0.7571 -0.4800  0.8218
  150SAPE  C21716597   6.171   5.464   8.261  0.7072 -0.2936 -0.8072
  150SAPE  H17R16598   6.214   5.561   8.226 -0.2677  0.5057  0.1840
  150SAPE  H17S16599   6.230   5.377   8.224 -1.1028 -2.5575  1.5042
  150SAPE  C21816600   6.206   5.451   8.414 -0.4352  0.5608  0.3134
  150SAPE  H18R16601   6.140   5.530   8.456  0.5367  1.5547 -0.0195
  150SAPE  H18S16602   6.315   5.469   8.421 -0.1130 -1.6844  1.5766
  150SAPE  C21916603   6.184   5.313   8.468  0.0626 -0.1437 -0.1460
  150SAPE  H19R16604   6.227   5.233   8.404 -0.5111  1.3599 -2.4534
  150SAPE  H19S16605   6.076   5.295   8.488  0.1790  0.7885  1.3493
  150SAPE  C22016606   6.248   5.309   8.608 -0.0882 -0.2949  0.2037
  150SAPE  H20R16607   6.196   5.381   8.674  0.5463  1.3205 -1.0216
  150SAPE  H20S16608   6.357   5.329   8.616  0.0610 -1.6814  1.7985
  150SAPE  H20T16609   6.234   5.209   8.654 -0.3603  0.0629  0.8954
  150SAPE   C3316610   6.290   4.799   7.142  0.3488 -0.6282 -0.3009
  150SAPE   H3X16611   6.296   4.691   7.117  0.6721 -0.3054 -1.6223
  150SAPE   H3Y16612   6.192   4.849   7.122  0.5281 -0.9447 -2.0590
  150SAPE   C3416613   6.342   4.828   7.284 -0.3448  0.1606  0.3216
  150SAPE   H4X16614   6.327   4.934   7.312 -0.5861  0.3164 -0.3959
  150SAPE   H4Y16615   6.452   4.815   7.282 -0.4739 -1.5855  2.5147
  150SAPE   C3516616   6.278   4.745   7.397  0.3681 -0.0049 -0.2241
  150SAPE   H5X16617   6.297   4.643   7.357 -2.5119 -0.7210  0.0875
  150SAPE   H5Y16618   6.168   4.762   7.405  0.1271 -1.7725  0.3572
  150SAPE   C3616619   6.344   4.778   7.533  0.5959 -0.0543  0.0975
  150SAPE   H6X16620   6.366   4.886   7.548  1.3663 -0.3547  1.2055
  150SAPE   H6Y16621   6.438   4.720   7.525  0.5156 -0.1702 -0.0069
  150SAPE   C3716622   6.265   4.729   7.657 -0.2684 -0.0719 -0.3083
  150SAPE   H7X16623   6.244   4.622   7.638 -0.0501 -0.9581  4.0405
  150SAPE   H7Y16624   6.172   4.790   7.662  0.6541  1.5524 -1.9837
  150SAPE   C3816625   6.349   4.716   7.782  0.1084 -0.7677 -0.0880
  150SAPE   H8X16626   6.388   4.811   7.824  0.8459 -0.3520 -1.6595
  150SAPE   H8Y16627   6.434   4.647   7.764  0.3742 -0.4084 -0.2097
  150SAPE   C3916628   6.266   4.657   7.898 -0.4921 -0.3454  0.5013
  150SAPE   H9X16629   6.332   4.612   7.975 -1.6268 -0.0710  1.6344
  150SAPE   H9Y16630   6.205   4.572   7.860 -0.7013  0.4101 -0.8838
  150SAPE  C31016631   6.177   4.767   7.960 -1.1138 -0.1085  0.3449
  150SAPE  H10X16632   6.097   4.713   8.013  0.7529 -1.5160  1.8068
  150SAPE  H10Y16633   6.131   4.839   7.889  2.9522 -0.3252 -2.7057
  150SAPE  C31116634   6.255   4.829   8.081  0.2086 -0.0665  0.2536
  150SAPE  H11X16635   6.348   4.876   8.042 -0.8474  1.6313 -0.2763
  150SAPE  H11Y16636   6.280   4.744   8.147  0.0992 -2.3167 -2.5239
  150SAPE  C31216637   6.156   4.932   8.158  0.2465 -0.0751  0.3126
  150SAPE  H12X16638   6.060   4.878   8.176  0.3391 -0.9657 -1.6830
  150SAPE  H12Y16639   6.151   5.016   8.085  1.1901 -1.7585 -1.7534
  150SAPE  C31316640   6.219   4.980   8.288 -0.1721  0.2961 -0.6375
  150SAPE  H13X16641   6.153   5.045   8.349  0.3524 -0.1446  0.4339
  150SAPE  H13Y16642   6.317   5.029   8.273  0.0882  0.1815  0.5737
  150SAPE  C31416643   6.245   4.873   8.391  0.0057 -0.3204 -0.5598
  150SAPE  H14X16644   6.344   4.825   8.374 -0.0240 -0.0318 -1.5567
  150SAPE  H14Y16645   6.163   4.799   8.381 -0.0133 -0.0666 -2.3845
  150SAPE  C31516646   6.255   4.920   8.549  0.6534 -0.3444  0.3159
  150SAPE  H15X16647   6.159   4.973   8.564 -0.0261 -0.8989 -1.8880
  150SAPE  H15Y16648   6.335   4.995   8.563 -1.0597  1.4453  0.6958
  150SAPE  C31616649   6.277   4.804   8.641  0.4959  0.4861 -0.1149
  150SAPE  H16X16650   6.312   4.713   8.588 -1.7173  0.1528 -1.0412
  150SAPE  H16Y16651   6.179   4.763   8.671  1.6265 -1.9207  0.4181
  150SAPE  C31716652   6.363   4.826   8.761 -0.4181 -0.3732  0.4082
  150SAPE  H17X16653   6.343   4.742   8.831 -1.5195  0.4216  1.0755
  150SAPE  H17Y16654   6.309   4.906   8.817 -2.7368 -1.9528  0.4939
  150SAPE  C31816655   6.506   4.876   8.747 -0.7344 -0.6919 -0.5279
  150SAPE  H18X16656   6.502   4.982   8.714  1.3862  0.4963  2.7698
  150SAPE  H18Y16657   6.565   4.812   8.677  0.5331  1.0995 -1.1370
  150SAPE  H18Z16658   6.552   4.884   8.847  0.6816 -0.3751 -1.1964
  151SAPE     N16659   1.391   1.727   6.411 -0.8925  0.2228 -1.1035
  151SAPE   HN116660   1.415   1.722   6.512  0.5588  0.9056 -1.4077
  151SAPE   HN216661   1.335   1.811   6.387 -0.3623  0.4449 -1.5833
  151SAPE   HN316662   1.340   1.642   6.380 -1.6700 -0.4810  1.9397
  151SAPE   C1216663   1.526   1.731   6.346  0.1184  0.7334  0.2659
  151SAPE  H12A16664   1.520   1.741   6.236 -0.2628  1.1483  0.3214
  151SAPE  H12B16665   1.596   1.651   6.376  2.0689  1.8459 -1.2292
  151SAPE   C1116666   1.593   1.868   6.373 -0.2763  0.3790 -0.2295
  151SAPE  H11A16667   1.697   1.852   6.337 -0.1557 -0.1209  0.3296
  151SAPE  H11B16668   1.606   1.890   6.481  1.4204  0.2758 -0.3969
  151SAPE     P16669   1.431   2.078   6.368  0.4143 -0.1965 -0.2433
  151SAPE   O1316670   1.407   2.183   6.273  0.4891 -0.5341  0.9930
  151SAPE   O1416671   1.319   1.998   6.418  0.1019  0.2136  1.2496
  151SAPE   O1216672   1.527   1.975   6.303  0.2055 -0.0488  0.3518
  151SAPE   O1116673   1.509   2.136   6.492  0.3062 -0.7261  0.4420
  151SAPE    C116674   1.644   2.164   6.497 -0.1464 -0.5652  0.1364
  151SAPE    HA16675   1.702   2.075   6.528  0.1995 -0.0943  0.8401
  151SAPE    HB16676   1.683   2.197   6.398 -0.9143 -0.9216 -0.2900
  151SAPE    C216677   1.678   2.279   6.593  0.4908 -0.1049  0.5289
  151SAPE    HS16678   1.788   2.289   6.600  0.4909  0.5817 -0.3174
  151SAPE   O2116679   1.615   2.257   6.721  0.4727  0.4239 -0.0803
  151SAPE   C2116680   1.675   2.164   6.792 -0.3602  0.1806  0.5397
  151SAPE   O2216681   1.784   2.111   6.758  0.2648 -0.3035 -0.0106
  151SAPE   C2216682   1.597   2.138   6.922 -0.1977  0.7558  0.3019
  151SAPE   H2R16683   1.627   2.210   7.002  1.5012  0.3015  0.1017
  151SAPE   H2S16684   1.492   2.160   6.893 -0.1229 -0.0266 -0.6064
  151SAPE    C316685   1.626   2.414   6.526  0.0273 -0.3321 -0.3383
  151SAPE    HX16686   1.527   2.398   6.478  0.3083 -1.8981 -0.4386
  151SAPE    HY16687   1.688   2.440   6.438  0.0669 -1.3343 -0.6158
  151SAPE   O3116688   1.620   2.515   6.629  0.2115 -0.0250  0.4785
  151SAPE   C3116689   1.733   2.584   6.639  0.0433  0.4112 -0.0760
  151SAPE   O3216690   1.841   2.550   6.596 -0.7072  0.1706 -0.1010
  151SAPE   C3216691   1.700   2.707   6.721 -0.4688  0.9845 -0.4683
  151SAPE   H2X16692   1.608   2.748   6.675 -0.5887  0.7997 -0.3902
  151SAPE   H2Y16693   1.789   2.772   6.705 -0.2350  0.4743 -1.2466
  151SAPE   C2316694   1.612   1.998   6.977  0.4477 -0.0078  0.2633
  151SAPE   H3R16695   1.716   1.966   6.997 -0.4834 -3.4894 -0.1394
  151SAPE   H3S16696   1.584   1.933   6.891 -0.5327  0.3033  0.3401
  151SAPE   C2416697   1.514   1.962   7.089 -0.3145 -0.1456  0.1997
  151SAPE   H4R16698   1.490   1.856   7.067 -0.8619  0.2354 -1.0834
  151SAPE   H4S16699   1.425   2.025   7.067  0.7420  1.9305  1.7212
  151SAPE   C2516700   1.575   1.991   7.224  0.1881 -0.1087 -0.0910
  151SAPE   H5R16701   1.564   2.094   7.260  0.2074 -0.0338 -0.3006
  151SAPE   C2616702   1.653   1.910   7.296 -0.4583 -0.1757  0.1622
  151SAPE   H6R16703   1.703   1.943   7.388 -1.7018  3.2489 -0.2987
  151SAPE   C2716704   1.691   1.760   7.268 -0.0500  0.0887  0.5722
  151SAPE   H7R16705   1.802   1.759   7.260  0.0819 -1.4128  2.3114
  151SAPE   H7S16706   1.655   1.726   7.168 -1.8691 -1.8176  1.8425
  151SAPE   C2816707   1.646   1.669   7.375 -0.0749 -0.0509 -0.6103
  151SAPE   H8R16708   1.580   1.588   7.340 -0.4789 -0.0908  0.2320
  151SAPE   C2916709   1.674   1.671   7.509  0.5549 -0.2423 -0.9296
  151SAPE   H9R16710   1.645   1.577   7.559 -0.0738  0.5556  0.2158
  151SAPE  C21016711   1.762   1.756   7.589 -0.3546 -0.7228  0.0943
  151SAPE  H10R16712   1.828   1.818   7.525  0.5316  0.4796  2.1241
  151SAPE  H10S16713   1.841   1.692   7.632  0.0830  0.0074  0.3936
  151SAPE  C21116714   1.696   1.847   7.681  0.5848  0.2686  0.3393
  151SAPE  H11R16715   1.673   1.945   7.637 -0.0274  0.4375  1.0190
  151SAPE  C21216716   1.681   1.829   7.814  0.6903 -0.0413 -0.1684
  151SAPE  H12R16717   1.656   1.915   7.878  1.8717 -1.0866  1.7205
  151SAPE  C21316718   1.716   1.707   7.895 -0.4405  0.7003 -0.0548
  151SAPE  H13R16719   1.777   1.734   7.984  2.2105 -3.5606 -0.4435
  151SAPE  H13S16720   1.783   1.638   7.839 -2.2970 -0.5317 -0.7814
  151SAPE  C21416721   1.581   1.647   7.926  0.4766  0.7872 -0.0129
  151SAPE  H14R16722   1.538   1.582   7.849  0.4466 -0.0290  0.6950
  151SAPE  C21516723   1.515   1.664   8.035 -0.1685 -0.1145 -0.3353
  151SAPE  H15R16724   1.438   1.590   8.061 -1.3596  1.0701 -0.4454
  151SAPE  C21616725   1.553   1.756   8.144  0.7304  0.4710 -0.4643
  151SAPE  H16R16726   1.466   1.797   8.199 -0.9201 -0.0640 -2.6188
  151SAPE  H16S16727   1.613   1.841   8.105  1.8181 -0.5558 -1.0602
  151SAPE  C21716728   1.648   1.684   8.238  0.6166  0.3756 -0.2244
  151SAPE  H17R16729   1.749   1.663   8.196  2.3933  3.1437  2.4078
  151SAPE  H17S16730   1.607   1.585   8.266  2.0333  0.1803  1.2247
  151SAPE  C21816731   1.669   1.779   8.362 -0.1804  0.0387  0.8246
  151SAPE  H18R16732   1.572   1.821   8.396 -1.2189  0.0465 -2.0313
  151SAPE  H18S16733   1.718   1.869   8.319 -2.0076  1.7712  2.2719
  151SAPE  C21916734   1.757   1.727   8.471  0.0954 -1.0491 -0.3117
  151SAPE  H19R16735   1.846   1.675   8.431 -0.1685 -0.4093 -1.7677
  151SAPE  H19S16736   1.702   1.647   8.525 -3.3326 -0.1650 -2.3596
  151SAPE  C22016737   1.800   1.845   8.562  0.3514 -0.5683 -0.3698
  151SAPE  H20R16738   1.858   1.921   8.505 -0.2601  1.2943  1.4195
  151SAPE  H20S16739   1.713   1.898   8.607  1.7775  2.1280 -0.6578
  151SAPE  H20T16740   1.858   1.800   8.645  1.4714  0.4504 -0.5973
  151SAPE   C3316741   1.678   2.671   6.870  0.9964 -0.0366 -0.5363
  151SAPE   H3X16742   1.627   2.572   6.880  1.8193 -0.4237 -0.0921
  151SAPE   H3Y16743   1.619   2.754   6.913 -0.3091 -2.6062  2.8292
  151SAPE   C3416744   1.812   2.677   6.949 -0.4987 -0.1661  0.2233
  151SAPE   H4X16745   1.835   2.784   6.969 -1.9655 -0.0511  1.4189
  151SAPE   H4Y16746   1.907   2.642   6.903  1.9332  1.8380  3.5225
  151SAPE   C3516747   1.811   2.603   7.084 -0.1667 -0.4103  1.0905
  151SAPE   H5X16748   1.912   2.599   7.131 -0.2496  0.3945  1.3474
  151SAPE   H5Y16749   1.767   2.502   7.079 -1.0774  0.0256  0.0690
  151SAPE   C3616750   1.733   2.687   7.187 -0.0540 -0.0174 -0.2841
  151SAPE   H6X16751   1.630   2.697   7.146  0.1452 -1.0806 -1.0370
  151SAPE   H6Y16752   1.785   2.785   7.182  3.0537 -1.6008 -0.0965
  151SAPE   C3716753   1.733   2.618   7.320 -0.6158  0.2829  0.2198
  151SAPE   H7X16754   1.838   2.587   7.337 -1.3735 -2.3938  0.1214
  151SAPE   H7Y16755   1.684   2.519   7.316  1.7441 -1.0441  2.4312
  151SAPE   C3816756   1.681   2.699   7.440 -0.3789 -0.4475 -0.3523
  151SAPE   H8X16757   1.570   2.705   7.435 -0.3316 -0.6333 -1.9242
  151SAPE   H8Y16758   1.721   2.803   7.435  0.9060 -0.7741  2.3036
  151SAPE   C3916759   1.706   2.622   7.572 -0.0123 -0.2215  0.0338
  151SAPE   H9X16760   1.814   2.614   7.595  0.3755  0.8568 -1.3507
  151SAPE   H9Y16761   1.665   2.519   7.568 -1.6476  0.4764 -2.6869
  151SAPE  C31016762   1.650   2.684   7.698  0.0706 -0.1336  0.1725
  151SAPE  H10X16763   1.541   2.700   7.680 -0.1752 -0.5516  1.2087
  151SAPE  H10Y16764   1.691   2.786   7.712 -0.1870 -0.1017  0.7176
  151SAPE  C31116765   1.658   2.601   7.826 -0.1005  0.2637 -0.6296
  151SAPE  H11X16766   1.760   2.568   7.853 -0.9390 -1.0744  0.9267
  151SAPE  H11Y16767   1.595   2.512   7.807  0.7414  0.0553 -2.5694
  151SAPE  C31216768   1.586   2.673   7.943  0.0645 -0.5055 -0.2901
  151SAPE  H12X16769   1.482   2.703   7.922  0.6676  0.8767 -1.3778
  151SAPE  H12Y16770   1.643   2.768   7.955 -0.5199 -0.1088 -0.6484
  151SAPE  C31316771   1.594   2.595   8.071  0.1139  0.1074  0.3057
  151SAPE  H13X16772   1.675   2.518   8.076  0.7585  0.8135  0.8067
  151SAPE  H13Y16773   1.509   2.524   8.076 -0.6222  1.1007  2.1203
  151SAPE  C31416774   1.600   2.666   8.203  1.1116 -0.4090 -0.5978
  151SAPE  H14X16775   1.691   2.728   8.198  0.5878  0.3133 -1.1986
  151SAPE  H14Y16776   1.615   2.595   8.287 -0.2754  1.4049  1.2324
  151SAPE  C31516777   1.482   2.752   8.243  0.1790  0.5239  0.0656
  151SAPE  H15X16778   1.394   2.687   8.264 -0.1250  0.3966 -1.5253
  151SAPE  H15Y16779   1.455   2.805   8.149 -2.4072 -1.1927 -0.2255
  151SAPE  C31616780   1.498   2.838   8.364  0.6613  0.1858  0.4500
  151SAPE  H16X16781   1.501   2.759   8.443  2.7708  0.6940  0.9058
  151SAPE  H16Y16782   1.405   2.898   8.371 -0.9455 -2.4116  2.5991
  151SAPE  C31716783   1.614   2.937   8.353 -0.8547  0.0187 -0.3821
  151SAPE  H17X16784   1.604   2.989   8.256 -0.4391  2.7916  1.0196
  151SAPE  H17Y16785   1.709   2.879   8.362  0.1532  1.4623 -1.4816
  151SAPE  C31816786   1.606   3.044   8.464 -0.0539  0.5151  0.4003
  151SAPE  H18X16787   1.640   3.001   8.561 -0.7372  3.5389  2.0539
  151SAPE  H18Y16788   1.509   3.093   8.487 -0.6170 -0.8424  0.9617
  151SAPE  H18Z16789   1.672   3.132   8.448 -1.0388  0.9488 -1.3600
  152SAPE     N16790   4.831   5.863   6.187  0.0452 -0.2437  0.3622
  152SAPE   HN116791   4.779   5.774   6.175  1.8070 -1.1422 -0.6660
  152SAPE   HN216792   4.786   5.922   6.261  1.6421  1.3120  0.1138
  152SAPE   HN316793   4.812   5.923   6.104 -2.5466 -1.9831 -0.3341
  152SAPE   C1216794   4.975   5.834   6.206 -1.2186 -0.0294  0.5564
  152SAPE  H12A16795   5.016   5.785   6.115  1.0224  1.7861  0.5647
  152SAPE  H12B16796   4.985   5.790   6.308 -0.0856  0.9427  0.8687
  152SAPE   C1116797   5.047   5.970   6.206 -0.2940 -1.0763  0.7482
  152SAPE  H11A16798   4.995   6.060   6.246  2.1041  0.5649  0.2538
  152SAPE  H11B16799   5.080   6.000   6.104 -0.7263 -1.8808  0.3673
  152SAPE     P16800   5.298   5.909   6.254 -0.3036 -0.3893  0.0209
  152SAPE   O1316801   5.283   5.814   6.145  0.3930  0.4212  0.5382
  152SAPE   O1416802   5.387   6.024   6.230 -0.0878  0.1432 -0.5728
  152SAPE   O1216803   5.152   5.962   6.297 -0.4054  0.4845 -0.0750
  152SAPE   O1116804   5.345   5.838   6.387  0.7280 -0.3091  0.3196
  152SAPE    C116805   5.258   5.750   6.459 -0.3563 -0.1717 -0.4042
  152SAPE    HA16806   5.166   5.797   6.499 -1.4296  0.3238 -3.3617
  152SAPE    HB16807   5.228   5.659   6.402 -1.8420  0.3757 -0.4962
  152SAPE    C216808   5.328   5.687   6.587 -0.3778  0.3318 -0.0205
  152SAPE    HS16809   5.268   5.597   6.610 -0.1927  0.8945  2.9432
  152SAPE   O2116810   5.342   5.771   6.699 -0.2087 -0.1427  0.0263
  152SAPE   C2116811   5.231   5.782   6.763 -0.0399  0.7415 -0.2373
  152SAPE   O2216812   5.127   5.723   6.738  0.4247  0.3629  0.0663
  152SAPE   C2216813   5.250   5.875   6.882 -0.3007 -0.3570  0.4534
  152SAPE   H2R16814   5.261   5.979   6.845 -2.9974  0.1181  0.8246
  152SAPE   H2S16815   5.156   5.880   6.941 -2.0947 -1.4356 -2.1687
  152SAPE    C316816   5.468   5.630   6.542 -0.1419 -0.0734  0.3129
  152SAPE    HX16817   5.522   5.724   6.519 -0.6285  0.3076  0.7009
  152SAPE    HY16818   5.445   5.563   6.457  1.8106 -1.1325  0.5896
  152SAPE   O3116819   5.530   5.555   6.645  0.0149  0.6520 -0.1259
  152SAPE   C3116820   5.645   5.490   6.615  0.5233  0.8244  0.1241
  152SAPE   O3216821   5.695   5.473   6.502  0.7119  0.2761 -0.1385
  152SAPE   C3216822   5.678   5.425   6.748  0.7135  0.1323  0.3161
  152SAPE   H2X16823   5.705   5.511   6.814  0.0588  1.0470 -0.6041
  152SAPE   H2Y16824   5.775   5.372   6.736  0.3631 -0.4062 -0.1893
  152SAPE   C2316825   5.369   5.833   6.986 -0.2082  0.0143 -0.2683
  152SAPE   H3R16826   5.370   5.920   7.054 -1.1732 -0.1660 -0.0149
  152SAPE   H3S16827   5.468   5.823   6.935 -0.3170  0.5470 -0.5907
  152SAPE   C2416828   5.331   5.716   7.086  0.7560 -0.2936  0.2098
  152SAPE   H4R16829   5.429   5.695   7.135  0.3344 -0.3382  1.0311
  152SAPE   H4S16830   5.305   5.629   7.021 -0.3214 -1.2949  1.9247
  152SAPE   C2516831   5.208   5.735   7.172  1.3745 -0.1517  0.0165
  152SAPE   H5R16832   5.110   5.745   7.122  1.7068  1.4831 -0.3336
  152SAPE   C2616833   5.219   5.758   7.305 -0.2889 -0.2792 -0.0130
  152SAPE   H6R16834   5.129   5.768   7.369 -0.0400 -0.1558  0.3176
  152SAPE   C2716835   5.351   5.753   7.376 -0.1979 -0.5655  0.6322
  152SAPE   H7R16836   5.407   5.844   7.347  0.3631 -1.3470 -0.8565
  152SAPE   H7S16837   5.413   5.672   7.331  1.7989  0.9199  0.6079
  152SAPE   C2816838   5.361   5.733   7.520  0.2421  0.5869 -0.1780
  152SAPE   H8R16839   5.328   5.634   7.556  0.6610  1.1054  1.6432
  152SAPE   C2916840   5.400   5.817   7.613  0.4079 -0.3339 -0.5626
  152SAPE   H9R16841   5.400   5.774   7.715 -1.2704 -2.2779 -1.3522
  152SAPE  C21016842   5.447   5.959   7.610 -0.4875  0.6037  0.4487
  152SAPE  H10R16843   5.502   5.983   7.516 -0.5233  2.3801  0.8705
  152SAPE  H10S16844   5.523   5.972   7.690 -0.0415 -0.6778  0.2463
  152SAPE  C21116845   5.338   6.056   7.636  0.7019 -0.2984  0.8372
  152SAPE  H11R16846   5.298   6.101   7.544 -0.5823 -1.6125  0.7311
  152SAPE  C21216847   5.297   6.106   7.751 -0.5976 -0.1754 -0.1461
  152SAPE  H12R16848   5.218   6.182   7.746  2.1221  2.8128  1.0296
  152SAPE  C21316849   5.358   6.070   7.887  0.8870 -0.4786 -0.3850
  152SAPE  H13R16850   5.456   6.023   7.865  1.7184  1.7691 -1.5711
  152SAPE  H13S16851   5.284   5.998   7.929  0.2869 -0.2348 -1.0130
  152SAPE  C21416852   5.375   6.175   7.987  0.5494 -0.2474 -0.3422
  152SAPE  H14R16853   5.353   6.277   7.951  0.8424  0.1655  0.6382
  152SAPE  C21516854   5.405   6.166   8.114 -0.2847 -0.4275 -0.0030
  152SAPE  H15R16855   5.422   6.257   8.174  0.0755  0.0792 -0.8736
  152SAPE  C21616856   5.422   6.043   8.197  0.0451 -0.2325 -0.0798
  152SAPE  H16R16857   5.507   6.052   8.268 -0.9692  1.2049  0.9857
  152SAPE  H16S16858   5.442   5.951   8.139  2.6178  1.8848 -2.7333
  152SAPE  C21716859   5.292   6.039   8.286 -0.7302  0.2041 -0.1835
  152SAPE  H17R16860   5.274   6.121   8.359 -1.2829 -1.9891  2.1911
  152SAPE  H17S16861   5.328   5.961   8.356  1.5638  1.4660  0.0904
  152SAPE  C21816862   5.152   5.999   8.224  0.7045  0.0933  0.0915
  152SAPE  H18R16863   5.170   5.905   8.166  1.3285  0.7188 -0.7519
  152SAPE  H18S16864   5.123   6.076   8.150 -0.5365 -0.2473  0.2187
  152SAPE  C21916865   5.045   5.993   8.330  0.5544  0.1172  1.1375
  152SAPE  H19R16866   4.943   6.008   8.288  1.8372  1.3074 -1.7197
  152SAPE  H19S16867   5.057   6.084   8.392  4.1890  0.4206  0.0757
  152SAPE  C22016868   5.036   5.861   8.397 -0.9026  0.2685  0.0974
  152SAPE  H20R16869   4.946   5.863   8.463 -0.4495  0.8064  0.7098
  152SAPE  H20S16870   5.123   5.865   8.466  1.4911  1.5241 -2.9116
  152SAPE  H20T16871   5.033   5.769   8.335 -2.6324  0.3042  0.1129
  152SAPE   C3316872   5.586   5.308   6.790 -0.3044 -0.2393 -0.1631
  152SAPE   H3X16873   5.649   5.227   6.834  1.2929  0.5417 -0.9530
  152SAPE   H3Y16874   5.544   5.262   6.698  1.1549  1.2583 -1.6187
  152SAPE   C3416875   5.478   5.358   6.890 -0.0175 -0.7378 -0.3700
  152SAPE   H4X16876   5.414   5.276   6.929  0.7802 -0.5504  1.3621
  152SAPE   H4Y16877   5.413   5.436   6.846 -1.1640 -1.3046  0.3117
  152SAPE   C3516878   5.535   5.417   7.014  0.1999  0.0762  0.6195
  152SAPE   H5X16879   5.451   5.461   7.073 -2.3227 -1.9156 -1.3755
  152SAPE   H5Y16880   5.607   5.496   6.985 -0.1646  0.3955  0.5800
  152SAPE   C3616881   5.607   5.335   7.108  1.0186  0.1611 -0.5351
  152SAPE   H6X16882   5.683   5.279   7.051  0.6740  0.3244 -1.1539
  152SAPE   H6Y16883   5.530   5.264   7.145  0.7477  0.7004 -0.0530
  152SAPE   C3716884   5.661   5.401   7.236 -0.0846  0.4189 -0.3740
  152SAPE   H7X16885   5.584   5.463   7.287 -0.3556  0.3348 -0.6815
  152SAPE   H7Y16886   5.748   5.468   7.219 -0.8124  1.5177  0.1625
  152SAPE   C3816887   5.701   5.282   7.334  0.1164 -0.5133 -0.3708
  152SAPE   H8X16888   5.795   5.234   7.301  1.1465  0.8708  0.4913
  152SAPE   H8Y16889   5.618   5.208   7.331 -0.7555  0.4573 -0.6320
  152SAPE   C3916890   5.722   5.338   7.473  0.4422  0.8492  0.5121
  152SAPE   H9X16891   5.637   5.405   7.497 -0.2663  0.2226 -0.2279
  152SAPE   H9Y16892   5.804   5.410   7.491  0.2284  1.1093  0.4614
  152SAPE  C31016893   5.724   5.229   7.586 -0.8329 -0.1365  0.8324
  152SAPE  H10X16894   5.804   5.157   7.559  0.6094  2.2927 -1.5446
  152SAPE  H10Y16895   5.626   5.177   7.584 -1.0303  0.2788 -1.5401
  152SAPE  C31116896   5.748   5.291   7.718  0.0570  0.3495 -0.0447
  152SAPE  H11X16897   5.850   5.333   7.708  0.7344 -1.4252 -0.8840
  152SAPE  H11Y16898   5.757   5.205   7.788  2.7291  1.6106  1.2217
  152SAPE  C31216899   5.643   5.390   7.759  0.1649 -0.0432  0.6928
  152SAPE  H12X16900   5.542   5.345   7.753  1.0830 -2.1799  1.0494
  152SAPE  H12Y16901   5.632   5.475   7.687 -0.5510 -1.2811 -0.6793
  152SAPE  C31316902   5.655   5.454   7.899  0.1284 -0.2166 -0.1399
  152SAPE  H13X16903   5.759   5.494   7.909 -0.1236  0.1804  1.0730
  152SAPE  H13Y16904   5.640   5.376   7.977 -0.2307 -0.9710 -0.9672
  152SAPE  C31416905   5.559   5.572   7.924  0.4632  0.3553  0.2447
  152SAPE  H14X16906   5.454   5.537   7.915  0.1442  1.2640  0.4535
  152SAPE  H14Y16907   5.576   5.632   7.833  2.6901 -3.0822 -1.7331
  152SAPE  C31516908   5.584   5.656   8.049  0.4502 -0.0485  0.0393
  152SAPE  H15X16909   5.515   5.743   8.055  0.8873  0.2498  0.8606
  152SAPE  H15Y16910   5.686   5.700   8.036  1.2165 -1.8083 -0.0158
  152SAPE  C31616911   5.587   5.575   8.185  0.2287 -0.2507  0.1218
  152SAPE  H16X16912   5.671   5.502   8.181  0.5754  0.2641 -2.3824
  152SAPE  H16Y16913   5.499   5.507   8.190  0.4349 -0.5730 -0.5562
  152SAPE  C31716914   5.607   5.675   8.300 -0.0633 -0.5914  0.5384
  152SAPE  H17X16915   5.525   5.749   8.315 -1.0416 -1.8918  1.8310
  152SAPE  H17Y16916   5.695   5.738   8.278 -0.7602 -0.0412 -0.7077
  152SAPE  C31816917   5.618   5.604   8.434 -0.2288 -0.1885 -1.1928
  152SAPE  H18X16918   5.528   5.539   8.434  0.0338 -0.5553 -2.9017
  152SAPE  H18Y16919   5.612   5.679   8.516 -0.8693 -1.2380 -0.2578
  152SAPE  H18Z16920   5.704   5.534   8.437  0.6080  0.8455 -0.8426
  153SAPE     N16921   2.116   5.659   6.308 -0.2532  0.8143 -0.5585
  153SAPE   HN116922   2.103   5.761   6.319 -2.3360  0.3671  1.5109
  153SAPE   HN216923   2.187   5.645   6.384  0.2594  1.4771 -0.9184
  153SAPE   HN316924   2.159   5.637   6.216  1.1827  1.4026 -0.0464
  153SAPE   C1216925   1.980   5.600   6.317  0.4050 -0.6437 -0.1111
  153SAPE  H12A16926   1.957   5.572   6.422  0.1955  0.1336  0.0500
  153SAPE  H12B16927   1.987   5.514   6.246  0.0169 -0.2598 -0.6152
  153SAPE   C1116928   1.878   5.691   6.249  0.0279  0.0723  0.3276
  153SAPE  H11A16929   1.777   5.644   6.244  1.0613 -2.3299  1.0636
  153SAPE  H11B16930   1.900   5.713   6.143  0.5253 -1.0752  0.1768
  153SAPE     P16931   1.794   5.938   6.289  0.0685 -0.0156  0.1179
  153SAPE   O1316932   1.847   6.000   6.166 -0.3036  0.2423  0.0387
  153SAPE   O1416933   1.663   5.881   6.277  0.2152  0.3328 -0.0962
  153SAPE   O1216934   1.883   5.812   6.324 -0.2442 -0.0019 -0.1773
  153SAPE   O1116935   1.810   6.045   6.395 -0.1853 -0.5078 -0.3323
  153SAPE    C116936   1.911   6.067   6.495 -0.5693  0.0467  0.1301
  153SAPE    HA16937   1.976   5.977   6.491 -1.0760 -0.2802 -0.9988
  153SAPE    HB16938   1.987   6.142   6.464 -0.5881  0.3176  0.7356
  153SAPE    C216939   1.864   6.075   6.648  0.1173  0.5797 -0.2687
  153SAPE    HS16940   1.787   6.152   6.666  1.2994  1.5114  0.9617
  153SAPE   O2116941   1.970   6.112   6.740  0.3408  0.0598  0.6638
  153SAPE   C2116942   2.001   6.239   6.729 -0.7757  0.0606  0.5129
  153SAPE   O2216943   1.954   6.324   6.652 -0.1483 -0.3138 -0.1303
  153SAPE   C2216944   2.121   6.267   6.820 -0.3802  0.4490  0.4775
  153SAPE   H2R16945   2.158   6.181   6.880  0.3147  1.6617  1.8240
  153SAPE   H2S16946   2.200   6.292   6.746 -0.4917  1.7406  0.7984
  153SAPE    C316947   1.810   5.938   6.691  0.9471 -0.0059 -0.3285
  153SAPE    HX16948   1.881   5.854   6.679  1.2069 -0.2334  2.4969
  153SAPE    HY16949   1.713   5.915   6.642  1.3061 -3.6372  0.5658
  153SAPE   O3116950   1.779   5.940   6.834  0.1573 -0.0109 -0.0137
  153SAPE   C3116951   1.669   5.996   6.879  0.6707  0.1585  0.1643
  153SAPE   O3216952   1.586   6.042   6.812 -0.0321  0.3436 -0.0520
  153SAPE   C3216953   1.667   5.977   7.029  0.2591  0.4600  0.2369
  153SAPE   H2X16954   1.760   5.937   7.074  0.2130  0.7282  0.5789
  153SAPE   H2Y16955   1.592   5.899   7.054 -0.4275  0.3412 -2.1059
  153SAPE   C2316956   2.114   6.393   6.908  0.5485 -0.4053  0.5554
  153SAPE   H3R16957   2.035   6.466   6.881  0.9929 -0.7168 -1.7000
  153SAPE   H3S16958   2.213   6.441   6.887  0.2616  0.1347  0.4386
  153SAPE   C2416959   2.112   6.370   7.059 -0.3178  0.4847  0.1252
  153SAPE   H4R16960   2.121   6.472   7.101 -0.8008  1.1893 -1.4173
  153SAPE   H4S16961   2.193   6.301   7.091 -1.5070 -0.7565  0.5262
  153SAPE   C2516962   1.980   6.300   7.095 -0.4763 -0.1038 -0.5408
  153SAPE   H5R16963   1.917   6.258   7.015  0.1199 -0.9399 -0.5830
  153SAPE   C2616964   1.952   6.274   7.228  0.1842  0.0777 -0.8133
  153SAPE   H6R16965   1.850   6.242   7.255  0.8827 -0.0004  1.8022
  153SAPE   C2716966   2.029   6.301   7.356 -0.1294 -0.7988 -0.4283
  153SAPE   H7R16967   1.989   6.385   7.416 -1.4484 -0.6863 -1.4525
  153SAPE   H7S16968   2.133   6.321   7.323  0.8331 -2.9805  1.1256
  153SAPE   C2816969   2.026   6.179   7.440  0.3280 -0.2528 -0.3047
  153SAPE   H8R16970   2.120   6.123   7.431 -0.2662 -1.5611  1.2807
  153SAPE   C2916971   1.942   6.158   7.541 -0.0509  0.2637  0.0803
  153SAPE   H9R16972   1.946   6.061   7.594  0.4784  0.1974 -0.0828
  153SAPE  C21016973   1.824   6.241   7.569 -0.1499 -0.2012  0.1932
  153SAPE  H10R16974   1.746   6.163   7.582  0.5979 -1.2402 -1.3196
  153SAPE  H10S16975   1.801   6.308   7.483 -1.5522 -1.0727 -0.1385
  153SAPE  C21116976   1.854   6.340   7.685  0.1450 -0.0115  0.2697
  153SAPE  H11R16977   1.912   6.429   7.658 -0.3587 -0.1930 -1.4701
  153SAPE  C21216978   1.814   6.329   7.813 -0.1084  0.4180  0.3077
  153SAPE  H12R16979   1.862   6.400   7.882  1.2569 -1.3317  1.2060
  153SAPE  C21316980   1.743   6.216   7.882  0.4291  0.3554 -0.2066
  153SAPE  H13R16981   1.813   6.159   7.946  0.3845  0.9412  0.3665
  153SAPE  H13S16982   1.699   6.141   7.813  0.7210  0.3260 -0.3600
  153SAPE  C21416983   1.631   6.265   7.967 -0.4141 -0.4876  0.1670
  153SAPE  H14R16984   1.564   6.341   7.924  2.0718  1.5180 -0.3390
  153SAPE  C21516985   1.594   6.207   8.080 -1.3355 -0.3768  0.3961
  153SAPE  H15R16986   1.510   6.245   8.140 -2.6944 -1.2464 -0.9291
  153SAPE  C21616987   1.653   6.092   8.159  0.7693  0.6042 -1.4048
  153SAPE  H16R16988   1.729   6.037   8.099  1.2811  2.1503 -2.2189
  153SAPE  H16S16989   1.564   6.027   8.172  1.4142  0.5108  3.5225
  153SAPE  C21716990   1.698   6.143   8.297 -0.5805 -0.4914  0.0546
  153SAPE  H17R16991   1.606   6.172   8.352  0.7368  0.7087  1.6630
  153SAPE  H17S16992   1.757   6.236   8.290 -1.2482 -0.0305  0.4742
  153SAPE  C21816993   1.770   6.039   8.376  0.2837  0.8925 -0.5816
  153SAPE  H18R16994   1.837   6.098   8.443  0.0575  0.2679  0.1995
  153SAPE  H18S16995   1.833   5.970   8.316 -0.3730 -1.1610  1.0150
  153SAPE  C21916996   1.681   5.961   8.464 -0.8794  0.4147  0.0600
  153SAPE  H19R16997   1.648   5.879   8.397 -0.9761  1.2507 -0.9187
  153SAPE  H19S16998   1.591   6.015   8.500 -0.2880  0.9906  0.7111
  153SAPE  C22016999   1.742   5.894   8.581 -0.1046  0.3847 -0.1709
  153SAPE  H20R17000   1.664   5.837   8.636 -0.6270  1.9628  0.7922
  153SAPE  H20S17001   1.801   5.971   8.637 -0.0333  0.7200 -0.7060
  153SAPE  H20T17002   1.819   5.818   8.554 -0.9263 -0.5165  0.0056
  153SAPE   C3317003   1.628   6.120   7.088  1.1376  0.0680 -0.0359
  153SAPE   H3X17004   1.524   6.140   7.056  0.3626  2.2979  3.6615
  153SAPE   H3Y17005   1.701   6.195   7.051 -0.1401  1.1263 -0.4705
  153SAPE   C3417006   1.639   6.113   7.245 -0.0600  0.2686  0.3623
  153SAPE   H4X17007   1.624   6.213   7.292 -1.1252  0.7157 -0.8729
  153SAPE   H4Y17008   1.738   6.071   7.273 -0.3685 -1.8570 -1.6027
  153SAPE   C3517009   1.530   6.026   7.302  0.5915  0.4257  0.6832
  153SAPE   H5X17010   1.541   5.924   7.260  0.0570 -0.5957  2.9677
  153SAPE   H5Y17011   1.432   6.062   7.264  2.6055  3.5837 -1.7408
  153SAPE   C3617012   1.537   6.017   7.460 -0.9096 -0.2280 -0.0501
  153SAPE   H6X17013   1.540   6.113   7.515 -0.7304 -0.4145  0.2680
  153SAPE   H6Y17014   1.633   5.964   7.480 -0.1047 -0.5062 -4.1959
  153SAPE   C3717015   1.416   5.944   7.524  0.6665  1.1612  0.4227
  153SAPE   H7X17016   1.444   5.840   7.495  0.8739  0.4486  3.0118
  153SAPE   H7Y17017   1.323   5.972   7.470  0.1175  0.4753  0.9964
  153SAPE   C3817018   1.411   5.963   7.676  0.6847  0.6454 -0.2770
  153SAPE   H8X17019   1.308   5.971   7.716  0.6684 -1.1133  0.1182
  153SAPE   H8Y17020   1.464   6.055   7.707  0.6446  0.1239  1.4203
  153SAPE   C3917021   1.478   5.855   7.756 -0.1397 -0.1715 -0.8448
  153SAPE   H9X17022   1.587   5.861   7.734 -0.0488 -2.4140 -1.1937
  153SAPE   H9Y17023   1.440   5.753   7.733  2.3445 -2.2554  3.6471
  153SAPE  C31017024   1.451   5.854   7.906 -0.1985 -0.3862 -0.5953
  153SAPE  H10X17025   1.344   5.871   7.929 -0.2957 -1.7812 -0.0325
  153SAPE  H10Y17026   1.510   5.930   7.962  2.2087 -2.4321 -0.2983
  153SAPE  C31117027   1.478   5.713   7.971 -0.3286 -0.8508  0.1337
  153SAPE  H11X17028   1.554   5.645   7.927  0.4882 -1.8219  2.8875
  153SAPE  H11Y17029   1.381   5.662   7.949 -0.0383 -0.7940 -1.3238
  153SAPE  C31217030   1.495   5.711   8.117 -0.6540  0.5151 -0.1245
  153SAPE  H12X17031   1.402   5.761   8.155 -0.5268  1.6846 -1.3138
  153SAPE  H12Y17032   1.573   5.789   8.131  2.0262 -2.3586  1.4730
  153SAPE  C31317033   1.536   5.577   8.173  0.5167 -0.2793 -0.1312
  153SAPE  H13X17034   1.581   5.506   8.100  1.7020 -1.7973  2.0386
  153SAPE  H13Y17035   1.438   5.531   8.201 -0.3565  0.7195 -1.4941
  153SAPE  C31417036   1.618   5.585   8.297  0.1445  0.0618 -0.0572
  153SAPE  H14X17037   1.566   5.634   8.382  1.3766 -1.4876  1.6133
  153SAPE  H14Y17038   1.709   5.642   8.269 -0.0591 -0.2422 -1.3694
  153SAPE  C31517039   1.680   5.453   8.341 -0.7161 -0.2599  0.1608
  153SAPE  H15X17040   1.740   5.414   8.257  3.9483 -0.8785  3.5599
  153SAPE  H15Y17041   1.597   5.381   8.359 -0.7400 -0.5978 -1.2880
  153SAPE  C31617042   1.757   5.468   8.467 -0.7132 -0.2408  0.3413
  153SAPE  H16X17043   1.695   5.503   8.553  0.9779  0.3573  1.3523
  153SAPE  H16Y17044   1.838   5.543   8.461  1.0323 -2.1802 -1.2412
  153SAPE  C31717045   1.813   5.333   8.522 -0.4290  0.1411  0.1543
  153SAPE  H17X17046   1.855   5.283   8.432  0.0757  0.6853  0.0902
  153SAPE  H17Y17047   1.733   5.266   8.562 -0.8622  0.7749  0.3577
  153SAPE  C31817048   1.918   5.353   8.622 -0.6689  0.1982  0.9023
  153SAPE  H18X17049   1.868   5.376   8.719  1.1792  0.3833  1.8304
  153SAPE  H18Y17050   1.992   5.434   8.604 -1.8518  1.0059 -0.4486
  153SAPE  H18Z17051   1.986   5.266   8.633  0.2805  0.8568  0.2949
  154SAPE     N17052   5.971   5.590   6.428  0.8477 -0.1543 -0.0591
  154SAPE   HN117053   5.952   5.488   6.435  2.3418 -0.3695  1.1647
  154SAPE   HN217054   6.045   5.620   6.495  0.6672  2.4160 -0.9833
  154SAPE   HN317055   5.890   5.647   6.458 -0.7310 -1.6554 -1.3917
  154SAPE   C1217056   6.005   5.613   6.286  0.1350  0.2200  0.5754
  154SAPE  H12A17057   5.943   5.701   6.259 -0.9292 -0.0890  1.9655
  154SAPE  H12B17058   5.972   5.520   6.234 -1.8062  1.6405 -0.8439
  154SAPE   C1117059   6.154   5.648   6.267  0.7232 -0.5248  0.4820
  154SAPE  H11A17060   6.185   5.742   6.317 -1.8506  0.1940  0.8243
  154SAPE  H11B17061   6.165   5.661   6.157  3.2264  2.8487  1.0799
  154SAPE     P17062   6.378   5.507   6.245  0.0681  0.1813  0.6650
  154SAPE   O1317063   6.350   5.404   6.140 -0.9767 -0.5219  0.1707
  154SAPE   O1417064   6.451   5.628   6.202  0.4433 -0.6826 -0.0472
  154SAPE   O1217065   6.237   5.549   6.321 -0.3992  0.0208 -0.1442
  154SAPE   O1117066   6.449   5.442   6.359 -0.2546 -0.1701  0.5423
  154SAPE    C117067   6.405   5.430   6.493 -0.0719  0.0928  0.3547
  154SAPE    HA17068   6.374   5.529   6.533  1.4924  0.5758  0.4066
  154SAPE    HB17069   6.323   5.355   6.499 -0.4586  0.4350 -0.7220
  154SAPE    C217070   6.518   5.368   6.573 -0.4916  0.1598  0.4611
  154SAPE    HS17071   6.483   5.324   6.669 -0.1783 -2.6369 -0.6510
  154SAPE   O2117072   6.621   5.465   6.601 -0.2659  0.7275  0.4077
  154SAPE   C2117073   6.628   5.518   6.720  0.0110 -0.1723 -0.3921
  154SAPE   O2217074   6.552   5.507   6.814  0.0047  0.0937 -0.3491
  154SAPE   C2217075   6.733   5.625   6.702 -0.2368  0.0284 -0.1037
  154SAPE   H2R17076   6.817   5.566   6.659  1.8416  1.8102  1.4528
  154SAPE   H2S17077   6.689   5.703   6.636  0.6517  1.3652  0.8641
  154SAPE    C317078   6.583   5.244   6.495  0.0023 -0.5893 -0.7749
  154SAPE    HX17079   6.639   5.274   6.405  0.1778  0.9713 -0.1686
  154SAPE    HY17080   6.503   5.186   6.446 -1.1023  2.5158 -2.7919
  154SAPE   O3117081   6.642   5.151   6.581 -0.2686 -0.0904 -0.5145
  154SAPE   C3117082   6.757   5.164   6.635  0.0471  0.2459 -0.4130
  154SAPE   O3217083   6.832   5.259   6.619  0.0133 -0.1866  0.5530
  154SAPE   C3217084   6.792   5.043   6.729 -0.1873 -0.3708  0.2320
  154SAPE   H2X17085   6.893   5.006   6.702  0.1624  0.4936  0.3391
  154SAPE   H2Y17086   6.717   4.966   6.702 -1.1025  0.5093  0.2171
  154SAPE   C2317087   6.788   5.687   6.840 -0.0305  0.4569  0.2783
  154SAPE   H3R17088   6.857   5.625   6.901  2.3566  2.3764 -0.3886
  154SAPE   H3S17089   6.700   5.713   6.903 -0.1479  1.6484 -0.3673
  154SAPE   C2417090   6.859   5.826   6.814  0.7577  0.1988  0.5476
  154SAPE   H4R17091   6.874   5.881   6.908 -2.1368  2.8672 -0.4598
  154SAPE   H4S17092   6.783   5.878   6.751  2.7499  0.1587 -1.9702
  154SAPE   C2517093   6.993   5.814   6.731  0.5364  0.8089 -0.1747
  154SAPE   H5R17094   6.980   5.786   6.626  1.0990  1.2829 -0.3707
  154SAPE   C2617095   7.115   5.848   6.783 -0.4468  0.4032 -0.2909
  154SAPE   H6R17096   7.198   5.836   6.711 -2.2369  2.5312 -2.7993
  154SAPE   C2717097   7.143   5.906   6.924  0.8216  0.8428  0.2547
  154SAPE   H7R17098   7.053   5.963   6.957  1.1038  1.4077  0.0478
  154SAPE   H7S17099   7.206   5.997   6.915  1.7754  0.3054  1.4057
  154SAPE   C2817100   7.195   5.820   7.037 -0.2911 -0.2169  0.2338
  154SAPE   H8R17101   7.298   5.792   7.009 -0.7877 -0.2321 -1.7020
  154SAPE   C2917102   7.144   5.777   7.153 -0.1561 -0.5809  0.1749
  154SAPE   H9R17103   7.202   5.714   7.222  0.5593  0.1993  0.3034
  154SAPE  C21017104   7.005   5.816   7.205 -0.2216  0.2714 -0.1972
  154SAPE  H10R17105   6.949   5.886   7.139 -0.3986  0.5134  0.2064
  154SAPE  H10S17106   7.015   5.866   7.304  1.2526 -0.2680 -0.0597
  154SAPE  C21117107   6.936   5.679   7.212 -0.3045  0.6755  0.8673
  154SAPE  H11R17108   6.912   5.633   7.115 -1.9674  1.7261  0.7653
  154SAPE  C21217109   6.906   5.610   7.322  0.0950  0.2782 -0.3763
  154SAPE  H12R17110   6.859   5.511   7.312  1.2697 -0.5274  1.7747
  154SAPE  C21317111   6.930   5.647   7.464 -0.1966 -0.5987  0.3807
  154SAPE  H13R17112   6.834   5.627   7.517  0.8507 -1.8002  1.8496
  154SAPE  H13S17113   6.960   5.754   7.474  0.3780 -0.8387  1.2618
  154SAPE  C21417114   7.016   5.547   7.536  0.1015  0.1634  0.1610
  154SAPE  H14R17115   7.076   5.490   7.464  0.8398  0.3279  0.6474
  154SAPE  C21517116   7.048   5.547   7.662  0.5332 -0.1138 -0.0866
  154SAPE  H15R17117   7.089   5.454   7.705 -2.0416 -1.6190 -0.7673
  154SAPE  C21617118   6.988   5.636   7.773  0.0627  0.6499 -0.9445
  154SAPE  H16R17119   6.882   5.661   7.749 -0.6949 -1.0930  0.5076
  154SAPE  H16S17120   7.052   5.727   7.774  0.6277  0.2873 -2.5447
  154SAPE  C21717121   6.980   5.583   7.914  0.5442 -0.3559 -0.2359
  154SAPE  H17R17122   6.918   5.492   7.901  1.3410 -1.0140  0.5298
  154SAPE  H17S17123   6.923   5.654   7.977  1.3644  0.5187 -0.4730
  154SAPE  C21817124   7.115   5.548   7.975 -0.1373  0.5430  0.3700
  154SAPE  H18R17125   7.177   5.638   7.994 -1.3571  0.9826  2.4403
  154SAPE  H18S17126   7.169   5.497   7.892  2.4015 -1.6187  3.1961
  154SAPE  C21917127   7.101   5.461   8.097  0.0888 -0.7406  0.5940
  154SAPE  H19R17128   7.048   5.365   8.081  1.8230 -1.8826  1.5590
  154SAPE  H19S17129   7.055   5.510   8.185 -3.0252 -2.6820  0.1312
  154SAPE  C22017130   7.235   5.406   8.151 -0.0733 -0.2870 -0.2084
  154SAPE  H20R17131   7.297   5.488   8.193  1.6272 -1.0908 -1.1135
  154SAPE  H20S17132   7.292   5.362   8.067  0.6095  0.9282 -0.3882
  154SAPE  H20T17133   7.228   5.332   8.234 -0.2697 -0.3377 -0.2689
  154SAPE   C3317134   6.784   5.092   6.874  0.0758  0.1797 -0.6565
  154SAPE   H3X17135   6.832   5.191   6.889  0.1552 -0.1163  1.2522
  154SAPE   H3Y17136   6.831   5.016   6.940 -0.5552  0.5744  0.2683
  154SAPE   C3417137   6.641   5.112   6.931 -0.9960  0.0444  0.0478
  154SAPE   H4X17138   6.588   5.017   6.905 -0.6395  0.3254 -1.7798
  154SAPE   H4Y17139   6.602   5.199   6.875  0.7100  1.6364  1.2614
  154SAPE   C3517140   6.636   5.142   7.088  0.5831 -1.2833  0.8599
  154SAPE   H5X17141   6.528   5.149   7.114  0.0891  0.6305 -1.4622
  154SAPE   H5Y17142   6.672   5.246   7.105  1.0565 -1.4661  0.9859
  154SAPE   C3617143   6.709   5.055   7.187  0.3025  0.0603  0.1568
  154SAPE   H6X17144   6.815   5.051   7.154  0.1682 -0.0575 -0.2576
  154SAPE   H6Y17145   6.669   4.951   7.183 -0.7016  0.4433  0.0411
  154SAPE   C3717146   6.699   5.100   7.334  0.0870  0.1949 -0.2378
  154SAPE   H7X17147   6.592   5.123   7.351 -0.5233 -2.3690 -0.3920
  154SAPE   H7Y17148   6.764   5.189   7.323 -0.2263  0.3983 -0.4781
  154SAPE   C3817149   6.776   5.008   7.423  0.7196  0.2461  0.6027
  154SAPE   H8X17150   6.876   4.989   7.377 -0.2780 -4.4883  0.1942
  154SAPE   H8Y17151   6.733   4.906   7.417  1.6024 -0.1026 -0.0761
  154SAPE   C3917152   6.777   5.044   7.569 -0.3987 -0.4749 -0.4226
  154SAPE   H9X17153   6.829   5.142   7.568 -1.3219  0.0245  0.2860
  154SAPE   H9Y17154   6.838   4.967   7.621  0.1014  0.3031  0.1543
  154SAPE  C31017155   6.641   5.046   7.632 -0.5348 -0.1877  1.0309
  154SAPE  H10X17156   6.573   4.978   7.578  1.9694 -0.8147 -1.4402
  154SAPE  H10Y17157   6.608   5.152   7.623 -0.3205 -0.2350 -0.4421
  154SAPE  C31117158   6.636   5.003   7.780 -0.3689 -0.0208  0.2950
  154SAPE  H11X17159   6.689   4.908   7.801 -2.1542 -0.6562  1.9790
  154SAPE  H11Y17160   6.532   4.997   7.818 -0.0482  1.3581  1.4367
  154SAPE  C31217161   6.702   5.108   7.869  0.5569 -0.0547 -0.3822
  154SAPE  H12X17162   6.636   5.194   7.895 -0.9652 -0.8641 -1.5413
  154SAPE  H12Y17163   6.793   5.158   7.829  2.7967 -2.2385  1.7944
  154SAPE  C31317164   6.752   5.055   8.003  0.1118  0.8700 -0.4951
  154SAPE  H13X17165   6.772   5.140   8.071  0.5003  0.2456  0.1694
  154SAPE  H13Y17166   6.845   4.996   7.990 -0.8963 -0.5764 -1.3143
  154SAPE  C31417167   6.646   4.964   8.075 -0.5091  0.0270  0.1504
  154SAPE  H14X17168   6.612   4.880   8.010  1.5587 -1.7067  1.2341
  154SAPE  H14Y17169   6.560   5.030   8.101 -0.1168 -0.1748  2.0154
  154SAPE  C31517170   6.709   4.901   8.199  0.4191  0.7281  0.6644
  154SAPE  H15X17171   6.776   4.973   8.250  1.5226  0.6834 -0.7021
  154SAPE  H15Y17172   6.779   4.824   8.159 -0.5695 -0.3038  0.8877
  154SAPE  C31617173   6.600   4.847   8.288  0.0551 -0.9205 -0.2157
  154SAPE  H16X17174   6.537   4.776   8.231 -0.3348 -0.9198  0.2118
  154SAPE  H16Y17175   6.539   4.934   8.320  0.6473 -0.1665 -1.1462
  154SAPE  C31717176   6.682   4.792   8.409 -0.0914  0.1159  0.4401
  154SAPE  H17X17177   6.596   4.765   8.475  1.9610 -1.5917  2.4911
  154SAPE  H17Y17178   6.739   4.882   8.443  0.6979 -0.3388  0.3232
  154SAPE  C31817179   6.767   4.669   8.393  0.5444  0.3948 -0.3128
  154SAPE  H18X17180   6.859   4.688   8.333 -1.6841 -0.6867 -4.2847
  154SAPE  H18Y17181   6.717   4.582   8.345  0.6915  0.7382 -1.0963
  154SAPE  H18Z17182   6.799   4.629   8.491 -1.6417  1.9613  1.0759
  155SAPE     N17183   6.723   6.656   6.081 -0.3089 -0.6236  0.4200
  155SAPE   HN117184   6.815   6.630   6.123 -0.9802  2.4716  4.0535
  155SAPE   HN217185   6.755   6.704   5.995 -3.7167 -1.1156 -1.1868
  155SAPE   HN317186   6.684   6.737   6.135  1.0760 -0.3800  1.0877
  155SAPE   C1217187   6.621   6.545   6.075 -0.5048 -0.3567  0.1842
  155SAPE  H12A17188   6.683   6.470   6.020 -0.7887  0.4231 -1.2221
  155SAPE  H12B17189   6.539   6.568   6.005 -0.6020 -0.4549  0.2661
  155SAPE   C1117190   6.566   6.517   6.214 -0.4534 -0.3830  0.8929
  155SAPE  H11A17191   6.656   6.473   6.262 -0.5132 -0.8884  0.5451
  155SAPE  H11B17192   6.487   6.441   6.194  1.4909 -2.3866  0.6683
  155SAPE     P17193   6.457   6.652   6.410  0.1820 -0.2076  0.1968
  155SAPE   O1317194   6.430   6.794   6.435 -1.5094 -0.0524 -0.7629
  155SAPE   O1417195   6.342   6.561   6.428 -0.1422  0.5627 -0.4309
  155SAPE   O1217196   6.515   6.643   6.266 -0.2560  0.2112  0.0795
  155SAPE   O1117197   6.585   6.602   6.487 -0.0681 -0.6828  0.9003
  155SAPE    C117198   6.710   6.661   6.475 -0.2825  0.2778  0.2299
  155SAPE    HA17199   6.784   6.592   6.430 -0.1159  0.9527 -0.5633
  155SAPE    HB17200   6.712   6.756   6.418  1.3955  1.0981  1.6345
  155SAPE    C217201   6.758   6.722   6.611  0.5810  0.0769  0.1585
  155SAPE    HS17202   6.828   6.806   6.591 -0.1053  0.9043  1.1381
  155SAPE   O2117203   6.806   6.613   6.691  0.0989 -0.3408 -0.0602
  155SAPE   C2117204   6.929   6.633   6.751 -0.2105 -0.3005 -0.6865
  155SAPE   O2217205   6.997   6.733   6.745 -0.3330 -0.9947 -0.1022
  155SAPE   C2217206   6.969   6.509   6.835 -0.5577  0.0125  0.1016
  155SAPE   H2R17207   6.886   6.486   6.905 -2.3705 -0.4711 -2.1680
  155SAPE   H2S17208   6.982   6.427   6.761 -1.0510  0.0911 -0.0707
  155SAPE    C317209   6.642   6.789   6.697  0.4608 -0.1259 -0.5189
  155SAPE    HX17210   6.572   6.704   6.712  1.5320 -0.6213  1.9088
  155SAPE    HY17211   6.593   6.871   6.639  2.0244  1.6582  0.6015
  155SAPE   O3117212   6.702   6.846   6.810 -0.1028 -0.4540 -0.3082
  155SAPE   C3117213   6.682   6.780   6.929  0.2015 -0.5720 -1.0290
  155SAPE   O3217214   6.633   6.669   6.938 -0.6392 -0.2253  0.2223
  155SAPE   C3217215   6.731   6.861   7.055  0.0753  0.0943 -0.5515
  155SAPE   H2X17216   6.655   6.864   7.136 -0.3516  2.3745 -1.0103
  155SAPE   H2Y17217   6.753   6.965   7.022 -1.1070 -0.1250 -2.0967
  155SAPE   C2317218   7.110   6.521   6.900  0.7597 -0.4816 -0.4862
  155SAPE   H3R17219   7.109   6.603   6.974  1.5491  0.9180 -1.9938
  155SAPE   H3S17220   7.188   6.535   6.822 -0.4201  0.2972 -1.5477
  155SAPE   C2417221   7.153   6.387   6.969  0.2736  0.1974  0.4662
  155SAPE   H4R17222   7.144   6.300   6.900  0.5288  1.6303 -1.4244
  155SAPE   H4S17223   7.076   6.361   7.045  0.4761 -0.7129  0.3717
  155SAPE   C2517224   7.288   6.395   7.034 -0.3295 -0.5701 -0.0997
  155SAPE   H5R17225   7.371   6.449   6.988 -0.8472  2.5195  2.4386
  155SAPE   C2617226   7.309   6.367   7.166 -0.3637 -0.0319  0.4402
  155SAPE   H6R17227   7.399   6.396   7.222 -0.7880 -0.3067  1.2563
  155SAPE   C2717228   7.210   6.310   7.261 -0.8533  0.5661 -0.4431
  155SAPE   H7R17229   7.267   6.268   7.347 -0.9714  0.8012 -0.2484
  155SAPE   H7S17230   7.164   6.220   7.215 -2.2076  0.8770  0.2787
  155SAPE   C2817231   7.118   6.418   7.302  0.9455 -0.6221 -0.0760
  155SAPE   H8R17232   7.087   6.492   7.228  1.2266 -0.3121  0.1136
  155SAPE   C2917233   7.065   6.446   7.423  0.2777  0.4895  0.8208
  155SAPE   H9R17234   7.007   6.540   7.429 -0.0193  0.4058 -0.4375
  155SAPE  C21017235   7.088   6.365   7.546 -0.3848  0.3153 -0.1887
  155SAPE  H10R17236   7.072   6.257   7.528 -1.7269  0.0691  2.2794
  155SAPE  H10S17237   6.994   6.384   7.602 -1.5630  1.1465 -2.3878
  155SAPE  C21117238   7.221   6.394   7.617 -0.1216  0.7449 -0.7362
  155SAPE  H11R17239   7.307   6.426   7.557  0.6150 -0.8912 -0.5768
  155SAPE  C21217240   7.239   6.376   7.751 -0.1078 -0.5562 -0.0375
  155SAPE  H12R17241   7.340   6.404   7.786  0.2223 -1.4517 -0.2684
  155SAPE  C21317242   7.146   6.317   7.860 -0.3381 -0.3444 -0.4792
  155SAPE  H13R17243   7.208   6.235   7.903  0.9296 -0.4162 -2.3924
  155SAPE  H13S17244   7.063   6.273   7.801 -0.6079 -0.1632 -0.2370
  155SAPE  C21417245   7.105   6.434   7.948  0.0841 -0.2852 -0.3015
  155SAPE  H14R17246   7.049   6.516   7.900 -0.2998 -1.0730 -1.2389
  155SAPE  C21517247   7.132   6.443   8.082 -0.0892 -0.1908  0.1509
  155SAPE  H15R17248   7.110   6.539   8.131  0.1212  0.5222 -1.1474
  155SAPE  C21617249   7.196   6.347   8.173  0.5999  0.4916  1.1859
  155SAPE  H16R17250   7.205   6.248   8.125 -0.8134  1.5807 -1.4362
  155SAPE  H16S17251   7.129   6.339   8.261 -0.9595  0.8732  0.0455
  155SAPE  C21717252   7.335   6.395   8.227 -0.3094  0.4238 -0.0386
  155SAPE  H17R17253   7.331   6.494   8.277 -0.1734  0.6929 -0.5503
  155SAPE  H17S17254   7.407   6.405   8.142  0.9129  2.0314  1.1406
  155SAPE  C21817255   7.385   6.285   8.326 -0.5157  0.0555  0.2849
  155SAPE  H18R17256   7.414   6.187   8.281 -0.4250  0.3998 -0.4185
  155SAPE  H18S17257   7.309   6.256   8.401  0.9611 -2.2752  0.9416
  155SAPE  C21917258   7.504   6.335   8.412  0.1548  0.0702 -0.2367
  155SAPE  H19R17259   7.521   6.247   8.477 -1.3062 -0.1610 -0.1595
  155SAPE  H19S17260   7.478   6.416   8.483 -3.9275 -0.3167 -1.2004
  155SAPE  C22017261   7.627   6.387   8.326 -0.0529 -0.1561 -0.4393
  155SAPE  H20R17262   7.727   6.362   8.369 -0.6636 -1.8668  0.0202
  155SAPE  H20S17263   7.616   6.489   8.285  2.0158  0.0412 -0.5746
  155SAPE  H20T17264   7.634   6.321   8.237 -1.3049 -1.7101  0.5829
  155SAPE   C3317265   6.858   6.802   7.126 -0.0310  0.4780  0.1571
  155SAPE   H3X17266   6.945   6.813   7.057  0.2286  1.1642  0.5829
  155SAPE   H3Y17267   6.834   6.695   7.142 -0.2067  0.6335  0.9284
  155SAPE   C3417268   6.885   6.860   7.265 -0.3269 -0.1929  0.1885
  155SAPE   H4X17269   6.899   6.970   7.261  0.7525 -0.3449 -0.5769
  155SAPE   H4Y17270   6.981   6.818   7.301 -0.4890 -0.4059  0.3684
  155SAPE   C3517271   6.783   6.827   7.375 -0.3142  0.3223 -0.2798
  155SAPE   H5X17272   6.782   6.717   7.367  1.3848  0.3851 -1.4759
  155SAPE   H5Y17273   6.682   6.870   7.360 -1.2468 -1.2599  1.2192
  155SAPE   C3617274   6.853   6.870   7.506 -0.3053  0.1391 -0.3221
  155SAPE   H6X17275   6.845   6.980   7.515  3.0689  0.5566 -1.4879
  155SAPE   H6Y17276   6.964   6.858   7.502 -0.3273  0.0444 -0.6509
  155SAPE   C3717277   6.805   6.811   7.635  0.1021 -0.0970 -0.1739
  155SAPE   H7X17278   6.812   6.700   7.641  0.1198 -0.1343 -0.8273
  155SAPE   H7Y17279   6.696   6.831   7.644  0.6391  2.6181  0.6802
  155SAPE   C3817280   6.875   6.872   7.756 -0.2448 -0.1608  0.1739
  155SAPE   H8X17281   6.851   6.981   7.758  0.7268  0.0393  2.9392
  155SAPE   H8Y17282   6.985   6.863   7.746  0.0638  2.1825  0.9781
  155SAPE   C3917283   6.828   6.802   7.884  0.4178  0.0877 -0.1293
  155SAPE   H9X17284   6.853   6.694   7.874  1.4624  0.3033  0.0820
  155SAPE   H9Y17285   6.717   6.801   7.892  0.6223  0.3079  3.2417
  155SAPE  C31017286   6.901   6.860   8.008 -0.5169 -0.4858 -0.5797
  155SAPE  H10X17287   6.856   6.955   8.042  1.3273  0.3272 -0.3418
  155SAPE  H10Y17288   7.005   6.875   7.972  0.6836 -1.0027  2.4944
  155SAPE  C31117289   6.892   6.766   8.123  0.1836  0.7075  0.0657
  155SAPE  H11X17290   6.937   6.667   8.099  0.0784  0.3982  1.0870
  155SAPE  H11Y17291   6.786   6.745   8.151 -0.1150  1.7267 -0.2941
  155SAPE  C31217292   6.948   6.816   8.254 -0.1484  0.1548  0.2176
  155SAPE  H12X17293   6.880   6.889   8.303 -1.3219 -0.2769 -0.7278
  155SAPE  H12Y17294   7.043   6.874   8.247  1.1877 -2.0925 -0.8474
  155SAPE  C31317295   6.967   6.711   8.365 -0.2417 -0.1652 -0.3296
  155SAPE  H13X17296   7.073   6.679   8.360 -0.2590 -0.3433  0.3112
  155SAPE  H13Y17297   6.908   6.620   8.343 -1.6492  0.8937 -0.9530
  155SAPE  C31417298   6.934   6.773   8.510  0.6918  0.6341 -0.3921
  155SAPE  H14X17299   6.829   6.806   8.523 -0.2086 -1.9196 -0.7969
  155SAPE  H14Y17300   7.003   6.860   8.511  0.0767  1.1099  0.4078
  155SAPE  C31517301   6.959   6.669   8.620 -0.3692  0.5433  0.2974
  155SAPE  H15X17302   7.055   6.620   8.594 -1.4331 -1.8800  0.8294
  155SAPE  H15Y17303   6.873   6.599   8.612 -2.7035  3.4865 -1.8403
  155SAPE  C31617304   6.953   6.740   8.755 -0.5825  0.0689 -1.3899
  155SAPE  H16X17305   6.859   6.799   8.750 -0.2359  0.7444 -0.1786
  155SAPE  H16Y17306   7.028   6.822   8.751  1.3357 -1.6699 -2.6184
  155SAPE  C31717307   6.975   6.649   8.878  0.2159 -0.3697  0.0657
  155SAPE  H17X17308   6.976   6.701   8.976  0.7476  0.2080 -0.2424
  155SAPE  H17Y17309   7.077   6.607   8.875  0.6055  0.5831 -0.2882
  155SAPE  C31817310   6.871   6.540   8.900  0.1085  0.2020  0.0047
  155SAPE  H18X17311   6.922   6.476   8.975 -0.5849 -4.7387 -3.5183
  155SAPE  H18Y17312   6.848   6.473   8.814  0.2198  1.4319 -1.0072
  155SAPE  H18Z17313   6.779   6.573   8.952  1.0355  0.5337  1.4443
  156SAPE     N17314   4.852   0.195   6.589 -0.4702 -0.4090 -0.5376
  156SAPE   HN117315   4.814   0.287   6.619 -0.1771 -0.4500 -0.0391
  156SAPE   HN217316   4.855   0.132   6.672  1.4973 -0.6755 -0.7810
  156SAPE   HN317317   4.954   0.208   6.570 -0.1275 -1.3935  0.6087
  156SAPE   C1217318   4.785   0.124   6.474  0.0233  0.3708  0.5965
  156SAPE  H12A17319   4.776   0.199   6.392  1.9919  0.1843  0.1856
  156SAPE  H12B17320   4.690   0.081   6.511 -1.3509  2.2917 -0.6388
  156SAPE   C1117321   4.868   0.012   6.422  1.0855  0.3766 -0.0905
  156SAPE  H11A17322   4.961   0.044   6.370  0.3686  1.5378 -0.6782
  156SAPE  H11B17323   4.808  -0.043   6.346 -0.3666 -0.1085  1.3603
  156SAPE     P17324   5.038  -0.167   6.518  0.5274  0.0847 -0.2222
  156SAPE   O1317325   5.008  -0.272   6.422 -0.9630  0.1381  0.0238
  156SAPE   O1417326   5.160  -0.086   6.505 -0.0571  0.4386  0.3451
  156SAPE   O1217327   4.898  -0.085   6.527  0.7340 -0.4107  0.7279
  156SAPE   O1117328   5.044  -0.237   6.656  0.1381 -0.0284  0.0729
  156SAPE    C117329   4.952  -0.309   6.732 -0.1894 -0.0435  0.3283
  156SAPE    HA17330   4.895  -0.367   6.656  0.1853  1.7831 -1.3971
  156SAPE    HB17331   5.006  -0.383   6.794 -1.7023 -0.3761  1.2685
  156SAPE    C217332   4.863  -0.223   6.810 -0.3378 -0.3551 -0.4106
  156SAPE    HS17333   4.821  -0.146   6.742 -0.9580  0.3524  0.7600
  156SAPE   O2117334   4.941  -0.167   6.925 -0.4417 -0.3184  0.0541
  156SAPE   C2117335   4.963  -0.039   6.922 -0.5272 -0.4410 -0.1571
  156SAPE   O2217336   4.926   0.040   6.835 -0.5048  0.4167  0.5742
  156SAPE   C2217337   5.039  -0.009   7.055  0.1365  0.6495  0.1784
  156SAPE   H2R17338   5.133  -0.067   7.070  0.8366  1.5758 -0.5619
  156SAPE   H2S17339   5.046   0.102   7.054  0.5881  0.6303  0.7941
  156SAPE    C317340   4.748  -0.312   6.861 -0.6008  0.3542  0.2920
  156SAPE    HX17341   4.782  -0.397   6.924 -2.5553 -2.8171 -2.7400
  156SAPE    HY17342   4.691  -0.364   6.781  1.5575 -0.5260 -0.7307
  156SAPE   O3117343   4.670  -0.230   6.950 -0.0307 -0.0537  0.3709
  156SAPE   C3117344   4.576  -0.150   6.887  0.2143 -0.0663  0.0885
  156SAPE   O3217345   4.567  -0.142   6.767 -0.1074 -0.1418 -0.3364
  156SAPE   C3217346   4.466  -0.104   6.990 -0.1231  0.3302 -0.7701
  156SAPE   H2X17347   4.378  -0.171   6.984  0.2680 -0.1251 -1.4612
  156SAPE   H2Y17348   4.430  -0.009   6.945 -0.3849 -0.0711 -1.3989
  156SAPE   C2317349   4.936  -0.052   7.167 -0.2815 -0.5103  0.0328
  156SAPE   H3R17350   4.942  -0.163   7.167  1.2585 -0.4564  1.7333
  156SAPE   H3S17351   4.830  -0.028   7.145 -0.9566 -1.7056  1.8402
  156SAPE   C2417352   4.981  -0.010   7.306 -0.2417 -0.7910  0.1806
  156SAPE   H4R17353   4.982   0.101   7.309 -0.2273 -0.6905 -2.4595
  156SAPE   H4S17354   5.088  -0.037   7.316  0.1249  0.7494  0.5419
  156SAPE   C2517355   4.895  -0.067   7.417  0.0835  0.4724  0.2362
  156SAPE   H5R17356   4.792  -0.074   7.381 -0.9723 -1.8481  3.4729
  156SAPE   C2617357   4.931  -0.112   7.540 -0.4905  0.1543  0.3152
  156SAPE   H6R17358   4.859  -0.168   7.601  0.3547 -0.7074  0.5267
  156SAPE   C2717359   5.073  -0.124   7.586 -0.5620 -0.4858 -0.3440
  156SAPE   H7R17360   5.126  -0.028   7.570 -1.1198 -0.4198 -1.8635
  156SAPE   H7S17361   5.138  -0.191   7.526  0.6466  1.3598 -1.1408
  156SAPE   C2817362   5.085  -0.183   7.727  0.8764 -0.3972  0.3160
  156SAPE   H8R17363   5.130  -0.283   7.719 -2.5897 -1.8794 -1.8602
  156SAPE   C2917364   5.034  -0.134   7.842 -0.0390  0.0071  0.4104
  156SAPE   H9R17365   5.066  -0.182   7.935 -0.7108  1.6969  1.5452
  156SAPE  C21017366   4.957  -0.006   7.863  0.3163  0.1627  0.2108
  156SAPE  H10R17367   4.908  -0.011   7.962 -1.7942  0.7584 -0.7667
  156SAPE  H10S17368   4.873   0.004   7.791  0.2169 -5.7377 -0.7246
  156SAPE  C21117369   5.029   0.125   7.850  0.0354 -0.2022  0.1460
  156SAPE  H11R17370   5.045   0.174   7.753 -0.6817  0.1129  0.1859
  156SAPE  C21217371   5.085   0.200   7.947  0.0700  0.4678  0.5038
  156SAPE  H12R17372   5.127   0.297   7.917 -0.2839  0.5936  0.4067
  156SAPE  C21317373   5.091   0.158   8.095  0.2982  0.4811  0.1809
  156SAPE  H13R17374   5.184   0.201   8.137  0.7759 -0.0071 -0.3784
  156SAPE  H13S17375   5.098   0.047   8.099 -1.3869  0.3696  0.3052
  156SAPE  C21417376   4.972   0.201   8.181  0.2005 -0.4877  0.5108
  156SAPE  H14R17377   4.885   0.252   8.137 -1.4725 -2.1634  1.7764
  156SAPE  C21517378   4.968   0.176   8.314  0.3949 -0.1112  0.6008
  156SAPE  H15R17379   4.884   0.216   8.372  0.9444  1.5635  0.2793
  156SAPE  C21617380   5.079   0.117   8.394  0.7209  0.3721 -0.0615
  156SAPE  H16R17381   5.126   0.191   8.463 -0.4994  0.6000  0.5419
  156SAPE  H16S17382   5.159   0.082   8.326  0.2683  0.2078 -0.5048
  156SAPE  C21717383   5.026  -0.001   8.472  0.4642  0.1990 -0.0723
  156SAPE  H17R17384   5.115  -0.061   8.504 -0.4186 -1.1593 -0.1272
  156SAPE  H17S17385   4.956  -0.060   8.409  0.1614  0.4059  0.0734
  156SAPE  C21817386   4.944   0.041   8.602 -0.1688  0.0464 -0.2643
  156SAPE  H18R17387   4.864   0.113   8.577 -1.0223 -0.2665  1.4751
  156SAPE  H18S17388   5.007   0.091   8.679 -2.3534  2.8628 -0.2402
  156SAPE  C21917389   4.893  -0.084   8.677  0.3510  0.3309  0.6927
  156SAPE  H19R17390   4.880  -0.059   8.784 -1.1207  0.3634  0.5243
  156SAPE  H19S17391   4.964  -0.169   8.673 -1.0192 -0.8131  0.2104
  156SAPE  C22017392   4.755  -0.137   8.624  0.4174 -0.4852  0.1673
  156SAPE  H20R17393   4.771  -0.174   8.521 -1.4720  0.2470 -0.4092
  156SAPE  H20S17394   4.678  -0.059   8.604 -1.0983 -1.9134  0.3479
  156SAPE  H20T17395   4.721  -0.227   8.679 -1.4909 -0.0271 -0.2307
  156SAPE   C3317396   4.517  -0.096   7.145 -0.0237  0.4928  0.4538
  156SAPE   H3X17397   4.585  -0.012   7.169  0.1010  0.4336  0.3024
  156SAPE   H3Y17398   4.561  -0.193   7.176  1.2295  1.1128  0.6267
  156SAPE   C3417399   4.394  -0.073   7.233 -0.4893  0.2356 -0.0522
  156SAPE   H4X17400   4.311  -0.127   7.183 -0.3183 -1.1393  1.1073
  156SAPE   H4Y17401   4.353   0.030   7.228 -0.3779  0.1713 -3.0563
  156SAPE   C3517402   4.404  -0.118   7.381  0.0801  0.3339  0.0124
  156SAPE   H5X17403   4.472  -0.050   7.436  0.2930 -1.5362  2.1156
  156SAPE   H5Y17404   4.456  -0.216   7.387 -2.8729 -1.3595 -1.3275
  156SAPE   C3617405   4.272  -0.104   7.454 -0.7316  0.6032 -0.4020
  156SAPE   H6X17406   4.208  -0.190   7.422 -0.6693 -0.2985  1.8022
  156SAPE   H6Y17407   4.225  -0.010   7.417 -1.7407  0.3387  0.1865
  156SAPE   C3717408   4.294  -0.096   7.606 -0.3781  0.1375  0.4297
  156SAPE   H7X17409   4.350  -0.003   7.625  1.6263 -1.0964  0.6716
  156SAPE   H7Y17410   4.354  -0.186   7.629 -1.6788 -1.4788 -2.1345
  156SAPE   C3817411   4.166  -0.086   7.689  0.1827  0.1101  0.7076
  156SAPE   H8X17412   4.125  -0.188   7.675  0.9247  0.1046 -1.7002
  156SAPE   H8Y17413   4.103  -0.012   7.634 -0.8911  0.2463  2.0936
  156SAPE   C3917414   4.182  -0.054   7.833 -0.5669 -0.0395 -0.9185
  156SAPE   H9X17415   4.235   0.042   7.851 -1.6277  0.5581 -0.9591
  156SAPE   H9Y17416   4.246  -0.128   7.885 -1.0132  1.4699  1.8664
  156SAPE  C31017417   4.048  -0.042   7.911  0.5542  0.0643  1.3182
  156SAPE  H10X17418   3.988  -0.134   7.895 -2.2964  1.7346  2.1781
  156SAPE  H10Y17419   3.983   0.042   7.879  0.2255 -0.7754 -0.2901
  156SAPE  C31117420   4.064  -0.006   8.060  0.0402  0.3675 -0.6207
  156SAPE  H11X17421   4.107   0.095   8.076  2.4466 -0.5738 -0.8237
  156SAPE  H11Y17422   4.136  -0.078   8.106  0.7973  0.5350 -1.5238
  156SAPE  C31217423   3.935  -0.031   8.153 -0.1043  0.6153 -0.5052
  156SAPE  H12X17424   3.903  -0.137   8.145 -1.8659  1.0716  0.3636
  156SAPE  H12Y17425   3.860   0.043   8.119  1.0353  2.2699  0.5354
  156SAPE  C31317426   3.958  -0.000   8.297 -0.1842 -0.6656  0.2884
  156SAPE  H13X17427   3.997   0.103   8.310  2.2725 -1.2841 -1.9270
  156SAPE  H13Y17428   4.023  -0.078   8.343 -3.0249 -1.9945  2.2793
  156SAPE  C31417429   3.823  -0.005   8.377 -0.6077  0.1349 -0.0444
  156SAPE  H14X17430   3.769  -0.096   8.345  0.0560 -0.4683  0.5204
  156SAPE  H14Y17431   3.763   0.081   8.341  0.5052  0.9593  0.0495
  156SAPE  C31517432   3.841   0.027   8.524  0.0407 -0.0608 -0.1760
  156SAPE  H15X17433   3.928  -0.029   8.564  0.8682  0.0400 -1.7789
  156SAPE  H15Y17434   3.752  -0.014   8.577 -1.3694  4.7907  1.4182
  156SAPE  C31617435   3.825   0.171   8.566 -0.3484 -0.4273  0.8528
  156SAPE  H16X17436   3.742   0.212   8.504  1.3080  2.6296  0.6070
  156SAPE  H16Y17437   3.917   0.223   8.535  0.0427  1.0102  4.2042
  156SAPE  C31717438   3.783   0.191   8.707  0.0467 -0.0978  1.1521
  156SAPE  H17X17439   3.851   0.145   8.781  0.9506 -1.5691 -0.5519
  156SAPE  H17Y17440   3.679   0.153   8.711 -1.1919  3.0023  0.0478
  156SAPE  C31817441   3.775   0.339   8.731 -0.1985 -0.3176 -0.0836
  156SAPE  H18X17442   3.874   0.384   8.712 -0.9083  1.3750  0.1821
  156SAPE  H18Y17443   3.743   0.366   8.834  0.4008 -1.2868  0.3683
  156SAPE  H18Z17444   3.702   0.374   8.655 -0.8739 -2.7520 -0.6153
  157SAPE     N17445   2.102   1.103   5.979  0.3475  0.1650  1.0301
  157SAPE   HN117446   2.035   1.079   6.055 -0.9622 -1.3105 -0.5518
  157SAPE   HN217447   2.061   1.076   5.888  0.9456  2.2798  0.0951
  157SAPE   HN317448   2.186   1.046   6.003  0.2339  0.4777  2.2410
  157SAPE   C1217449   2.116   1.252   5.994 -0.2896  0.2347 -0.0595
  157SAPE  H12A17450   2.010   1.277   5.973 -0.4738 -2.3531 -2.5334
  157SAPE  H12B17451   2.186   1.284   5.914  0.4526  0.0097  0.4932
  157SAPE   C1117452   2.165   1.294   6.143  0.2458 -0.2922  0.6257
  157SAPE  H11A17453   2.170   1.405   6.149  1.0064 -0.2631 -0.5044
  157SAPE  H11B17454   2.268   1.255   6.150 -0.2848 -1.2391  5.0860
  157SAPE     P17455   2.123   1.167   6.367  0.2317  0.1676  0.1173
  157SAPE   O1317456   2.043   1.043   6.369 -0.0451  0.2437 -0.0459
  157SAPE   O1417457   2.271   1.152   6.362 -0.1346  0.0003 -0.2760
  157SAPE   O1217458   2.070   1.249   6.241  0.1300  0.1385 -0.3155
  157SAPE   O1117459   2.085   1.257   6.489  0.2956  0.2803 -0.1254
  157SAPE    C117460   2.081   1.396   6.458 -0.1473 -0.0743 -0.3008
  157SAPE    HA17461   2.174   1.426   6.407 -0.5859 -1.9913 -2.2932
  157SAPE    HB17462   2.001   1.424   6.386 -0.2970 -1.0655 -0.5318
  157SAPE    C217463   2.053   1.482   6.580 -0.0495 -0.4173  0.3253
  157SAPE    HS17464   2.077   1.588   6.556 -2.1304 -0.0142 -0.0503
  157SAPE   O2117465   2.124   1.438   6.692  0.4758 -0.4215 -0.1272
  157SAPE   C2117466   2.263   1.414   6.675  0.0180 -0.1677  0.2153
  157SAPE   O2217467   2.338   1.440   6.584  0.3241  0.0992  0.2160
  157SAPE   C2217468   2.304   1.335   6.807 -0.2290  0.9540  0.0079
  157SAPE   H2R17469   2.236   1.378   6.885  0.5226  3.0427 -0.4692
  157SAPE   H2S17470   2.280   1.229   6.787  0.7679  0.8871 -0.8076
  157SAPE    C317471   1.894   1.481   6.616  0.3063  0.1373  0.7210
  157SAPE    HX17472   1.882   1.373   6.638  1.2488 -0.4906 -1.7202
  157SAPE    HY17473   1.845   1.516   6.523  0.3943  2.6532  1.5931
  157SAPE   O3117474   1.866   1.577   6.723 -0.6215  0.2718  0.4761
  157SAPE   C3117475   1.877   1.534   6.847  0.0702 -0.2436 -0.1257
  157SAPE   O3217476   1.906   1.419   6.883 -0.1009 -0.2137 -0.5256
  157SAPE   C3217477   1.853   1.646   6.949  0.5151  0.5698 -0.8487
  157SAPE   H2X17478   1.815   1.596   7.040  0.6203  0.6471 -0.7633
  157SAPE   H2Y17479   1.762   1.696   6.911  0.0431  1.6038  1.5849
  157SAPE   C2317480   2.453   1.360   6.849 -0.1322 -0.2404  0.0938
  157SAPE   H3R17481   2.478   1.467   6.862  1.1044 -0.5546  0.4739
  157SAPE   H3S17482   2.519   1.320   6.769  0.8195  1.5054 -0.0155
  157SAPE   C2417483   2.483   1.288   6.983 -0.4354  0.4083  0.2762
  157SAPE   H4R17484   2.425   1.194   6.994 -0.0697  0.1288 -0.1874
  157SAPE   H4S17485   2.433   1.337   7.070  0.6851  1.7786  0.1800
  157SAPE   C2517486   2.630   1.260   7.004 -1.0956 -0.1519  0.0188
  157SAPE   H5R17487   2.685   1.233   6.912 -3.3838  0.0206 -1.4413
  157SAPE   C2617488   2.699   1.260   7.121  0.3045 -0.1683 -0.1018
  157SAPE   H6R17489   2.803   1.229   7.135 -0.3238 -2.5350 -0.4345
  157SAPE   C2717490   2.644   1.296   7.256 -0.1151  0.6263  0.2415
  157SAPE   H7R17491   2.579   1.386   7.251 -0.0761  0.5952 -0.8836
  157SAPE   H7S17492   2.732   1.320   7.319  0.7367  1.4497 -1.2410
  157SAPE   C2817493   2.572   1.181   7.323  0.9651 -0.4056  0.0362
  157SAPE   H8R17494   2.542   1.099   7.257  1.0094 -0.2621 -0.1603
  157SAPE   C2917495   2.537   1.182   7.454 -0.4645 -0.5770  0.3056
  157SAPE   H9R17496   2.481   1.099   7.499 -2.7137  0.1048 -1.1184
  157SAPE  C21017497   2.547   1.300   7.555 -0.0699 -0.0953 -0.3025
  157SAPE  H10R17498   2.450   1.341   7.591 -0.0702  1.7320 -2.2726
  157SAPE  H10S17499   2.594   1.385   7.501 -1.6215  0.5837 -0.6238
  157SAPE  C21117500   2.635   1.264   7.672 -0.5813  0.5187  0.5037
  157SAPE  H11R17501   2.742   1.249   7.650 -0.7963  2.5127 -2.1192
  157SAPE  C21217502   2.586   1.242   7.792  0.3823  0.5676  0.1882
  157SAPE  H12R17503   2.658   1.204   7.865 -0.4192  0.3797  0.8911
  157SAPE  C21317504   2.444   1.233   7.839  0.3430 -0.6380  0.2122
  157SAPE  H13R17505   2.430   1.159   7.920 -1.3262 -0.2941  0.2533
  157SAPE  H13S17506   2.379   1.195   7.758  0.3951  0.2237 -0.2494
  157SAPE  C21417507   2.385   1.367   7.871 -0.6817 -0.2725 -0.0348
  157SAPE  H14R17508   2.362   1.432   7.785  0.8797  3.4123  2.2251
  157SAPE  C21517509   2.383   1.417   7.996 -0.5813 -0.0328  0.2733
  157SAPE  H15R17510   2.335   1.514   8.013 -1.0005  0.1224 -1.6946
  157SAPE  C21617511   2.434   1.355   8.116  0.0142  0.1120  0.1670
  157SAPE  H16R17512   2.492   1.431   8.174 -2.0956  2.1479 -0.3182
  157SAPE  H16S17513   2.506   1.274   8.093 -0.6852 -1.2064  2.4676
  157SAPE  C21717514   2.314   1.309   8.198 -0.0081  0.3433 -0.4494
  157SAPE  H17R17515   2.275   1.216   8.153  0.1875  0.5355 -1.0170
  157SAPE  H17S17516   2.228   1.379   8.194 -0.4563 -0.2914 -2.1750
  157SAPE  C21817517   2.349   1.270   8.346  0.3153  0.4271 -0.1888
  157SAPE  H18R17518   2.382   1.365   8.392  0.6310  0.5874 -0.7336
  157SAPE  H18S17519   2.431   1.195   8.345 -1.1465 -1.2277 -2.0623
  157SAPE  C21917520   2.227   1.206   8.423 -0.6375 -0.5380  0.8596
  157SAPE  H19R17521   2.209   1.110   8.372 -0.9915 -0.0452  0.0547
  157SAPE  H19S17522   2.141   1.275   8.406  0.8050  1.3590  1.0362
  157SAPE  C22017523   2.244   1.188   8.573 -0.4614  0.0106 -0.0817
  157SAPE  H20R17524   2.327   1.115   8.584 -0.3651  0.5241  3.3192
  157SAPE  H20S17525   2.153   1.148   8.621 -0.9263  1.4575  0.2913
  157SAPE  H20T17526   2.270   1.281   8.628  1.3844 -2.0241  2.6220
  157SAPE   C3317527   1.973   1.740   6.960  0.3489 -1.0861 -0.7269
  157SAPE   H3X17528   1.962   1.822   7.035  3.7106  0.4018 -1.7787
  157SAPE   H3Y17529   2.003   1.777   6.860 -2.2425 -1.7175 -1.7693
  157SAPE   C3417530   2.091   1.660   7.022 -0.2283 -0.2091  0.3300
  157SAPE   H4X17531   2.124   1.581   6.952  1.8674  1.0209 -0.1082
  157SAPE   H4Y17532   2.053   1.611   7.115  0.4051 -1.8314 -0.2518
  157SAPE   C3517533   2.205   1.763   7.050 -0.6939 -1.1364 -0.2557
  157SAPE   H5X17534   2.180   1.821   7.141  3.5606  0.6200 -0.0946
  157SAPE   H5Y17535   2.220   1.824   6.958  0.2986 -1.1624 -0.1150
  157SAPE   C3617536   2.332   1.675   7.085 -0.1893 -0.5487 -0.2165
  157SAPE   H6X17537   2.418   1.744   7.096  0.7495 -1.6207 -0.7883
  157SAPE   H6Y17538   2.351   1.611   6.996  1.0783  0.8678 -0.9853
  157SAPE   C3717539   2.330   1.589   7.215 -1.1720  0.3189  0.3793
  157SAPE   H7X17540   2.424   1.530   7.222 -1.2153  0.0155 -1.4061
  157SAPE   H7Y17541   2.258   1.506   7.198 -0.5696  0.1419 -1.4626
  157SAPE   C3817542   2.301   1.664   7.349 -0.5223  0.2785  0.0722
  157SAPE   H8X17543   2.198   1.704   7.336 -1.0393 -1.3703 -1.0281
  157SAPE   H8Y17544   2.368   1.750   7.371  2.3413 -1.1239 -2.7802
  157SAPE   C3917545   2.307   1.563   7.462  0.2627  0.1565  0.0035
  157SAPE   H9X17546   2.410   1.563   7.504 -0.5731  3.0684  2.2083
  157SAPE   H9Y17547   2.283   1.464   7.417 -1.6958 -0.1109  1.5440
  157SAPE  C31017548   2.203   1.581   7.570  0.3459  0.1334  0.3820
  157SAPE  H10X17549   2.202   1.496   7.642 -0.4218  0.0588  0.2940
  157SAPE  H10Y17550   2.100   1.599   7.532  0.8506  1.0609 -0.5653
  157SAPE  C31117551   2.240   1.698   7.656  0.4787  0.8177 -0.2976
  157SAPE  H11X17552   2.229   1.794   7.601  0.7387  0.4821 -0.9464
  157SAPE  H11Y17553   2.347   1.691   7.685  1.1127 -1.7598 -3.0216
  157SAPE  C31217554   2.155   1.696   7.790 -0.1537 -0.6097 -0.1215
  157SAPE  H12X17555   2.180   1.603   7.844 -0.9318 -0.1556  1.0419
  157SAPE  H12Y17556   2.048   1.703   7.761  0.2817  2.2112 -1.2113
  157SAPE  C31317557   2.179   1.803   7.897 -0.0823 -0.2617  0.0603
  157SAPE  H13X17558   2.149   1.908   7.874 -0.2102 -0.2900  0.0999
  157SAPE  H13Y17559   2.289   1.812   7.911 -0.0885  1.2186 -0.6466
  157SAPE  C31417560   2.109   1.762   8.025 -0.7213 -0.7325  0.1524
  157SAPE  H14X17561   2.065   1.662   8.003  0.4633 -0.9869 -1.1164
  157SAPE  H14Y17562   2.028   1.837   8.039  0.9862  1.6773 -2.3486
  157SAPE  C31517563   2.202   1.774   8.140  0.0796  0.3169  0.3635
  157SAPE  H15X17564   2.240   1.876   8.161  0.6382  0.2517 -0.3331
  157SAPE  H15Y17565   2.291   1.713   8.113  0.2607 -0.8068  3.2809
  157SAPE  C31617566   2.141   1.701   8.259 -0.5554 -0.0417 -0.0431
  157SAPE  H16X17567   2.107   1.600   8.229 -2.1472  0.2164  0.8251
  157SAPE  H16Y17568   2.045   1.749   8.287 -0.8444  0.1343 -1.3003
  157SAPE  C31717569   2.245   1.705   8.374 -0.4478 -1.2084 -0.3375
  157SAPE  H17X17570   2.275   1.809   8.398  1.0806 -1.8118  0.4399
  157SAPE  H17Y17571   2.341   1.666   8.332 -0.1476 -0.5385 -0.2758
  157SAPE  C31817572   2.195   1.630   8.495 -0.2549  0.3583 -0.3104
  157SAPE  H18X17573   2.283   1.629   8.563 -0.3373  1.4046 -0.1900
  157SAPE  H18Y17574   2.166   1.523   8.484  0.6767  0.1741 -1.0744
  157SAPE  H18Z17575   2.109   1.685   8.538 -1.4670 -2.3140  0.7605
  158SAPE     N17576   4.078   0.428   6.297 -0.3618 -0.3440  0.0474
  158SAPE   HN117577   4.074   0.503   6.369 -0.8417 -0.8022  0.5050
  158SAPE   HN217578   4.032   0.348   6.344  0.9086 -1.2152 -0.1783
  158SAPE   HN317579   4.176   0.408   6.270 -0.3616 -1.2384  0.7168
  158SAPE   C1217580   4.011   0.460   6.170 -0.3592  0.3328 -0.2308
  158SAPE  H12A17581   4.087   0.526   6.120  0.2601  1.0238  1.5873
  158SAPE  H12B17582   3.918   0.516   6.192  0.3837  2.2903 -1.8814
  158SAPE   C1117583   3.981   0.319   6.109  0.2023 -0.7988 -0.2409
  158SAPE  H11A17584   4.076   0.260   6.106 -0.5377 -1.9576 -1.6170
  158SAPE  H11B17585   3.942   0.329   6.005 -1.5569  0.1990  0.5013
  158SAPE     P17586   3.739   0.247   6.182 -0.2976 -0.1704 -0.1588
  158SAPE   O1317587   3.692   0.385   6.172 -0.2361  0.2558 -0.1208
  158SAPE   O1417588   3.712   0.151   6.070 -0.3051  0.4112  0.2261
  158SAPE   O1217589   3.890   0.249   6.201 -0.4658 -0.3180 -0.5139
  158SAPE   O1117590   3.700   0.186   6.318  0.3685 -0.2149 -0.2878
  158SAPE    C117591   3.718   0.044   6.344  0.5008  0.1451  0.0616
  158SAPE    HA17592   3.629   0.018   6.405  0.9770 -0.0062  0.6958
  158SAPE    HB17593   3.716  -0.017   6.251 -2.7690  0.2138  0.0556
  158SAPE    C217594   3.847   0.016   6.431 -0.2627 -0.4776 -0.3509
  158SAPE    HS17595   3.944   0.046   6.387 -0.6089 -1.6292 -1.9771
  158SAPE   O2117596   3.840  -0.118   6.472  0.0002 -0.4084  0.1737
  158SAPE   C2117597   3.922  -0.189   6.400  0.2872 -0.3831  0.1260
  158SAPE   O2217598   3.980  -0.157   6.294  0.3013  0.4764 -0.3520
  158SAPE   C2217599   3.921  -0.337   6.462 -0.3855  0.6511  0.4081
  158SAPE   H2R17600   3.867  -0.326   6.558 -1.8324 -1.0273 -0.1891
  158SAPE   H2S17601   3.862  -0.392   6.386 -0.2418  0.4226  0.4634
  158SAPE    C317602   3.851   0.095   6.558  0.0958  0.0449 -0.4648
  158SAPE    HX17603   3.775   0.044   6.622 -0.0292 -1.5973 -1.8687
  158SAPE    HY17604   3.817   0.201   6.554  2.0174  0.7721  1.4431
  158SAPE   O3117605   3.979   0.072   6.625 -0.8013 -0.2947  0.4124
  158SAPE   C3117606   4.087   0.151   6.568 -0.3628  0.2870 -0.1641
  158SAPE   O3217607   4.078   0.224   6.472  0.7117  0.2327  0.4675
  158SAPE   C3217608   4.213   0.115   6.652 -0.4752  0.1866  0.3137
  158SAPE   H2X17609   4.282   0.070   6.578  1.4711  1.8418  1.0678
  158SAPE   H2Y17610   4.184   0.037   6.726  0.3167  1.1357  1.6524
  158SAPE   C2317611   4.068  -0.383   6.478 -0.6289 -0.4267  0.0461
  158SAPE   H3R17612   4.128  -0.368   6.386  0.1810 -0.6078  0.5434
  158SAPE   H3S17613   4.068  -0.485   6.522  0.8512 -0.5211 -0.1448
  158SAPE   C2417614   4.148  -0.303   6.590 -0.7453 -0.0936 -0.1420
  158SAPE   H4R17615   4.101  -0.317   6.690  0.3070  3.2680  0.9140
  158SAPE   H4S17616   4.132  -0.193   6.582 -2.1070 -0.0651  2.4221
  158SAPE   C2517617   4.299  -0.328   6.569 -0.2244  0.5069 -0.8940
  158SAPE   H5R17618   4.349  -0.277   6.485 -1.5253  1.2400 -1.2342
  158SAPE   C2617619   4.375  -0.417   6.641  0.3815 -0.0562  0.6670
  158SAPE   H6R17620   4.479  -0.434   6.607 -0.3816 -1.2858 -1.1249
  158SAPE   C2717621   4.326  -0.493   6.758 -0.3583  0.2395 -0.3713
  158SAPE   H7R17622   4.331  -0.600   6.729 -0.9463  0.0515  0.1916
  158SAPE   H7S17623   4.218  -0.485   6.783 -0.5343 -0.4004 -0.9136
  158SAPE   C2817624   4.411  -0.460   6.883  0.5047  0.7922 -0.0718
  158SAPE   H8R17625   4.509  -0.426   6.846  0.8945 -2.0319 -1.7746
  158SAPE   C2917626   4.386  -0.460   7.013  0.1207  1.0841 -0.1994
  158SAPE   H9R17627   4.461  -0.426   7.085 -0.9717 -1.6163  2.3399
  158SAPE  C21017628   4.263  -0.506   7.087  0.1665  0.4466  0.3506
  158SAPE  H10R17629   4.302  -0.565   7.173 -1.4517 -2.4666 -0.8455
  158SAPE  H10S17630   4.207  -0.580   7.026  1.3682 -0.1923 -0.0080
  158SAPE  C21117631   4.170  -0.403   7.147  1.0299  0.5420 -0.0661
  158SAPE  H11R17632   4.136  -0.318   7.085  0.9381  0.2053 -0.4773
  158SAPE  C21217633   4.124  -0.418   7.272  0.7087  0.4450 -0.2646
  158SAPE  H12R17634   4.052  -0.346   7.313  0.6468  0.1817  0.0879
  158SAPE  C21317635   4.151  -0.532   7.371 -0.7548  0.7696 -0.0487
  158SAPE  H13R17636   4.197  -0.622   7.325  0.4536  1.5513 -0.3843
  158SAPE  H13S17637   4.057  -0.571   7.417  1.5986 -2.2981  2.4229
  158SAPE  C21417638   4.245  -0.477   7.479  0.2291  0.5812  0.7129
  158SAPE  H14R17639   4.341  -0.440   7.440 -1.0595  0.0847 -3.2125
  158SAPE  C21517640   4.208  -0.461   7.607  0.3094 -0.6381  0.1047
  158SAPE  H15R17641   4.276  -0.414   7.679 -2.1935 -0.5308  2.5264
  158SAPE  C21617642   4.082  -0.489   7.676  0.3470 -0.1755 -0.5267
  158SAPE  H16R17643   4.079  -0.598   7.695 -0.9271  0.0440  0.6754
  158SAPE  H16S17644   3.996  -0.453   7.616  1.0524 -1.5899 -2.4176
  158SAPE  C21717645   4.077  -0.428   7.817  0.0604 -0.0673  0.0607
  158SAPE  H17R17646   3.975  -0.440   7.860  0.1416  0.1144  0.3074
  158SAPE  H17S17647   4.096  -0.318   7.811  0.6955 -0.0246  2.2894
  158SAPE  C21817648   4.181  -0.478   7.920  0.2235 -0.7928 -0.1365
  158SAPE  H18R17649   4.279  -0.466   7.869 -0.0402  1.4812 -0.1453
  158SAPE  H18S17650   4.171  -0.584   7.950  0.2576 -1.0791 -1.1209
  158SAPE  C21917651   4.178  -0.400   8.047 -0.2925  0.3111  0.4979
  158SAPE  H19R17652   4.177  -0.291   8.024  1.2875 -0.5427 -4.0221
  158SAPE  H19S17653   4.266  -0.413   8.113 -0.9477 -1.6306  1.0112
  158SAPE  C22017654   4.061  -0.436   8.138  0.3233  0.0735  0.0718
  158SAPE  H20R17655   3.962  -0.430   8.087  0.0639 -0.4244  0.5113
  158SAPE  H20S17656   4.048  -0.366   8.223 -0.5337  0.5189 -0.4144
  158SAPE  H20T17657   4.048  -0.541   8.172 -1.8352 -0.1609 -1.3354
  158SAPE   C3317658   4.272   0.229   6.734  0.7351 -1.1911 -0.3169
  158SAPE   H3X17659   4.279   0.317   6.667  2.3927 -0.3111  0.9660
  158SAPE   H3Y17660   4.374   0.196   6.765  2.1383  1.6046 -1.7787
  158SAPE   C3417661   4.183   0.278   6.851 -0.3380  0.0118 -0.7410
  158SAPE   H4X17662   4.075   0.279   6.826 -0.6991  2.5521  0.7272
  158SAPE   H4Y17663   4.211   0.381   6.882  0.3169 -0.7269  1.1669
  158SAPE   C3517664   4.211   0.207   6.983 -0.0071  0.3490 -0.2022
  158SAPE   H5X17665   4.315   0.217   7.018  0.0423  1.0105 -0.5223
  158SAPE   H5Y17666   4.186   0.101   6.963 -0.1621  0.6186 -1.5335
  158SAPE   C3617667   4.113   0.271   7.089 -1.1898 -0.1571 -0.6279
  158SAPE   H6X17668   4.017   0.219   7.067 -1.1101 -1.3630  1.7014
  158SAPE   H6Y17669   4.107   0.380   7.066 -4.6857 -0.4335 -1.2947
  158SAPE   C3717670   4.157   0.245   7.240 -0.0953  0.0051  0.4742
  158SAPE   H7X17671   4.149   0.134   7.250 -0.0521  0.1128  1.7130
  158SAPE   H7Y17672   4.265   0.263   7.258 -0.3426  3.0187 -0.7246
  158SAPE   C3817673   4.065   0.312   7.343  0.0970  0.1370 -0.9194
  158SAPE   H8X17674   3.957   0.288   7.331  0.4325 -1.2461 -1.3098
  158SAPE   H8Y17675   4.071   0.422   7.330 -0.4764  0.0483 -2.0162
  158SAPE   C3917676   4.119   0.291   7.483 -0.0350 -0.4022  0.0682
  158SAPE   H9X17677   4.230   0.290   7.483 -0.0096  0.9359  0.7959
  158SAPE   H9Y17678   4.068   0.202   7.524 -2.7906  0.8478 -0.5447
  158SAPE  C31017679   4.082   0.403   7.587 -0.0329 -1.1706  0.9266
  158SAPE  H10X17680   3.972   0.397   7.606 -0.0477  0.4751  1.5031
  158SAPE  H10Y17681   4.108   0.508   7.559 -0.1761 -0.9865  1.4756
  158SAPE  C31117682   4.160   0.366   7.718  0.1302  0.0054  0.0604
  158SAPE  H11X17683   4.266   0.373   7.687  0.3445 -1.4668  0.4252
  158SAPE  H11Y17684   4.143   0.259   7.741  2.0821  0.0957  2.0994
  158SAPE  C31217685   4.125   0.463   7.830 -0.3127 -0.1210 -0.0498
  158SAPE  H12X17686   4.018   0.442   7.854 -0.8998  1.1416 -1.4619
  158SAPE  H12Y17687   4.122   0.571   7.803  0.8899  0.3997  1.8165
  158SAPE  C31317688   4.222   0.450   7.947  0.3709 -0.2324 -0.2979
  158SAPE  H13X17689   4.317   0.502   7.924 -0.2347  0.4349 -1.3785
  158SAPE  H13Y17690   4.238   0.343   7.971  0.3787 -0.4134 -1.0670
  158SAPE  C31417691   4.166   0.514   8.081  0.5494 -0.2243  0.1734
  158SAPE  H14X17692   4.127   0.618   8.076 -2.3329 -1.3067 -0.4281
  158SAPE  H14Y17693   4.252   0.516   8.151 -0.6272 -0.7621  1.6450
  158SAPE  C31517694   4.068   0.413   8.149  0.1441 -0.7403 -0.4549
  158SAPE  H15X17695   4.113   0.312   8.147 -1.3758 -1.4175 -1.6776
  158SAPE  H15Y17696   3.975   0.420   8.088 -0.8463 -2.2394  0.8411
  158SAPE  C31617697   4.023   0.450   8.289  0.2219  0.3843  0.1299
  158SAPE  H16X17698   4.114   0.456   8.353  1.2678  3.7621 -1.5726
  158SAPE  H16Y17699   3.963   0.360   8.315  1.8797 -1.0553 -0.8451
  158SAPE  C31717700   3.938   0.571   8.307 -0.2600  0.3457 -0.8819
  158SAPE  H17X17701   3.836   0.560   8.264  0.0076  0.8385 -1.6454
  158SAPE  H17Y17702   3.990   0.651   8.249 -0.7533  0.3403 -1.3368
  158SAPE  C31817703   3.948   0.612   8.455  0.5587 -0.6867 -0.0562
  158SAPE  H18X17704   3.918   0.534   8.528 -0.9626 -0.7631 -0.7283
  158SAPE  H18Y17705   3.876   0.697   8.460  2.6285  1.2861 -2.4951
  158SAPE  H18Z17706   4.050   0.650   8.476  0.3577 -0.6299  0.8513
  159SAPE     N17707   3.590   2.546   5.948 -0.5234  0.6624 -0.1508
  159SAPE   HN117708   3.671   2.524   6.009 -2.0540 -2.3896  0.9098
  159SAPE   HN217709   3.621   2.563   5.850  2.8307 -2.6930  0.1907
  159SAPE   HN317710   3.542   2.630   5.986 -0.6888  0.1063  0.8903
  159SAPE   C1217711   3.488   2.434   5.943  0.9594  0.2939 -0.3546
  159SAPE  H12A17712   3.547   2.340   5.934 -1.1170 -1.2796  1.8816
  159SAPE  H12B17713   3.425   2.452   5.853  1.2005  0.4513 -0.4917
  159SAPE   C1117714   3.398   2.411   6.066 -0.7633  0.7195  0.5440
  159SAPE  H11A17715   3.335   2.322   6.046  1.2663 -0.0747 -2.6431
  159SAPE  H11B17716   3.328   2.496   6.078 -2.2316 -0.1124 -1.8890
  159SAPE     P17717   3.417   2.452   6.317  0.1961  0.1148  0.2755
  159SAPE   O1317718   3.391   2.598   6.302  0.1178  0.0642  0.7276
  159SAPE   O1417719   3.307   2.368   6.370  0.2117 -0.4812  0.3508
  159SAPE   O1217720   3.478   2.397   6.181 -0.2688  0.3179  0.0164
  159SAPE   O1117721   3.543   2.429   6.406  0.1780  0.4142  0.0707
  159SAPE    C117722   3.662   2.507   6.397  0.1573  0.4773 -0.2173
  159SAPE    HA17723   3.725   2.473   6.312 -1.2170  1.1396 -1.5167
  159SAPE    HB17724   3.638   2.615   6.387 -2.7188  0.2973  3.5586
  159SAPE    C217725   3.735   2.492   6.539  0.4185 -0.1280  0.0176
  159SAPE    HS17726   3.763   2.386   6.558  0.6949  0.0511  0.5973
  159SAPE   O2117727   3.647   2.546   6.635  0.7225  0.0214  0.5931
  159SAPE   C2117728   3.603   2.460   6.726 -0.2037 -0.8040 -0.6153
  159SAPE   O2217729   3.621   2.340   6.724  0.3470  0.2000 -0.6579
  159SAPE   C2217730   3.534   2.537   6.843 -0.4063 -0.8590 -0.7888
  159SAPE   H2R17731   3.607   2.611   6.883 -0.2494 -1.1853 -0.4701
  159SAPE   H2S17732   3.442   2.579   6.797 -0.3108 -0.5880 -0.7323
  159SAPE    C317733   3.869   2.569   6.556  0.4965 -0.5415  0.3511
  159SAPE    HX17734   3.843   2.677   6.560  2.0153 -0.1442 -0.2208
  159SAPE    HY17735   3.933   2.542   6.469 -0.0404 -1.2318  0.1688
  159SAPE   O3117736   3.950   2.534   6.662  0.0837  0.0493  0.0736
  159SAPE   C3117737   4.073   2.582   6.667 -0.8460 -0.4448 -0.6993
  159SAPE   O3217738   4.114   2.671   6.599  0.2440  0.2183  0.5911
  159SAPE   C3217739   4.157   2.514   6.775  0.0291  0.8260 -0.7532
  159SAPE   H2X17740   4.267   2.529   6.780  0.0720  0.7673 -1.5524
  159SAPE   H2Y17741   4.153   2.405   6.756 -1.8465  0.7014  0.2355
  159SAPE   C2317742   3.491   2.438   6.953  1.4842  0.0655 -0.6728
  159SAPE   H3R17743   3.577   2.396   7.010  1.3480  0.0354 -0.4875
  159SAPE   H3S17744   3.431   2.351   6.917  0.6817  1.4803 -2.8058
  159SAPE   C2417745   3.406   2.506   7.062 -0.1156  0.2969 -0.4151
  159SAPE   H4R17746   3.469   2.596   7.082  0.7950 -0.7149  1.3898
  159SAPE   H4S17747   3.397   2.449   7.157 -2.5558  0.6076 -0.4141
  159SAPE   C2517748   3.263   2.542   7.023 -1.1707  0.4015 -0.0925
  159SAPE   H5R17749   3.264   2.628   6.954  0.8953 -0.6135 -1.3758
  159SAPE   C2617750   3.144   2.485   7.059 -0.6398 -0.5572 -0.5171
  159SAPE   H6R17751   3.054   2.528   7.012 -0.3616  0.4390 -0.1379
  159SAPE   C2717752   3.131   2.372   7.160  0.3780 -0.1797  0.7163
  159SAPE   H7R17753   3.095   2.414   7.257 -2.2790  0.1259 -0.3642
  159SAPE   H7S17754   3.230   2.332   7.190 -0.1515  0.0781  2.9125
  159SAPE   C2817755   3.041   2.261   7.127 -0.1706  0.0670 -0.6181
  159SAPE   H8R17756   3.020   2.246   7.020 -1.7672  2.1595 -0.6263
  159SAPE   C2917757   2.985   2.166   7.209 -0.3712  0.1926  0.0207
  159SAPE   H9R17758   2.912   2.096   7.164 -1.2495  2.4060 -2.0974
  159SAPE  C21017759   3.006   2.166   7.356  0.2308 -0.3222  0.2043
  159SAPE  H10R17760   2.907   2.139   7.399  0.8618 -2.2317  0.5261
  159SAPE  H10S17761   3.035   2.266   7.396  1.9291 -0.0650 -1.5937
  159SAPE  C21117762   3.104   2.062   7.415 -0.1287  0.0108 -0.6398
  159SAPE  H11R17763   3.116   1.979   7.344 -2.3810 -0.4059 -0.5714
  159SAPE  C21217764   3.156   2.055   7.541  0.1051  0.3882  0.1614
  159SAPE  H12R17765   3.230   1.975   7.556 -0.2377 -0.2409 -1.4205
  159SAPE  C21317766   3.121   2.158   7.645  0.1340  0.0861 -0.5216
  159SAPE  H13R17767   3.113   2.265   7.614  0.3185  0.6542  1.3333
  159SAPE  H13S17768   3.213   2.161   7.706 -1.0231  0.4183  1.2246
  159SAPE  C21417769   3.013   2.120   7.739 -0.0081  0.5921 -0.2613
  159SAPE  H14R17770   2.964   2.024   7.715  0.6987  0.1002  0.2389
  159SAPE  C21517771   2.974   2.195   7.846  0.4579 -0.4727 -0.7125
  159SAPE  H15R17772   2.894   2.171   7.917  1.9760 -1.7217  0.6074
  159SAPE  C21617773   3.042   2.328   7.876  0.1898  0.6563  0.0773
  159SAPE  H16R17774   3.006   2.409   7.808 -0.4402  1.2597  1.1079
  159SAPE  H16S17775   3.150   2.323   7.850  0.2029  1.1186  0.0294
  159SAPE  C21717776   3.023   2.373   8.027 -0.5013  0.1852 -0.7152
  159SAPE  H17R17777   3.115   2.428   8.054 -0.1596 -1.9105  2.7114
  159SAPE  H17S17778   3.038   2.282   8.089 -0.7687  0.6725  0.0715
  159SAPE  C21817779   2.894   2.450   8.048 -0.0572  0.0577 -0.0546
  159SAPE  H18R17780   2.810   2.424   7.981 -0.9166  1.6941  0.3462
  159SAPE  H18S17781   2.910   2.557   8.021 -1.6444  0.3123 -0.0804
  159SAPE  C21917782   2.846   2.440   8.196  0.0211  0.0575 -0.3831
  159SAPE  H19R17783   2.927   2.468   8.267  0.7060  0.6052 -1.3702
  159SAPE  H19S17784   2.821   2.332   8.206 -0.5362  0.2221  0.0145
  159SAPE  C22017785   2.726   2.531   8.219  0.8970 -0.1294 -0.2043
  159SAPE  H20R17786   2.751   2.638   8.207  2.0560 -0.2067  1.4427
  159SAPE  H20S17787   2.690   2.519   8.323  1.7061 -0.5342  0.0352
  159SAPE  H20T17788   2.646   2.503   8.146  1.0179  0.5867 -0.6156
  159SAPE   C3317789   4.090   2.522   6.915 -0.0813 -0.0685 -0.3177
  159SAPE   H3X17790   3.980   2.511   6.913  0.0293 -1.7219  0.9333
  159SAPE   H3Y17791   4.110   2.626   6.949  0.4338  0.1065 -1.1603
  159SAPE   C3417792   4.143   2.418   7.017  0.8296 -0.1931  0.2377
  159SAPE   H4X17793   4.252   2.430   7.004  0.7050  1.9202  1.0026
  159SAPE   H4Y17794   4.106   2.314   6.999  0.9151 -0.4829  1.6474
  159SAPE   C3517795   4.113   2.455   7.168 -0.1508  0.1598 -0.6636
  159SAPE   H5X17796   4.004   2.475   7.174 -0.0926  0.1586  0.6930
  159SAPE   H5Y17797   4.166   2.544   7.207  1.0815 -0.6670 -0.4244
  159SAPE   C3617798   4.136   2.342   7.264  0.3399 -0.4171  0.2381
  159SAPE   H6X17799   4.245   2.335   7.282  0.7782  1.7444 -1.3409
  159SAPE   H6Y17800   4.099   2.246   7.223 -0.5483  0.1405 -0.2844
  159SAPE   C3717801   4.056   2.359   7.396 -0.3425  0.3885  0.5875
  159SAPE   H7X17802   3.947   2.355   7.375  0.0573 -0.3255 -1.4573
  159SAPE   H7Y17803   4.077   2.452   7.455  1.4119  1.2012 -1.2597
  159SAPE   C3817804   4.101   2.238   7.479 -0.3299  0.7232 -0.1498
  159SAPE   H8X17805   4.212   2.234   7.474 -0.4353  0.9694 -4.3434
  159SAPE   H8Y17806   4.073   2.139   7.437  3.8974 -0.5638 -0.1622
  159SAPE   C3917807   4.055   2.236   7.624 -0.2852 -0.0953 -0.1041
  159SAPE   H9X17808   3.944   2.247   7.616 -0.2681 -0.0372 -0.2752
  159SAPE   H9Y17809   4.101   2.329   7.664  1.8487 -0.2291 -2.1394
  159SAPE  C31017810   4.096   2.125   7.714  0.8895  0.3197  0.0673
  159SAPE  H10X17811   4.204   2.118   7.738  0.3211 -2.0624  2.0958
  159SAPE  H10Y17812   4.091   2.034   7.650 -0.8579 -0.4001  1.2105
  159SAPE  C31117813   4.011   2.128   7.838  0.2403 -0.7533  0.5073
  159SAPE  H11X17814   3.953   2.033   7.845 -1.8181  0.6199  2.4413
  159SAPE  H11Y17815   3.934   2.207   7.823  1.8249  0.4522 -1.5834
  159SAPE  C31217816   4.080   2.149   7.969  0.1566 -0.0558  0.2726
  159SAPE  H12X17817   4.149   2.235   7.954 -0.2044  0.0528 -0.8875
  159SAPE  H12Y17818   4.146   2.064   7.992 -0.9327 -1.1620 -0.5767
  159SAPE  C31317819   3.975   2.175   8.078  0.1135 -0.0878 -0.4285
  159SAPE  H13X17820   3.890   2.106   8.062 -2.6721  3.4250 -1.4146
  159SAPE  H13Y17821   3.940   2.280   8.065  0.9502  0.0167 -1.9724
  159SAPE  C31417822   4.021   2.141   8.226 -0.1537  0.3982  0.5350
  159SAPE  H14X17823   4.080   2.047   8.233 -0.2556  0.1770 -1.2144
  159SAPE  H14Y17824   3.927   2.137   8.285 -0.7218  0.9012 -0.3148
  159SAPE  C31517825   4.094   2.261   8.283 -0.2552  0.0662 -0.3765
  159SAPE  H15X17826   4.018   2.341   8.275 -0.2954 -0.0090 -0.7458
  159SAPE  H15Y17827   4.184   2.292   8.226  1.9913  0.8972  3.4308
  159SAPE  C31617828   4.145   2.243   8.424 -0.0996  0.1599 -0.3400
  159SAPE  H16X17829   4.107   2.146   8.462 -1.4575  0.6363 -0.4523
  159SAPE  H16Y17830   4.108   2.325   8.488 -3.0159  0.7287 -2.6217
  159SAPE  C31717831   4.304   2.235   8.432  0.4849 -0.0038  0.1333
  159SAPE  H17X17832   4.336   2.213   8.536 -0.1889 -2.4627 -0.1445
  159SAPE  H17Y17833   4.336   2.335   8.394  2.7667 -1.7038 -2.5866
  159SAPE  C31817834   4.358   2.125   8.335  0.1494 -0.4892 -0.4360
  159SAPE  H18X17835   4.469   2.126   8.346  0.5080  0.5525 -3.6129
  159SAPE  H18Y17836   4.342   2.144   8.227  1.5367 -0.5795 -0.6652
  159SAPE  H18Z17837   4.312   2.029   8.366 -1.7376  0.8707  1.0833
  160SAPE     N17838   4.792   1.486   6.297  0.1243 -0.4359 -0.1962
  160SAPE   HN117839   4.876   1.532   6.259  0.7819 -2.4222 -1.2261
  160SAPE   HN217840   4.767   1.394   6.253 -2.0395 -0.5369  1.1579
  160SAPE   HN317841   4.708   1.544   6.276  0.0898 -0.2945  0.3387
  160SAPE   C1217842   4.800   1.460   6.452 -0.0302 -0.2774  0.1927
  160SAPE  H12A17843   4.825   1.554   6.506  1.3808  0.7732 -2.2102
  160SAPE  H12B17844   4.889   1.395   6.463 -0.4760 -1.1972 -1.5576
  160SAPE   C1117845   4.659   1.402   6.500  0.5029 -0.1126  0.2342
  160SAPE  H11A17846   4.580   1.480   6.506  0.4111 -0.2918  1.3928
  160SAPE  H11B17847   4.673   1.352   6.597 -0.6787 -1.3990 -0.2450
  160SAPE     P17848   4.637   1.156   6.430  0.0040 -0.0640 -0.3909
  160SAPE   O1317849   4.600   1.071   6.312  0.0200 -0.0398 -0.0498
  160SAPE   O1417850   4.772   1.129   6.485  0.3194  0.0705  0.0988
  160SAPE   O1217851   4.611   1.312   6.403  0.1480  0.5315 -0.0404
  160SAPE   O1117852   4.524   1.124   6.540  0.6249  0.0016 -0.2763
  160SAPE    C117853   4.393   1.176   6.532  0.7970 -0.0369  0.0280
  160SAPE    HA17854   4.395   1.287   6.536  0.1408 -0.0358  0.3475
  160SAPE    HB17855   4.347   1.135   6.439  0.1545  0.2303  0.2254
  160SAPE    C217856   4.304   1.112   6.634 -0.0317  0.4981 -0.3985
  160SAPE    HS17857   4.198   1.131   6.611  0.2743 -0.8485 -3.1536
  160SAPE   O2117858   4.345   1.170   6.758  0.5054 -0.5403  0.1951
  160SAPE   C2117859   4.252   1.172   6.850 -0.7062 -0.5943  0.0813
  160SAPE   O2217860   4.132   1.152   6.836 -0.1352  0.7897 -0.0797
  160SAPE   C2217861   4.306   1.216   6.985  0.8975  0.3479 -0.4962
  160SAPE   H2R17862   4.347   1.125   7.032  0.5966  0.6358  0.3356
  160SAPE   H2S17863   4.392   1.282   6.959  3.4208 -3.1197 -1.3207
  160SAPE    C317864   4.318   0.955   6.633 -0.1957  0.1583  0.4554
  160SAPE    HX17865   4.420   0.928   6.669  0.7856  2.3525 -0.5851
  160SAPE    HY17866   4.311   0.911   6.531 -1.6281 -2.0750  1.4824
  160SAPE   O3117867   4.222   0.884   6.719 -0.2382  0.2432 -0.0068
  160SAPE   C3117868   4.101   0.869   6.680 -0.1527 -0.5298  0.0163
  160SAPE   O3217869   4.049   0.907   6.575 -0.5912 -0.3740 -0.3240
  160SAPE   C3217870   4.014   0.804   6.789 -0.0476  0.0538  0.3203
  160SAPE   H2X17871   4.032   0.849   6.889 -2.0221 -0.5418  0.9689
  160SAPE   H2Y17872   4.062   0.704   6.798  2.8360  1.2638 -1.2200
  160SAPE   C2317873   4.203   1.291   7.071  0.1290 -0.0473  0.1080
  160SAPE   H3R17874   4.115   1.224   7.079  0.1153  0.0900  1.2772
  160SAPE   H3S17875   4.163   1.378   7.015 -1.0232 -0.7159 -0.1095
  160SAPE   C2417876   4.260   1.335   7.208  0.2626 -0.7604 -0.2972
  160SAPE   H4R17877   4.185   1.402   7.254 -0.4979 -0.8006 -1.4666
  160SAPE   H4S17878   4.349   1.400   7.194  0.0379 -0.9606 -2.8645
  160SAPE   C2517879   4.287   1.221   7.302  0.5996  0.3543  0.4965
  160SAPE   H5R17880   4.322   1.130   7.252  1.1983  1.6872 -1.5553
  160SAPE   C2617881   4.258   1.222   7.430 -0.3296  0.6061 -0.9489
  160SAPE   H6R17882   4.291   1.133   7.486 -1.8168 -0.9623 -2.5277
  160SAPE   C2717883   4.197   1.330   7.524 -0.2640 -0.1938 -0.6484
  160SAPE   H7R17884   4.167   1.281   7.619 -3.2419 -0.9492 -1.9094
  160SAPE   H7S17885   4.108   1.374   7.474  0.2698  2.2612  0.4764
  160SAPE   C2817886   4.297   1.431   7.554 -0.7760  0.1084  0.1331
  160SAPE   H8R17887   4.295   1.509   7.477 -0.4274 -1.6645 -1.6969
  160SAPE   C2917888   4.382   1.448   7.663  0.6724  0.6702 -0.1095
  160SAPE   H9R17889   4.453   1.532   7.666  2.3789 -0.7173 -0.9063
  160SAPE  C21017890   4.387   1.345   7.775  0.2405  0.8016 -0.6955
  160SAPE  H10R17891   4.479   1.361   7.834  0.9960 -1.2224 -1.2898
  160SAPE  H10S17892   4.391   1.239   7.741 -2.1096 -0.1472  1.7611
  160SAPE  C21117893   4.266   1.354   7.866  0.4376 -0.0893  0.5063
  160SAPE  H11R17894   4.180   1.418   7.841  0.6921  0.2009  0.3777
  160SAPE  C21217895   4.265   1.299   7.988  0.0574 -0.0281  0.4867
  160SAPE  H12R17896   4.181   1.332   8.051  0.1670  1.1087  0.0417
  160SAPE  C21317897   4.382   1.221   8.053  0.4294  0.0319  1.2711
  160SAPE  H13R17898   4.444   1.301   8.099 -1.0445  1.5497  0.6849
  160SAPE  H13S17899   4.444   1.169   7.977  1.1735 -0.1069  1.9724
  160SAPE  C21417900   4.337   1.117   8.158  0.0402  0.1470 -0.2534
  160SAPE  H14R17901   4.336   1.012   8.124 -1.3629 -0.1258  0.6342
  160SAPE  C21517902   4.315   1.140   8.288  0.1575 -0.2722 -0.2160
  160SAPE  H15R17903   4.264   1.062   8.346 -1.6922  1.3499  0.4068
  160SAPE  C21617904   4.317   1.280   8.352 -0.4319 -0.4642 -0.0277
  160SAPE  H16R17905   4.315   1.363   8.278  0.9347 -1.2326 -0.9503
  160SAPE  H16S17906   4.413   1.285   8.408 -1.5768 -1.9354  2.1569
  160SAPE  C21717907   4.208   1.311   8.464  0.5532 -0.0973 -0.0493
  160SAPE  H17R17908   4.107   1.286   8.424 -0.0193  2.3525 -0.2171
  160SAPE  H17S17909   4.208   1.421   8.476  0.8761 -0.2843  1.8363
  160SAPE  C21817910   4.256   1.255   8.598  0.1347  1.9250  0.1967
  160SAPE  H18R17911   4.223   1.328   8.675 -0.7192  0.3722  1.3399
  160SAPE  H18S17912   4.367   1.253   8.606  0.1395 -1.2483 -0.2008
  160SAPE  C21917913   4.207   1.112   8.644  0.2683 -1.0614  0.5360
  160SAPE  H19R17914   4.261   1.029   8.594  0.8854 -0.1459 -0.3184
  160SAPE  H19S17915   4.102   1.098   8.610  0.9608  0.0392 -2.1516
  160SAPE  C22017916   4.237   1.086   8.792 -0.1651  0.6859 -0.5802
  160SAPE  H20R17917   4.184   0.998   8.834  2.2794 -0.2866  0.5073
  160SAPE  H20S17918   4.223   1.177   8.854  2.0875  0.3494  0.4476
  160SAPE  H20T17919   4.344   1.062   8.805 -0.6994 -0.3097  2.3887
  160SAPE   C3317920   3.860   0.795   6.761  0.4383  0.5255 -0.3550
  160SAPE   H3X17921   3.829   0.701   6.812  0.5261  0.0311 -1.2011
  160SAPE   H3Y17922   3.841   0.797   6.652  1.1590 -0.4105 -0.5082
  160SAPE   C3417923   3.781   0.905   6.830 -0.3834  0.1563  0.0939
  160SAPE   H4X17924   3.815   1.002   6.788 -1.1383  0.2495 -0.3093
  160SAPE   H4Y17925   3.805   0.914   6.938  1.4655 -1.2493 -0.1791
  160SAPE   C3517926   3.633   0.891   6.790  0.6011  0.1796  0.6880
  160SAPE   H5X17927   3.611   0.853   6.688 -0.6708  0.6424  0.7841
  160SAPE   H5Y17928   3.599   0.996   6.781  1.3901  0.3616 -0.3088
  160SAPE   C3617929   3.568   0.807   6.893 -0.8417 -0.1282 -0.1234
  160SAPE   H6X17930   3.621   0.712   6.914 -1.1402 -0.4092 -0.6316
  160SAPE   H6Y17931   3.471   0.769   6.854 -0.1432 -0.1633 -1.8979
  160SAPE   C3717932   3.543   0.869   7.032  0.2479 -0.3139 -0.3643
  160SAPE   H7X17933   3.476   0.956   7.016  0.2085  0.0764  1.8266
  160SAPE   H7Y17934   3.635   0.914   7.075  1.3478  0.7474 -3.5956
  160SAPE   C3817935   3.478   0.785   7.142 -0.2620 -0.3464 -0.1824
  160SAPE   H8X17936   3.551   0.704   7.162  0.6308  0.1391 -1.3807
  160SAPE   H8Y17937   3.383   0.745   7.101 -0.6471 -0.1446  0.5055
  160SAPE   C3917938   3.470   0.858   7.276  0.6800 -0.4393  0.0224
  160SAPE   H9X17939   3.402   0.946   7.272  1.5146  0.2209  0.3005
  160SAPE   H9Y17940   3.566   0.902   7.309  0.3402  0.0075  0.4181
  160SAPE  C31017941   3.425   0.766   7.388 -0.2267 -0.3778  0.3515
  160SAPE  H10X17942   3.472   0.666   7.390 -0.6252 -0.6065 -1.0013
  160SAPE  H10Y17943   3.316   0.746   7.387 -0.4376  0.6216  1.7589
  160SAPE  C31117944   3.457   0.820   7.535  0.1178 -0.5755  0.2219
  160SAPE  H11X17945   3.400   0.915   7.544  0.4505 -0.3563  0.0149
  160SAPE  H11Y17946   3.565   0.837   7.551  0.1597  2.1944 -2.5466
  160SAPE  C31217947   3.415   0.723   7.644  0.1631 -0.2165  0.0991
  160SAPE  H12X17948   3.442   0.618   7.618  3.5112  0.6157  0.0049
  160SAPE  H12Y17949   3.306   0.719   7.665  0.0961  0.4879 -0.1005
  160SAPE  C31317950   3.479   0.756   7.784  0.8356 -0.1718  0.7617
  160SAPE  H13X17951   3.449   0.855   7.824 -0.5332 -0.4313  0.4079
  160SAPE  H13Y17952   3.587   0.753   7.761  1.0098  0.0010  1.5513
  160SAPE  C31417953   3.442   0.664   7.895 -0.3923 -0.4581  0.1485
  160SAPE  H14X17954   3.510   0.669   7.982  1.5328  1.7389 -1.4315
  160SAPE  H14Y17955   3.427   0.556   7.872 -3.8368 -0.2506  1.0994
  160SAPE  C31517956   3.307   0.710   7.954  0.8107  0.1994 -0.1912
  160SAPE  H15X17957   3.232   0.703   7.873 -1.3041 -1.3079  1.8308
  160SAPE  H15Y17958   3.317   0.817   7.981 -0.2751  0.2680 -0.0528
  160SAPE  C31617959   3.248   0.629   8.071 -0.7364  0.3172  0.7156
  160SAPE  H16X17960   3.312   0.542   8.098 -1.1099  0.1143  0.9583
  160SAPE  H16Y17961   3.155   0.581   8.032  0.9857 -0.5068 -2.6184
  160SAPE  C31717962   3.226   0.711   8.198  0.7137 -0.0749  0.1163
  160SAPE  H17X17963   3.189   0.810   8.163  0.4260 -1.0717 -2.5415
  160SAPE  H17Y17964   3.313   0.735   8.262  0.4439 -0.9582  0.8258
  160SAPE  C31817965   3.142   0.650   8.305  0.4899 -0.1950  0.1010
  160SAPE  H18X17966   3.186   0.550   8.324  3.5850  0.4585 -3.1176
  160SAPE  H18Y17967   3.035   0.645   8.274  1.1018 -1.7918 -1.8303
  160SAPE  H18Z17968   3.146   0.708   8.400 -1.5184 -2.0226  1.3586
  161SOPE     N17969   2.857   2.094  10.641  0.1510  0.2810 -0.3904
  161SOPE   HN117970   2.757   2.069  10.653  0.6107 -0.8334  1.3398
  161SOPE   HN217971   2.906   2.013  10.684 -0.5564  0.4373  0.7231
  161SOPE   HN317972   2.887   2.173  10.700  0.5248 -0.1158 -0.0444
  161SOPE   C1217973   2.895   2.121  10.494  0.4425 -0.2779 -0.3786
  161SOPE  H12A17974   2.809   2.160  10.435  0.5394  1.3654  0.5213
  161SOPE  H12B17975   2.937   2.031  10.446  1.8390  0.6195 -0.8579
  161SOPE   C1117976   3.011   2.219  10.490  0.2536  0.3994 -0.1973
  161SOPE  H11A17977   2.990   2.314  10.545 -3.5460  0.7755 -2.1180
  161SOPE  H11B17978   3.030   2.255  10.387  0.8429  0.5514 -0.0379
  161SOPE     P17979   3.236   2.210  10.614 -0.3807 -0.1998  0.0556
  161SOPE   O1317980   3.365   2.143  10.576  0.2990  0.4337 -0.0125
  161SOPE   O1417981   3.207   2.207  10.758 -0.2419 -0.4264  0.1123
  161SOPE   O1217982   3.127   2.141  10.530  0.5485 -0.3336  0.1850
  161SOPE   O1117983   3.236   2.361  10.577 -0.2404 -0.2148 -0.0077
  161SOPE    C117984   3.268   2.405  10.440 -0.1943 -0.6712 -0.0106
  161SOPE    HA17985   3.258   2.323  10.366 -0.9386  0.5996 -1.3552
  161SOPE    HB17986   3.373   2.439  10.436 -0.3565  0.1808  2.1166
  161SOPE    C217987   3.175   2.522  10.405 -1.0421  0.0680  0.2045
  161SOPE    HS17988   3.175   2.589  10.493 -0.9453 -0.7126  0.8095
  161SOPE   O2117989   3.044   2.480  10.370  0.3068 -0.6235  0.5284
  161SOPE   C2117990   2.955   2.576  10.355 -0.2904 -0.4565  0.1596
  161SOPE   O2217991   2.975   2.697  10.357  0.0249  0.2280 -0.3986
  161SOPE   C2217992   2.823   2.512  10.321 -0.7815 -0.6988  0.9714
  161SOPE   H2R17993   2.746   2.592  10.328  0.6070  0.7365 -0.0360
  161SOPE   H2S17994   2.802   2.442  10.405 -0.8113 -0.8234  0.8601
  161SOPE    C317995   3.253   2.598  10.295 -0.6197 -0.5302  0.3345
  161SOPE    HX17996   3.348   2.641  10.334 -0.8278  0.7290 -0.5055
  161SOPE    HY17997   3.207   2.691  10.255 -0.2666  0.4785  2.2146
  161SOPE   O3117998   3.278   2.504  10.189  0.0550  0.0111 -0.1725
  161SOPE   C3117999   3.340   2.550  10.079 -0.0869  0.2106  0.3009
  161SOPE   O3218000   3.382   2.665  10.070 -0.8358 -0.3395 -0.7525
  161SOPE   C3218001   3.341   2.439   9.976  0.7027  0.0884 -1.0341
  161SOPE   H2X18002   3.265   2.368  10.016 -1.0514  1.9578 -0.9541
  161SOPE   H2Y18003   3.445   2.399   9.974  0.4978 -0.4870 -0.2745
  161SOPE   C2318004   2.819   2.419  10.199 -0.0260 -0.4305  0.8499
  161SOPE   H3R18005   2.890   2.335  10.217  1.6546  1.3473  2.7944
  161SOPE   H3S18006   2.846   2.468  10.104  0.3639  3.1849  2.7517
  161SOPE   C2418007   2.675   2.359  10.191 -0.1334  0.2062 -0.5231
  161SOPE   H4R18008   2.652   2.299  10.282 -1.2764 -1.1666 -1.6766
  161SOPE   H4S18009   2.599   2.438  10.204 -0.0963  0.2737 -0.7252
  161SOPE   C2518010   2.655   2.280  10.063 -0.3957  0.6883 -0.0743
  161SOPE   H5R18011   2.700   2.331   9.975  0.1385 -0.3200 -0.3897
  161SOPE   H5S18012   2.712   2.186  10.075 -2.5034 -0.6365 -0.1288
  161SOPE   C2618013   2.516   2.228  10.033  0.1454 -0.2494  0.1555
  161SOPE   H6R18014   2.532   2.146   9.960  3.4249  0.8121 -0.4067
  161SOPE   H6S18015   2.465   2.186  10.122 -0.9917  0.8725  0.0586
  161SOPE   C2718016   2.427   2.347   9.971 -0.4267 -0.5505  0.2912
  161SOPE   H7R18017   2.392   2.411  10.055  1.3987  0.0881  0.5858
  161SOPE   H7S18018   2.475   2.412   9.895 -2.9170 -0.8921 -1.6611
  161SOPE   C2818019   2.297   2.308   9.896  0.2848  0.0669 -0.0132
  161SOPE   H8R18020   2.323   2.224   9.828 -1.2798  0.1439 -0.7280
  161SOPE   H8S18021   2.222   2.269   9.969  0.7792 -0.6308  0.1184
  161SOPE   C2918022   2.237   2.405   9.802 -0.5371 -0.7739 -0.0393
  161SOPE   H9118023   2.148   2.464   9.826  0.3289  0.1859  0.8590
  161SOPE  C21018024   2.276   2.422   9.676  0.0448 -0.3455  0.1228
  161SOPE  H10118025   2.211   2.486   9.616  1.7672  1.0657 -0.2598
  161SOPE  C21118026   2.403   2.362   9.612 -0.0891 -0.2634  0.5121
  161SOPE  H11R18027   2.476   2.319   9.684 -0.6296 -2.2973 -0.1363
  161SOPE  H11S18028   2.449   2.440   9.547 -2.6083  0.9752  0.1190
  161SOPE  C21218029   2.359   2.261   9.507 -0.6541  0.0560 -0.8498
  161SOPE  H12R18030   2.322   2.170   9.560 -0.3830  0.2081 -0.4035
  161SOPE  H12S18031   2.457   2.230   9.464 -0.6640  2.0679 -2.3959
  161SOPE  C21318032   2.271   2.288   9.390  0.1135 -0.0780 -0.1932
  161SOPE  H13R18033   2.276   2.390   9.346  1.5568  0.5530  1.3764
  161SOPE  H13S18034   2.167   2.277   9.426  0.4394 -0.0988  0.7547
  161SOPE  C21418035   2.292   2.175   9.292  0.2393  0.2053  0.0449
  161SOPE  H14R18036   2.324   2.084   9.346 -0.2405  0.0692  0.0986
  161SOPE  H14S18037   2.379   2.204   9.228  1.9512  0.2751  2.3233
  161SOPE  C21518038   2.178   2.141   9.190 -0.8726  0.2503 -0.4646
  161SOPE  H15R18039   2.095   2.092   9.245 -1.1986  1.7993  0.4471
  161SOPE  H15S18040   2.227   2.058   9.134 -0.3172  0.9019 -0.9516
  161SOPE  C21618041   2.114   2.259   9.117  0.2593  0.3996 -0.1278
  161SOPE  H16R18042   2.182   2.278   9.031 -0.0928  1.9458 -0.0916
  161SOPE  H16S18043   2.125   2.344   9.188  0.3358 -0.9515  1.5107
  161SOPE  C21718044   1.965   2.237   9.082 -0.1982 -0.1272  0.2373
  161SOPE  H17R18045   1.914   2.186   9.167  0.2123  0.4522  0.8392
  161SOPE  H17S18046   1.963   2.172   8.991 -1.9182  1.1315 -0.6424
  161SOPE  C21818047   1.887   2.366   9.064 -1.0257  0.2794  0.2275
  161SOPE  H18R18048   1.917   2.412   8.968 -1.2523 -0.9922 -0.4567
  161SOPE  H18S18049   1.914   2.441   9.142 -0.6984 -1.9274  2.3000
  161SOPE  H18T18050   1.779   2.346   9.050 -0.2644 -1.9087 -3.1752
  161SOPE   C3318051   3.296   2.490   9.835  1.1033  0.1433 -0.5621
  161SOPE   H3X18052   3.351   2.426   9.763  2.0413  0.9853 -0.6174
  161SOPE   H3Y18053   3.325   2.596   9.819 -0.6284  0.8258  0.6759
  161SOPE   C3418054   3.142   2.500   9.813  0.1716 -0.4770 -0.0618
  161SOPE   H4X18055   3.095   2.579   9.876  1.4923 -1.3716  2.1196
  161SOPE   H4Y18056   3.105   2.399   9.843  2.9862 -1.8381 -0.9944
  161SOPE   C3518057   3.109   2.500   9.663 -0.3449 -0.7806  0.4876
  161SOPE   H5X18058   3.140   2.404   9.616 -0.4391 -0.8402  0.5474
  161SOPE   H5Y18059   3.174   2.582   9.625  0.0194 -0.8092  1.0490
  161SOPE   C3618060   2.955   2.523   9.639 -0.0698 -0.1983  0.5335
  161SOPE   H6X18061   2.923   2.623   9.674  1.3769  0.7581 -0.8214
  161SOPE   H6Y18062   2.890   2.452   9.695  1.1590 -0.9188  1.0525
  161SOPE   C3718063   2.913   2.522   9.487  0.7780  0.1328  0.0467
  161SOPE   H7X18064   2.803   2.540   9.480  0.7324 -0.5982 -1.3728
  161SOPE   H7Y18065   2.938   2.421   9.449 -2.0090  0.1479 -2.0375
  161SOPE   C3818066   2.987   2.618   9.394 -0.0981 -0.1825  0.7290
  161SOPE   H8X18067   3.096   2.616   9.413 -0.0253  2.2408  0.7826
  161SOPE   H8Y18068   2.949   2.721   9.413 -1.2227  0.5596 -4.6471
  161SOPE   C3918069   2.951   2.597   9.246 -0.2645  0.3694 -0.4277
  161SOPE   H9X18070   2.843   2.617   9.231 -0.0727  0.1409 -2.1848
  161SOPE   H9Y18071   2.978   2.494   9.213 -2.3876 -1.2068  2.5269
  161SOPE  C31018072   3.020   2.701   9.147 -0.7310  0.6189  0.0290
  161SOPE  H10X18073   3.128   2.674   9.146 -0.7759  0.3058  1.8405
  161SOPE  H10Y18074   3.001   2.806   9.175  0.0946  0.7270  0.1973
  161SOPE  C31118075   2.967   2.685   9.006  0.5757  0.4181  0.2943
  161SOPE  H11X18076   2.858   2.696   8.992  0.3235 -0.3318  1.5772
  161SOPE  H11Y18077   2.988   2.580   8.975  0.4731  0.6016 -0.4051
  161SOPE  C31218078   3.042   2.770   8.900 -0.4550  0.0421  0.1893
  161SOPE  H12X18079   3.150   2.747   8.908 -0.3513  0.4477 -0.0852
  161SOPE  H12Y18080   3.032   2.879   8.920 -0.2532  0.1514 -0.3041
  161SOPE  C31318081   2.985   2.726   8.766  0.0363  0.2994  0.1346
  161SOPE  H13X18082   2.874   2.720   8.769 -0.0853  1.3779 -1.6722
  161SOPE  H13Y18083   3.006   2.617   8.762  1.0608  0.4777  0.4822
  161SOPE  C31418084   3.051   2.797   8.647  0.8484  0.3476  0.1722
  161SOPE  H14X18085   3.161   2.787   8.649  0.8117 -0.1084 -0.0325
  161SOPE  H14Y18086   3.032   2.907   8.656 -1.2456 -0.1069  1.8004
  161SOPE  C31518087   3.011   2.759   8.505 -0.1988  0.5054 -0.8725
  161SOPE  H15X18088   2.905   2.786   8.490 -0.7631 -0.1062  1.7610
  161SOPE  H15Y18089   3.019   2.649   8.499  3.4609  0.3955  3.5578
  161SOPE  C31618090   3.113   2.818   8.406  0.4363  0.6366  0.4533
  161SOPE  H16X18091   3.216   2.809   8.445 -0.0886 -2.1125  1.2766
  161SOPE  H16Y18092   3.087   2.926   8.401  0.1502  0.5322 -0.3685
  161SOPE  C31718093   3.097   2.773   8.259 -0.2368 -0.6532 -0.5093
  161SOPE  H17X18094   2.993   2.792   8.225 -1.6708 -1.9535  2.9136
  161SOPE  H17Y18095   3.106   2.663   8.247 -1.6746 -0.6414 -1.9114
  161SOPE  C31818096   3.191   2.835   8.158 -0.0491  0.2725  0.4548
  161SOPE  H18X18097   3.166   2.939   8.129 -0.1273  0.9980  2.9761
  161SOPE  H18Y18098   3.197   2.780   8.062  1.1041 -1.2680  1.3996
  161SOPE  H18Z18099   3.296   2.838   8.195 -0.1425  1.6943  0.6332
  162SOPE     N18100   2.314   1.538  10.975 -0.3033 -0.2297 -0.5129
  162SOPE   HN118101   2.407   1.558  11.017 -2.0184  0.2460  3.2706
  162SOPE   HN218102   2.245   1.534  11.053 -0.4659 -1.8748 -0.7142
  162SOPE   HN318103   2.305   1.447  10.925  3.7650 -1.0711  0.0848
  162SOPE   C1218104   2.279   1.648  10.887 -0.0618 -0.1020 -0.5286
  162SOPE  H12A18105   2.364   1.687  10.826  0.1738  0.5999  0.2468
  162SOPE  H12B18106   2.253   1.733  10.954  1.8540 -1.2469  1.7206
  162SOPE   C1118107   2.157   1.609  10.796  0.5079  0.9972  0.4298
  162SOPE  H11A18108   2.177   1.507  10.756  1.5539  1.0763  0.7308
  162SOPE  H11B18109   2.144   1.683  10.715  1.2094  1.1215  0.4201
  162SOPE     P18110   1.950   1.714  10.897  0.2825 -0.0536 -0.1999
  162SOPE   O1318111   2.041   1.834  10.897 -0.5845  0.1384  0.6157
  162SOPE   O1418112   1.852   1.706  11.009 -0.2208  0.0896  0.0684
  162SOPE   O1218113   2.039   1.591  10.877  0.0851 -0.1118  0.0910
  162SOPE   O1118114   1.873   1.719  10.761  0.9014  0.5746  0.0667
  162SOPE    C118115   1.847   1.596  10.689  0.0352 -0.3601  0.2672
  162SOPE    HA18116   1.792   1.518  10.746  1.2381 -1.4073  0.0334
  162SOPE    HB18117   1.941   1.554  10.647  0.5434  1.2820 -0.2896
  162SOPE    C218118   1.748   1.622  10.569  0.0670 -0.0127  0.4004
  162SOPE    HS18119   1.713   1.527  10.524  1.5812  0.2536 -1.4546
  162SOPE   O2118120   1.797   1.708  10.468 -0.1160  0.0352 -0.0296
  162SOPE   C2118121   1.888   1.652  10.388  0.7437  0.2544 -0.0900
  162SOPE   O2218122   1.935   1.541  10.398  0.5664 -0.6321  0.9654
  162SOPE   C2218123   1.926   1.768  10.288 -0.2728 -0.3721 -0.4569
  162SOPE   H2R18124   1.974   1.850  10.345  2.1341 -0.3851 -2.3682
  162SOPE   H2S18125   1.831   1.814  10.253 -0.4238  0.7539  1.3544
  162SOPE    C318126   1.619   1.695  10.619  0.7324  0.6609  0.0548
  162SOPE    HX18127   1.645   1.803  10.631  1.2549  0.6955 -1.3527
  162SOPE    HY18128   1.601   1.655  10.721  0.0082  0.5404 -0.1141
  162SOPE   O3118129   1.504   1.665  10.536 -0.2455 -0.5911 -0.0447
  162SOPE   C3118130   1.429   1.764  10.494  0.1317 -0.6560  0.2326
  162SOPE   O3218131   1.459   1.886  10.516  0.0011 -0.1927  0.5000
  162SOPE   C3218132   1.302   1.705  10.428  0.3139  0.8291  0.1858
  162SOPE   H2X18133   1.222   1.753  10.488 -0.9168  0.9594 -1.5562
  162SOPE   H2Y18134   1.293   1.597  10.452 -1.0144  1.2065  1.4239
  162SOPE   C2318135   2.018   1.711  10.179 -0.0691  0.2287  0.5415
  162SOPE   H3R18136   1.959   1.632  10.128  2.4239 -0.9663 -0.5839
  162SOPE   H3S18137   2.109   1.674  10.230 -0.7728  0.1064  1.7404
  162SOPE   C2418138   2.086   1.802  10.076  0.3090 -0.0274  0.0804
  162SOPE   H4R18139   2.129   1.890  10.130 -3.0225  1.5023  0.3366
  162SOPE   H4S18140   2.166   1.745  10.023 -0.1951 -1.3552  0.7270
  162SOPE   C2518141   1.993   1.861   9.963  0.3147 -0.2587  0.4424
  162SOPE   H5R18142   1.945   1.781   9.903 -0.9811 -0.2183  1.4036
  162SOPE   H5S18143   1.906   1.918  10.002 -0.3552 -1.1950  0.3292
  162SOPE   C2618144   2.074   1.949   9.867  0.1643  0.1283  0.0891
  162SOPE   H6R18145   2.104   2.040   9.924  2.0722 -1.1328  1.1594
  162SOPE   H6S18146   2.166   1.898   9.830  2.7724  2.7421  2.6679
  162SOPE   C2718147   1.989   1.993   9.751  0.1285 -0.2027 -0.0169
  162SOPE   H7R18148   1.952   1.904   9.696 -1.7972  0.7869 -0.3901
  162SOPE   H7S18149   1.894   2.041   9.783 -0.2127  0.3941 -1.8724
  162SOPE   C2818150   2.039   2.094   9.643  0.5288 -0.0530 -0.3655
  162SOPE   H8R18151   2.063   2.191   9.693  0.0506  0.1696 -0.5640
  162SOPE   H8S18152   2.140   2.059   9.615  0.7599  1.0009 -0.8930
  162SOPE   C2918153   1.952   2.124   9.521 -0.1214  0.2361 -0.0863
  162SOPE   H9118154   1.964   2.053   9.439 -0.2876  1.6540 -1.3636
  162SOPE  C21018155   1.876   2.232   9.503  1.0959  0.2636  0.0564
  162SOPE  H10118156   1.823   2.241   9.406  1.0569 -1.1362 -0.0614
  162SOPE  C21118157   1.864   2.349   9.595 -0.1497  0.4182  0.3311
  162SOPE  H11R18158   1.811   2.420   9.528 -0.7879  1.0151  1.4582
  162SOPE  H11S18159   1.962   2.396   9.617  1.0182 -1.4404 -0.7349
  162SOPE  C21218160   1.778   2.325   9.719 -0.3734  0.2844  0.0501
  162SOPE  H12R18161   1.800   2.226   9.765 -2.5138 -0.0682  0.3368
  162SOPE  H12S18162   1.670   2.318   9.697 -0.3155 -2.3435  0.4218
  162SOPE  C21318163   1.796   2.444   9.807 -0.3633 -0.0287 -0.9650
  162SOPE  H13R18164   1.768   2.528   9.740  0.7946  2.1369  1.1940
  162SOPE  H13S18165   1.905   2.454   9.826 -0.5099 -0.3494  0.1220
  162SOPE  C21418166   1.713   2.451   9.932  0.0358  0.5021 -0.6655
  162SOPE  H14R18167   1.745   2.369   9.999 -1.2920  1.9711  1.8702
  162SOPE  H14S18168   1.607   2.423   9.916  0.2160 -1.5024  1.3246
  162SOPE  C21518169   1.717   2.590  10.000  0.2736 -0.0671  0.2880
  162SOPE  H15R18170   1.678   2.676   9.941  0.6648 -0.1193 -0.0528
  162SOPE  H15S18171   1.828   2.594   9.998  0.2833  0.6341  1.7834
  162SOPE  C21618172   1.642   2.581  10.131  0.0141  0.5689 -0.2045
  162SOPE  H16R18173   1.688   2.500  10.192 -1.6359 -0.2095  0.0241
  162SOPE  H16S18174   1.539   2.541  10.121  0.1776  0.2250 -0.5269
  162SOPE  C21718175   1.636   2.715  10.210  0.5772 -0.1937  0.9643
  162SOPE  H17R18176   1.637   2.809  10.150 -2.0266 -0.3322  0.6340
  162SOPE  H17S18177   1.718   2.712  10.285 -0.3355 -1.4257  1.9344
  162SOPE  C21818178   1.511   2.738  10.292 -0.2540  0.2304 -0.2704
  162SOPE  H18R18179   1.519   2.819  10.367  1.9137 -1.0327  0.9094
  162SOPE  H18S18180   1.476   2.647  10.346 -1.1569  1.8877  2.0039
  162SOPE  H18T18181   1.430   2.771  10.224 -0.7585 -1.9777 -0.7745
  162SOPE   C3318182   1.300   1.722  10.280 -0.0480 -0.5904 -0.1534
  162SOPE   H3X18183   1.342   1.817  10.241  0.7737 -0.7393  0.3733
  162SOPE   H3Y18184   1.191   1.740  10.263  0.1252 -0.5729 -1.2503
  162SOPE   C3418185   1.344   1.608  10.189 -0.3434 -0.9060 -0.0048
  162SOPE   H4X18186   1.316   1.632  10.084  1.8087 -1.5099 -0.7532
  162SOPE   H4Y18187   1.282   1.517  10.205 -1.0921 -0.4808 -0.4475
  162SOPE   C3518188   1.496   1.564  10.208  0.2275 -0.3897  0.1229
  162SOPE   H5X18189   1.502   1.519  10.310  2.2793  2.4127  1.3003
  162SOPE   H5Y18190   1.554   1.659  10.209  2.1398 -1.5232  1.8136
  162SOPE   C3618191   1.566   1.473  10.100  0.3232 -0.4856  0.1061
  162SOPE   H6X18192   1.512   1.515  10.012 -0.1955 -1.5971 -0.1089
  162SOPE   H6Y18193   1.550   1.363  10.103 -4.8708  0.0733 -2.0873
  162SOPE   C3718194   1.717   1.505  10.073 -0.2635  0.0428  0.0031
  162SOPE   H7X18195   1.777   1.448  10.146 -0.3056  1.1968  0.9581
  162SOPE   H7Y18196   1.742   1.613  10.081  1.0061 -0.3139  0.9517
  162SOPE   C3818197   1.756   1.446   9.944 -0.8454 -0.0915 -0.5708
  162SOPE   H8X18198   1.703   1.499   9.862 -1.2231  1.0870  0.4251
  162SOPE   H8Y18199   1.721   1.340   9.941  1.0366 -0.7379 -0.4589
  162SOPE   C3918200   1.911   1.443   9.918 -0.1747  0.5334 -0.4220
  162SOPE   H9X18201   1.954   1.423  10.018 -1.1868  0.2961 -0.0231
  162SOPE   H9Y18202   1.952   1.536   9.875  1.1506  0.3903  0.5238
  162SOPE  C31018203   1.948   1.320   9.841 -0.4092  0.2844  0.2144
  162SOPE  H10X18204   1.877   1.237   9.862 -0.4685  0.4437  0.6268
  162SOPE  H10Y18205   2.051   1.279   9.856 -0.3228  1.4446  3.0940
  162SOPE  C31118206   1.942   1.340   9.687  0.0361 -0.3606  0.4117
  162SOPE  H11X18207   2.036   1.295   9.647 -0.2853 -2.2303  1.6966
  162SOPE  H11Y18208   1.940   1.451   9.675  2.3104 -0.3754 -0.4141
  162SOPE  C31218209   1.822   1.278   9.620 -0.1763 -0.4008  0.5541
  162SOPE  H12X18210   1.741   1.329   9.676  1.2612  0.3448  1.9904
  162SOPE  H12Y18211   1.815   1.168   9.632 -0.8866 -0.3279  0.8552
  162SOPE  C31318212   1.806   1.316   9.469 -0.0511 -0.3345  0.1544
  162SOPE  H13X18213   1.834   1.422   9.455  2.6527 -0.7005  2.2352
  162SOPE  H13Y18214   1.703   1.289   9.436 -0.2667  0.8485 -0.1409
  162SOPE  C31418215   1.883   1.217   9.380 -0.2609  0.4119 -0.5614
  162SOPE  H14X18216   1.838   1.115   9.380 -0.0359  0.3058  0.4897
  162SOPE  H14Y18217   1.986   1.214   9.422 -0.9801 -2.4560  1.0932
  162SOPE  C31518218   1.876   1.262   9.234  0.1614 -1.0707 -0.2846
  162SOPE  H15X18219   1.774   1.302   9.214 -0.2107 -1.1154  1.4382
  162SOPE  H15Y18220   1.897   1.171   9.174 -0.0196 -1.6713  0.5457
  162SOPE  C31618221   1.987   1.358   9.204  0.2318 -0.2381 -0.5100
  162SOPE  H16X18222   2.076   1.295   9.224 -0.9416 -1.5650  0.6022
  162SOPE  H16Y18223   1.973   1.445   9.272 -0.3011 -0.4660 -0.3315
  162SOPE  C31718224   1.987   1.406   9.053 -0.2204  0.8207 -0.3456
  162SOPE  H17X18225   2.073   1.476   9.047  0.0597  0.4252 -1.0056
  162SOPE  H17Y18226   1.899   1.466   9.018  0.2008  0.4576 -2.0679
  162SOPE  C31818227   2.011   1.295   8.951 -0.6368 -0.0669 -0.6845
  162SOPE  H18X18228   2.086   1.317   8.871  0.5310  0.0948  0.4244
  162SOPE  H18Y18229   1.916   1.260   8.906 -0.3512  0.8535 -2.0320
  162SOPE  H18Z18230   2.052   1.217   9.019 -1.4694 -0.1299 -0.2532
  163SOPE     N18231   2.066   6.238  11.063 -0.2526 -0.6333 -0.3666
  163SOPE   HN118232   1.965   6.251  11.082 -0.6501 -0.5417 -2.4729
  163SOPE   HN218233   2.115   6.169  11.124 -0.3725  0.6726  1.2476
  163SOPE   HN318234   2.107   6.330  11.089 -2.2786  0.6461 -1.6320
  163SOPE   C1218235   2.095   6.210  10.917  0.6148  0.1505 -0.8110
  163SOPE  H12A18236   2.203   6.187  10.907 -0.0260 -1.6825 -3.9238
  163SOPE  H12B18237   2.085   6.312  10.874 -0.1361  0.0851 -0.7862
  163SOPE   C1118238   1.988   6.114  10.863 -0.3642 -0.5143 -0.1890
  163SOPE  H11A18239   2.017   6.008  10.879  1.0835  0.3695  3.6671
  163SOPE  H11B18240   1.992   6.122  10.752  0.1054  0.7712 -0.0909
  163SOPE     P18241   1.722   6.117  10.856  0.0523  0.0875  0.3082
  163SOPE   O1318242   1.635   6.218  10.928 -0.4055 -0.0359  0.1050
  163SOPE   O1418243   1.683   5.974  10.865  0.0798  0.3976  0.1246
  163SOPE   O1218244   1.860   6.133  10.921 -0.2002 -0.0679  0.2076
  163SOPE   O1118245   1.749   6.161  10.712  0.5783 -0.0101  0.2023
  163SOPE    C118246   1.645   6.174  10.618  0.6518  0.0613  0.2627
  163SOPE    HA18247   1.589   6.270  10.620  2.4555  1.1663 -0.4604
  163SOPE    HB18248   1.576   6.087  10.624 -1.5264  1.8278  1.2919
  163SOPE    C218249   1.693   6.155  10.469  0.5783  0.2219 -0.5035
  163SOPE    HS18250   1.741   6.248  10.431 -0.6863  1.1980  0.2679
  163SOPE   O2118251   1.594   6.097  10.384  0.5163 -0.0528 -0.0827
  163SOPE   C2118252   1.491   6.176  10.363  0.4052 -0.5011  0.3026
  163SOPE   O2218253   1.469   6.285  10.412 -0.1440  0.3484  0.2260
  163SOPE   C2218254   1.391   6.118  10.263  0.1947 -0.1185  0.0838
  163SOPE   H2R18255   1.306   6.189  10.261 -1.1211 -1.6495  0.8162
  163SOPE   H2S18256   1.347   6.025  10.305 -0.8947 -0.5886 -2.0369
  163SOPE    C318257   1.814   6.055  10.473 -0.1114 -0.2627  0.6806
  163SOPE    HX18258   1.797   5.971  10.544  1.4809 -1.4655 -0.3339
  163SOPE    HY18259   1.903   6.110  10.509  0.2653  0.6737 -1.6213
  163SOPE   O3118260   1.839   5.995  10.343 -0.0578 -0.0583  0.1720
  163SOPE   C3118261   1.953   5.936  10.324 -0.5592 -0.5813  0.1037
  163SOPE   O3218262   2.055   5.949  10.390  0.0192 -0.1089  1.1671
  163SOPE   C3218263   1.937   5.856  10.199 -0.8783 -0.0634  0.3058
  163SOPE   H2X18264   1.833   5.817  10.191 -0.6548 -0.4945 -0.6893
  163SOPE   H2Y18265   2.017   5.779  10.193  0.6010  1.5911 -2.3455
  163SOPE   C2318266   1.455   6.093  10.126  0.1203 -0.1842 -1.0187
  163SOPE   H3R18267   1.545   6.028  10.133  1.0531  1.2372  0.7019
  163SOPE   H3S18268   1.498   6.193  10.104  0.3787  0.9839  4.1068
  163SOPE   C2418269   1.355   6.049  10.022  0.1950  0.1809  0.6103
  163SOPE   H4R18270   1.295   5.965  10.062 -0.1737 -0.8523 -1.9808
  163SOPE   H4S18271   1.284   6.132  10.006 -0.3260 -0.2090  0.8974
  163SOPE   C2518272   1.429   6.007   9.892 -0.2591 -0.6639  0.1362
  163SOPE   H5R18273   1.500   6.087   9.861 -2.1402  1.1270  0.3438
  163SOPE   H5S18274   1.484   5.916   9.924 -1.4664 -2.0959 -1.7135
  163SOPE   C2618275   1.340   5.994   9.772  0.0280 -0.8532  0.3749
  163SOPE   H6R18276   1.272   5.906   9.776 -0.3248 -0.6786 -1.4025
  163SOPE   H6S18277   1.263   6.074   9.773  0.1246 -0.7651  0.7059
  163SOPE   C2718278   1.417   5.989   9.641 -0.3829 -0.2456  0.0625
  163SOPE   H7R18279   1.501   6.062   9.641  0.0075 -0.6932 -0.1170
  163SOPE   H7S18280   1.462   5.888   9.628 -1.8152 -0.8410 -0.3176
  163SOPE   C2818281   1.331   6.020   9.519 -0.5062 -0.5833 -0.7279
  163SOPE   H8R18282   1.250   5.946   9.507  0.6052 -2.0783  0.7680
  163SOPE   H8S18283   1.274   6.114   9.537 -1.7726 -1.7334  1.4987
  163SOPE   C2918284   1.391   6.051   9.386 -0.4750 -0.1844 -0.4035
  163SOPE   H9118285   1.495   6.085   9.404 -1.0961  2.9476 -2.3989
  163SOPE  C21018286   1.338   6.036   9.264  0.0481 -0.8538 -0.6196
  163SOPE  H10118287   1.398   6.069   9.177  2.0608 -0.3731  0.9077
  163SOPE  C21118288   1.197   5.986   9.241  1.0144 -0.0059 -0.5752
  163SOPE  H11R18289   1.119   6.064   9.250 -0.8171 -1.7059 -1.3952
  163SOPE  H11S18290   1.169   5.905   9.311  3.2467  1.3454  1.9633
  163SOPE  C21218291   1.185   5.919   9.098 -0.3302 -0.0576 -0.0108
  163SOPE  H12R18292   1.087   5.869   9.105 -0.1911 -0.6464 -1.9306
  163SOPE  H12S18293   1.260   5.840   9.076 -0.6274 -0.4664  0.4495
  163SOPE  C21318294   1.179   6.012   8.977 -0.4309 -0.1806 -0.0436
  163SOPE  H13R18295   1.286   6.041   8.969 -0.1929 -0.0307  2.9776
  163SOPE  H13S18296   1.117   6.101   9.000 -0.1880  0.3371 -1.3768
  163SOPE  C21418297   1.134   5.930   8.855  0.5540  0.7031  0.4598
  163SOPE  H14R18298   1.030   5.904   8.886  0.7811  1.0620  1.5457
  163SOPE  H14S18299   1.195   5.837   8.859 -0.1014  0.3058  1.5610
  163SOPE  C21518300   1.138   6.005   8.723 -0.1403  0.4318 -0.7089
  163SOPE  H15R18301   1.244   6.003   8.690  0.0811  0.5267 -0.0127
  163SOPE  H15S18302   1.119   6.114   8.736 -0.2094  0.6409 -2.5049
  163SOPE  C21618303   1.038   5.952   8.617  0.1087  0.0848  0.3338
  163SOPE  H16R18304   0.944   5.981   8.669  1.0728  0.2852  1.9864
  163SOPE  H16S18305   1.038   5.842   8.605  1.3621  0.0964  0.1780
  163SOPE  C21718306   1.043   6.032   8.482  0.6495  0.4325 -0.4472
  163SOPE  H17R18307   1.147   6.038   8.442  0.1948  0.0104 -1.6946
  163SOPE  H17S18308   1.015   6.136   8.510  0.3339  0.8137 -2.1130
  163SOPE  C21818309   0.944   5.973   8.383 -0.3311  0.5493  0.2629
  163SOPE  H18R18310   0.859   5.930   8.442  2.0674 -1.4595  2.3885
  163SOPE  H18S18311   0.993   5.896   8.320  2.2152 -1.0760  4.0279
  163SOPE  H18T18312   0.902   6.057   8.324 -1.0855  0.5864  0.8477
  163SOPE   C3318313   1.959   5.947  10.078 -0.3697 -0.2115 -0.6388
  163SOPE   H3X18314   2.060   5.992  10.072 -0.7558  0.7635  0.1739
  163SOPE   H3Y18315   1.891   6.034  10.083 -1.1673 -0.9235  2.0281
  163SOPE   C3418316   1.935   5.876   9.939  0.6969  0.4203  0.1362
  163SOPE   H4X18317   1.846   5.809   9.941  1.8144 -1.1057  0.1884
  163SOPE   H4Y18318   2.025   5.815   9.917 -0.6054 -1.6228  0.3296
  163SOPE   C3518319   1.928   5.986   9.822  0.2301  0.6754  0.2046
  163SOPE   H5X18320   2.016   6.052   9.834  0.0061  0.9020  0.6148
  163SOPE   H5Y18321   1.835   6.047   9.827 -0.8143 -1.0001  1.4885
  163SOPE   C3618322   1.935   5.918   9.684 -1.2639 -0.1762 -0.0703
  163SOPE   H6X18323   2.033   5.866   9.675 -0.3703  1.2402  1.2248
  163SOPE   H6Y18324   1.942   6.007   9.619  3.0340 -1.2346 -1.2357
  163SOPE   C3718325   1.819   5.829   9.646  0.6203  0.1422  0.0129
  163SOPE   H7X18326   1.725   5.843   9.704 -0.5768  0.6440 -2.0021
  163SOPE   H7Y18327   1.850   5.722   9.650 -1.7403 -0.5415  1.1513
  163SOPE   C3818328   1.774   5.853   9.497  0.2120  0.1403  0.4746
  163SOPE   H8X18329   1.712   5.944   9.483  1.5380  0.8118 -1.1908
  163SOPE   H8Y18330   1.706   5.766   9.482  0.3913 -0.7328  4.1278
  163SOPE   C3918331   1.882   5.844   9.385  0.0518  0.5413 -0.0497
  163SOPE   H9X18332   1.958   5.770   9.418 -2.5524 -1.7561  0.9626
  163SOPE   H9Y18333   1.934   5.942   9.378  1.3457  0.2291  3.8948
  163SOPE  C31018334   1.824   5.805   9.250 -0.1026 -0.0703 -0.6166
  163SOPE  H10X18335   1.758   5.716   9.261 -0.9328  0.6639  0.3439
  163SOPE  H10Y18336   1.915   5.788   9.188  0.9979  0.1362  0.9305
  163SOPE  C31118337   1.755   5.923   9.189  0.2161 -0.5359  0.6169
  163SOPE  H11X18338   1.817   6.009   9.224  0.3255 -0.5152  0.3757
  163SOPE  H11Y18339   1.662   5.928   9.249  0.3162 -0.1184  0.7443
  163SOPE  C31218340   1.746   5.919   9.042  0.1064  0.0427 -1.0341
  163SOPE  H12X18341   1.818   5.846   9.000  0.7798 -0.2572  0.5949
  163SOPE  H12Y18342   1.765   6.022   9.005 -0.5916  0.1405 -1.1398
  163SOPE  C31318343   1.612   5.877   8.980 -0.6869 -0.8494 -0.0967
  163SOPE  H13X18344   1.612   5.928   8.881  1.1718  0.8932  0.7633
  163SOPE  H13Y18345   1.532   5.909   9.050  0.7495 -1.5376  1.9118
  163SOPE  C31418346   1.598   5.720   8.975  0.2301 -0.6082  0.4069
  163SOPE  H14X18347   1.602   5.689   9.082 -2.9210 -0.4743  0.6319
  163SOPE  H14Y18348   1.688   5.680   8.924 -1.0639 -2.3853 -0.5320
  163SOPE  C31518349   1.467   5.675   8.908  0.1174 -0.8482 -0.4452
  163SOPE  H15X18350   1.399   5.761   8.924  1.2633 -0.2840  1.6378
  163SOPE  H15Y18351   1.425   5.583   8.955  2.7051 -2.3844 -1.0269
  163SOPE  C31618352   1.455   5.665   8.757 -0.0606  0.4270  0.5870
  163SOPE  H16X18353   1.521   5.597   8.700  0.1980  1.8007 -0.7859
  163SOPE  H16Y18354   1.459   5.761   8.701 -1.2241  0.4570  0.5281
  163SOPE  C31718355   1.321   5.606   8.702 -0.0614 -0.2894 -0.1975
  163SOPE  H17X18356   1.229   5.664   8.724 -0.3277 -1.2221  1.1846
  163SOPE  H17Y18357   1.306   5.506   8.748  2.1443 -1.6033 -2.1988
  163SOPE  C31818358   1.323   5.572   8.550 -0.0640  0.1360 -0.6282
  163SOPE  H18X18359   1.352   5.653   8.480 -0.0753  0.0366 -0.7476
  163SOPE  H18Y18360   1.220   5.540   8.523  0.1026 -0.6714 -0.3152
  163SOPE  H18Z18361   1.390   5.486   8.528 -0.0124  0.3439 -1.2916
  164SOPE     N18362   5.251   4.444  11.107 -0.6283 -0.4574 -0.5482
  164SOPE   HN118363   5.350   4.475  11.118 -1.7327  2.6717  0.8918
  164SOPE   HN218364   5.192   4.508  11.051  0.0938  1.0338  0.3693
  164SOPE   HN318365   5.211   4.442  11.202  0.6685  0.8676  0.0464
  164SOPE   C1218366   5.243   4.313  11.041  0.9447 -0.2179  0.6919
  164SOPE  H12A18367   5.158   4.254  11.082 -0.2262 -0.0854 -1.5247
  164SOPE  H12B18368   5.323   4.246  11.081 -1.3415 -3.9517 -0.6642
  164SOPE   C1118369   5.232   4.330  10.895  0.2419  1.0206 -0.5589
  164SOPE  H11A18370   5.333   4.335  10.849  0.8147 -0.0410  0.5654
  164SOPE  H11B18371   5.177   4.422  10.863  0.5233  1.3860  0.0112
  164SOPE     P18372   5.233   4.100  10.764 -0.3437  0.0455  0.0658
  164SOPE   O1318373   5.148   3.982  10.752  0.2560  0.3097 -0.7172
  164SOPE   O1418374   5.372   4.092  10.811  0.6245 -0.3847  0.0977
  164SOPE   O1218375   5.155   4.212  10.846 -0.5200  0.8904  0.5645
  164SOPE   O1118376   5.235   4.167  10.624 -0.5303  0.3654 -0.5865
  164SOPE    C118377   5.270   4.091  10.510  0.1107 -0.0655 -0.1253
  164SOPE    HA18378   5.268   4.165  10.428 -0.9034  0.3997  0.3124
  164SOPE    HB18379   5.200   4.006  10.496  1.5237 -0.9935 -1.8299
  164SOPE    C218380   5.416   4.029  10.513  0.5545  0.4942 -0.1088
  164SOPE    HS18381   5.433   3.973  10.608  1.1704 -0.4225 -0.7587
  164SOPE   O2118382   5.508   4.141  10.504 -0.1360 -0.9164  0.1617
  164SOPE   C2118383   5.624   4.107  10.554  0.3774 -0.0778  0.4006
  164SOPE   O2218384   5.655   3.988  10.588 -0.0210  0.2703 -0.3166
  164SOPE   C2218385   5.709   4.235  10.575  0.2093  0.1020  0.7972
  164SOPE   H2R18386   5.699   4.254  10.684 -3.8305  0.1062  0.4871
  164SOPE   H2S18387   5.671   4.321  10.515  0.6722  0.8630  1.5829
  164SOPE    C318388   5.417   3.916  10.404 -0.0958 -0.3559 -0.0451
  164SOPE    HX18389   5.334   3.852  10.441 -0.7050 -0.7008 -1.9652
  164SOPE    HY18390   5.510   3.854  10.402 -0.4012 -0.9481  2.2036
  164SOPE   O3118391   5.385   3.973  10.273  0.1888 -0.0484 -0.4760
  164SOPE   C3118392   5.491   3.995  10.196  1.0804  0.0803 -0.7435
  164SOPE   O3218393   5.605   3.959  10.218  0.0847  0.2263 -0.7323
  164SOPE   C3218394   5.448   4.069  10.072  0.2634 -0.4825 -0.6079
  164SOPE   H2X18395   5.474   4.174  10.099 -0.7139 -0.3718 -0.0963
  164SOPE   H2Y18396   5.339   4.059  10.055  0.4771  2.2600 -3.9934
  164SOPE   C2318397   5.861   4.215  10.533  0.1546  0.1112 -0.3646
  164SOPE   H3R18398   5.891   4.108  10.536  0.5100  0.2241  0.0977
  164SOPE   H3S18399   5.919   4.262  10.615  2.0191  0.0345 -1.6097
  164SOPE   C2418400   5.900   4.287  10.401 -0.3276  0.8067 -0.2282
  164SOPE   H4R18401   5.851   4.387  10.391 -1.6206  0.3811  1.5404
  164SOPE   H4S18402   6.009   4.307  10.398  0.0332 -0.9090  0.7998
  164SOPE   C2518403   5.872   4.211  10.272 -0.1501  0.0640 -0.0790
  164SOPE   H5R18404   5.945   4.127  10.266 -0.9997 -0.6469 -0.5775
  164SOPE   H5S18405   5.773   4.161  10.268 -0.5450  0.8384 -0.1162
  164SOPE   C2618406   5.877   4.305  10.151  0.3690 -0.5706 -0.3033
  164SOPE   H6R18407   5.810   4.391  10.173  1.8451  1.1252 -2.1940
  164SOPE   H6S18408   5.975   4.357  10.166 -0.7852  2.0599 -1.5442
  164SOPE   C2718409   5.861   4.241  10.008 -0.2950 -0.1683  0.3870
  164SOPE   H7R18410   5.833   4.133  10.003 -0.4593 -0.0217 -2.1389
  164SOPE   H7S18411   5.770   4.297   9.977 -0.8632  0.2965  2.7451
  164SOPE   C2818412   5.979   4.272   9.913  0.0796  0.1155  0.7034
  164SOPE   H8R18413   5.995   4.381   9.896 -0.5468  0.1957  0.6016
  164SOPE   H8S18414   6.067   4.235   9.968  0.4376  1.2483  0.9052
  164SOPE   C2918415   5.973   4.205   9.782 -0.6256 -1.2405 -0.8176
  164SOPE   H9118416   6.020   4.105   9.781  0.2388 -0.8288 -1.5818
  164SOPE  C21018417   5.919   4.244   9.663  0.2950  0.2529  0.6337
  164SOPE  H10118418   5.935   4.174   9.580 -0.5520  0.2378  0.4753
  164SOPE  C21118419   5.847   4.369   9.624 -0.2692  0.0937 -0.2081
  164SOPE  H11R18420   5.872   4.448   9.698  2.5096  0.3916 -1.4172
  164SOPE  H11S18421   5.738   4.347   9.622  0.1343 -1.9794 -0.7742
  164SOPE  C21218422   5.897   4.432   9.490 -0.4710 -0.1772 -0.1427
  164SOPE  H12R18423   6.005   4.458   9.483 -0.5653 -0.0321 -1.1075
  164SOPE  H12S18424   5.859   4.536   9.476 -2.6808 -1.0341 -0.6529
  164SOPE  C21318425   5.866   4.359   9.359  0.3054  0.3891 -0.0319
  164SOPE  H13R18426   5.759   4.329   9.354  0.3626 -0.0957  1.4254
  164SOPE  H13S18427   5.930   4.268   9.358  1.0705  0.9143  0.8909
  164SOPE  C21418428   5.917   4.458   9.250  0.1903  0.2672 -0.0076
  164SOPE  H14R18429   6.021   4.491   9.272  0.4366 -0.9339  0.6862
  164SOPE  H14S18430   5.850   4.546   9.249 -0.4920 -0.2370 -2.1263
  164SOPE  C21518431   5.920   4.384   9.117  0.2185 -0.0975  0.3378
  164SOPE  H15R18432   5.812   4.361   9.103  0.5525 -3.8165  3.2415
  164SOPE  H15S18433   5.970   4.285   9.113  1.4598  0.5448 -0.3493
  164SOPE  C21618434   5.968   4.466   8.995 -0.6311 -0.5529 -0.1337
  164SOPE  H16R18435   6.079   4.476   8.993 -0.4797 -2.1223 -0.1058
  164SOPE  H16S18436   5.923   4.567   9.005 -2.2420 -1.4826  2.4986
  164SOPE  C21718437   5.921   4.403   8.865  0.6136  0.2004 -0.5094
  164SOPE  H17R18438   5.825   4.353   8.887 -0.0660  2.0126  0.7482
  164SOPE  H17S18439   5.987   4.317   8.841  0.5638  0.4476 -1.5481
  164SOPE  C21818440   5.932   4.492   8.743  0.2324 -0.0116  0.6199
  164SOPE  H18R18441   5.865   4.449   8.666 -0.7659  1.5518  0.5810
  164SOPE  H18S18442   6.036   4.486   8.704 -0.2994 -0.0548 -0.8138
  164SOPE  H18T18443   5.906   4.598   8.766 -1.1326 -0.3986  0.8896
  164SOPE   C3318444   5.531   4.020   9.951  0.3272 -0.3536  0.0568
  164SOPE   H3X18445   5.529   3.910   9.939  2.4060 -0.7090  2.5837
  164SOPE   H3Y18446   5.634   4.059   9.961  0.0063 -0.1031  2.5601
  164SOPE   C3418447   5.478   4.077   9.809  0.5457 -0.0438  0.4158
  164SOPE   H4X18448   5.480   4.188   9.802  2.5846 -0.0975 -0.1952
  164SOPE   H4Y18449   5.379   4.036   9.783  0.5116  0.1429  0.2495
  164SOPE   C3518450   5.576   4.040   9.694 -0.2427  0.3669  0.2413
  164SOPE   H5X18451   5.599   3.931   9.693  1.7445  0.7448  1.8047
  164SOPE   H5Y18452   5.668   4.093   9.725  0.1430 -1.1855  1.7929
  164SOPE   C3618453   5.524   4.101   9.561  0.4877 -0.3356 -0.5315
  164SOPE   H6X18454   5.513   4.212   9.562  0.0708 -0.3905  0.9278
  164SOPE   H6Y18455   5.419   4.071   9.540  0.2885  0.6018 -0.9072
  164SOPE   C3718456   5.614   4.076   9.441 -0.0883  0.0170 -0.5174
  164SOPE   H7X18457   5.642   3.969   9.434  2.0806  0.5954 -0.8817
  164SOPE   H7Y18458   5.709   4.131   9.457 -0.9818  0.9848  1.6326
  164SOPE   C3818459   5.546   4.126   9.316  0.0842  0.9155  0.6219
  164SOPE   H8X18460   5.518   4.234   9.309 -3.2815  0.0154 -1.2351
  164SOPE   H8Y18461   5.449   4.072   9.323  1.3896 -1.3175  1.4292
  164SOPE   C3918462   5.619   4.087   9.183  0.5018  0.3777  0.3767
  164SOPE   H9X18463   5.634   3.977   9.189  0.1598  0.3680  1.1068
  164SOPE   H9Y18464   5.711   4.150   9.192  1.1929 -0.1787 -2.2639
  164SOPE  C31018465   5.538   4.137   9.064  0.4494 -0.3431 -0.2435
  164SOPE  H10X18466   5.435   4.096   9.070  0.4856 -0.3626  0.2700
  164SOPE  H10Y18467   5.600   4.096   8.981 -1.5370 -1.5262 -1.1531
  164SOPE  C31118468   5.522   4.291   9.057  0.3776  0.5417 -0.0856
  164SOPE  H11X18469   5.619   4.332   9.094  1.6096 -0.0563 -2.5216
  164SOPE  H11Y18470   5.439   4.325   9.122  0.6168  2.0593 -0.5603
  164SOPE  C31218471   5.512   4.332   8.911  1.1828 -0.3720 -0.2534
  164SOPE  H12X18472   5.447   4.258   8.859  1.8427 -0.1155 -1.4666
  164SOPE  H12Y18473   5.610   4.319   8.860  1.1126  1.1807 -0.7994
  164SOPE  C31318474   5.466   4.474   8.891 -0.1577  0.2969  0.0812
  164SOPE  H13X18475   5.546   4.550   8.899 -0.2783  0.4008  0.3218
  164SOPE  H13Y18476   5.391   4.488   8.973 -2.1325  0.1984 -1.6556
  164SOPE  C31418477   5.386   4.481   8.765 -0.4151  0.3170  0.1460
  164SOPE  H14X18478   5.308   4.403   8.750  1.3694 -1.6009  0.5774
  164SOPE  H14Y18479   5.455   4.463   8.680 -1.2994 -2.5799 -0.0349
  164SOPE  C31518480   5.333   4.617   8.750 -0.1753  0.3670  0.8377
  164SOPE  H15X18481   5.296   4.631   8.646 -0.6633  0.0552  0.9655
  164SOPE  H15Y18482   5.412   4.695   8.760  0.1265 -0.2099  3.1438
  164SOPE  C31618483   5.208   4.641   8.837 -0.2024  0.4328 -0.6631
  164SOPE  H16X18484   5.230   4.625   8.945  2.2995  0.4769 -1.1320
  164SOPE  H16Y18485   5.123   4.574   8.813 -0.2170 -1.1080  3.2441
  164SOPE  C31718486   5.155   4.787   8.836  0.4671 -0.0018 -0.0263
  164SOPE  H17X18487   5.155   4.819   8.730 -0.9830  2.4634  0.6633
  164SOPE  H17Y18488   5.229   4.850   8.890 -0.9017  0.6956  1.0737
  164SOPE  C31818489   5.018   4.802   8.910 -0.0518  0.0923 -0.2540
  164SOPE  H18X18490   4.938   4.757   8.847 -0.1397  2.4915 -1.9208
  164SOPE  H18Y18491   4.997   4.911   8.917 -0.1128  0.1343 -0.9962
  164SOPE  H18Z18492   5.022   4.766   9.015  0.0656  0.2470 -0.2056
  165SOPE     N18493   4.660   5.707  11.211  0.1536  0.5084  0.3873
  165SOPE   HN118494   4.703   5.754  11.294  1.3752  1.0536 -0.5444
  165SOPE   HN218495   4.587   5.642  11.247 -0.4137  0.0683 -1.5208
  165SOPE   HN318496   4.738   5.652  11.170  0.3589  0.2084  1.1717
  165SOPE   C1218497   4.587   5.797  11.112 -0.0773  0.0056 -0.5986
  165SOPE  H12A18498   4.665   5.869  11.079  0.6339  0.2524  1.5569
  165SOPE  H12B18499   4.501   5.841  11.168 -0.0001  2.0044 -1.9965
  165SOPE   C1118500   4.539   5.721  10.994 -0.0751 -0.1270 -0.1491
  165SOPE  H11A18501   4.622   5.678  10.934 -0.6947 -2.0299  0.3307
  165SOPE  H11B18502   4.493   5.792  10.921 -0.2347  0.9891  1.0120
  165SOPE     P18503   4.294   5.615  10.993 -0.0386 -0.6381  0.0667
  165SOPE   O1318504   4.273   5.697  10.874  0.1581 -0.0699  0.4583
  165SOPE   O1418505   4.212   5.656  11.115  0.1051 -0.6558 -0.0749
  165SOPE   O1218506   4.450   5.617  11.028  0.3747 -0.2148 -0.3782
  165SOPE   O1118507   4.257   5.464  10.968  0.6564 -0.5436  0.1510
  165SOPE    C118508   4.350   5.367  10.917 -0.0716  0.2514  0.2141
  165SOPE    HA18509   4.306   5.266  10.930  0.9623 -0.2184  0.0690
  165SOPE    HB18510   4.451   5.362  10.961  0.3303 -3.6891 -0.9014
  165SOPE    C218511   4.356   5.388  10.762 -0.0613  0.5261  0.4546
  165SOPE    HS18512   4.254   5.422  10.733  0.5608  0.2564 -2.1495
  165SOPE   O2118513   4.374   5.257  10.692  0.5532  0.1001 -0.0509
  165SOPE   C2118514   4.265   5.191  10.665  0.5541  0.2109  0.0022
  165SOPE   O2218515   4.155   5.222  10.707 -0.6140  0.4499  0.0144
  165SOPE   C2218516   4.304   5.065  10.594  0.3502 -0.1858 -0.5953
  165SOPE   H2R18517   4.218   4.998  10.574  0.1270 -0.0642 -0.0520
  165SOPE   H2S18518   4.377   5.016  10.661 -1.2232 -1.6351  0.0849
  165SOPE    C318519   4.469   5.480  10.718  0.1798  0.1761 -0.3302
  165SOPE    HX18520   4.570   5.437  10.735  0.3249  1.1945  1.5876
  165SOPE    HY18521   4.467   5.565  10.789 -2.9574 -1.5926  1.8052
  165SOPE   O3118522   4.463   5.528  10.584 -0.3589  0.2723  0.0195
  165SOPE   C3118523   4.518   5.454  10.488  0.6600 -0.4718  0.0236
  165SOPE   O3218524   4.592   5.359  10.521  0.6349 -0.3330  0.2991
  165SOPE   C3218525   4.462   5.490  10.359  0.0204  0.0305 -0.2523
  165SOPE   H2X18526   4.484   5.596  10.335 -1.8407 -0.0787 -2.5296
  165SOPE   H2Y18527   4.352   5.474  10.357  0.0024 -0.2444  1.9417
  165SOPE   C2318528   4.369   5.097  10.456 -0.1507  0.3517 -1.2638
  165SOPE   H3R18529   4.459   5.161  10.469 -0.7454  1.7401 -3.6422
  165SOPE   H3S18530   4.295   5.158  10.400  0.3390 -0.0878 -2.4249
  165SOPE   C2418531   4.397   4.977  10.376  0.1625 -0.4348  0.2479
  165SOPE   H4R18532   4.464   4.912  10.436  1.4557 -0.6194 -1.3689
  165SOPE   H4S18533   4.311   4.913  10.348 -0.0458  0.7310 -1.8576
  165SOPE   C2518534   4.472   5.013  10.238 -0.3208 -0.1128  0.8095
  165SOPE   H5R18535   4.400   5.062  10.169  1.5942 -0.3803 -1.4363
  165SOPE   H5S18536   4.557   5.081  10.263  0.5327 -1.3650  1.3790
  165SOPE   C2618537   4.530   4.895  10.160  0.0239  0.1904 -0.1357
  165SOPE   H6R18538   4.565   4.822  10.236 -0.0640 -0.1838 -0.4534
  165SOPE   H6S18539   4.451   4.840  10.105  0.8948 -0.5733 -0.6488
  165SOPE   C2718540   4.653   4.931  10.079 -0.2050 -0.4259 -0.0197
  165SOPE   H7R18541   4.719   4.999  10.137 -0.2691  0.7940 -1.3593
  165SOPE   H7S18542   4.707   4.836  10.059  1.8581  0.8084 -0.4665
  165SOPE   C2818543   4.612   5.005   9.955  0.1115 -0.0086  0.0054
  165SOPE   H8R18544   4.521   4.954   9.916  0.0926 -0.2391  0.3473
  165SOPE   H8S18545   4.575   5.108   9.975 -2.0203 -1.3011  3.1495
  165SOPE   C2918546   4.713   5.010   9.848 -0.0089  0.6376  0.1370
  165SOPE   H9118547   4.803   5.070   9.864  0.6172  0.3644 -2.2677
  165SOPE  C21018548   4.712   4.940   9.733  0.6769 -0.2068 -0.4679
  165SOPE  H10118549   4.796   4.956   9.664  0.8713  0.1227 -0.1539
  165SOPE  C21118550   4.617   4.840   9.670  0.3297  0.1054  0.2823
  165SOPE  H11R18551   4.529   4.830   9.737  0.0561 -0.9757 -0.2148
  165SOPE  H11S18552   4.656   4.736   9.669  0.2067  0.0514  0.9726
  165SOPE  C21218553   4.552   4.864   9.536  0.2154 -0.0956 -0.6311
  165SOPE  H12R18554   4.498   4.962   9.537  0.8445  0.2546 -0.8488
  165SOPE  H12S18555   4.468   4.792   9.532 -1.3504  1.2179  4.1873
  165SOPE  C21318556   4.650   4.851   9.419  0.0138 -0.2325  0.2675
  165SOPE  H13R18557   4.701   4.753   9.432 -0.7797 -0.5338  1.2905
  165SOPE  H13S18558   4.724   4.929   9.445 -0.3155 -0.5940  2.4305
  165SOPE  C21418559   4.595   4.871   9.280  0.2135 -0.4582  0.6892
  165SOPE  H14R18560   4.549   4.970   9.263 -1.6100 -1.6406 -1.4990
  165SOPE  H14S18561   4.525   4.789   9.255  0.1943 -0.2176 -0.0629
  165SOPE  C21518562   4.722   4.872   9.192 -0.0176  0.4015 -0.0067
  165SOPE  H15R18563   4.799   4.801   9.229 -1.5391 -0.2175  2.0395
  165SOPE  H15S18564   4.761   4.976   9.187 -2.4845  1.3202 -1.1228
  165SOPE  C21618565   4.684   4.839   9.046  0.0374 -0.2471 -0.1280
  165SOPE  H16R18566   4.641   4.736   9.044 -0.0595 -0.2344  0.7948
  165SOPE  H16S18567   4.778   4.837   8.986  0.2388  4.7928 -0.1382
  165SOPE  C21718568   4.588   4.941   8.983  0.4215  0.7805 -0.5287
  165SOPE  H17R18569   4.628   5.044   8.999  0.7425  0.7220 -0.9514
  165SOPE  H17S18570   4.492   4.927   9.038  1.7067  0.5601  1.7475
  165SOPE  C21818571   4.561   4.907   8.835 -1.0737  0.0083 -0.5218
  165SOPE  H18R18572   4.648   4.940   8.774 -0.1821  1.9272  1.7262
  165SOPE  H18S18573   4.484   4.972   8.787  2.0354  3.1773 -1.4172
  165SOPE  H18T18574   4.540   4.798   8.828  0.4519 -0.2437 -1.3240
  165SOPE   C3318575   4.509   5.399  10.247 -0.1339 -0.3531  1.1526
  165SOPE   H3X18576   4.466   5.297  10.245  0.4247 -0.5983  1.4396
  165SOPE   H3Y18577   4.618   5.381  10.245  0.1109  1.1358  0.6664
  165SOPE   C3418578   4.478   5.463  10.113  1.0706  0.3400 -0.6539
  165SOPE   H4X18579   4.542   5.552  10.097  0.5120  0.9735  0.5460
  165SOPE   H4Y18580   4.374   5.503  10.115  1.0889  0.3400  1.3331
  165SOPE   C3518581   4.495   5.354  10.006  0.9125  0.2801 -0.5103
  165SOPE   H5X18582   4.424   5.268  10.011 -0.6274  1.5137 -0.6434
  165SOPE   H5Y18583   4.597   5.317  10.029  1.4281  1.7749 -0.3648
  165SOPE   C3618584   4.492   5.417   9.861  0.6226  0.2703  0.1859
  165SOPE   H6X18585   4.592   5.460   9.841  1.1349 -0.8803  0.2570
  165SOPE   H6Y18586   4.423   5.504   9.852 -1.0978 -1.0488  0.3281
  165SOPE   C3718587   4.451   5.315   9.749 -0.5335 -0.0904 -0.1254
  165SOPE   H7X18588   4.358   5.262   9.777  0.1390 -0.3776  1.6436
  165SOPE   H7Y18589   4.544   5.256   9.736 -0.7164 -0.2999 -0.4768
  165SOPE   C3818590   4.431   5.385   9.612 -0.2108  0.1021 -0.1286
  165SOPE   H8X18591   4.509   5.457   9.579 -0.1093  0.0504  0.0024
  165SOPE   H8Y18592   4.332   5.436   9.612 -0.5388 -0.4924 -1.4703
  165SOPE   C3918593   4.426   5.285   9.504  0.3655  0.1518 -0.8397
  165SOPE   H9X18594   4.326   5.239   9.521  0.1956  0.7440 -0.2428
  165SOPE   H9Y18595   4.503   5.205   9.510  0.6426  0.3946 -1.1991
  165SOPE  C31018596   4.439   5.343   9.363  0.0311 -0.6237 -0.0672
  165SOPE  H10X18597   4.547   5.363   9.348 -0.0423 -1.2919 -1.5910
  165SOPE  H10Y18598   4.387   5.441   9.352 -0.7165 -0.8079  1.6435
  165SOPE  C31118599   4.396   5.263   9.243  0.5106 -0.2339  0.1908
  165SOPE  H11X18600   4.285   5.251   9.249  0.6012 -2.0036 -1.2832
  165SOPE  H11Y18601   4.444   5.164   9.253 -1.6107 -0.9280  5.0345
  165SOPE  C31218602   4.446   5.325   9.112  0.0535  0.1148  0.2718
  165SOPE  H12X18603   4.557   5.333   9.120 -0.1081  0.0701  3.3177
  165SOPE  H12Y18604   4.406   5.428   9.106 -0.1272  0.1468  1.7644
  165SOPE  C31318605   4.413   5.272   8.975  0.5849  0.1703 -0.0756
  165SOPE  H13X18606   4.303   5.280   8.961  0.9599 -0.3744 -4.2337
  165SOPE  H13Y18607   4.429   5.162   8.972 -3.4284 -0.5335  1.6268
  165SOPE  C31418608   4.470   5.349   8.864  0.1625 -0.2614  0.0654
  165SOPE  H14X18609   4.579   5.366   8.882  0.3135  0.8168 -1.7771
  165SOPE  H14Y18610   4.415   5.446   8.862  1.1808  0.3382  0.5160
  165SOPE  C31518611   4.461   5.289   8.724  0.7560  1.4664  0.0674
  165SOPE  H15X18612   4.361   5.262   8.683  0.7423 -0.9647  1.6031
  165SOPE  H15Y18613   4.520   5.195   8.723  2.3282  2.4187  1.0285
  165SOPE  C31618614   4.521   5.380   8.622 -0.6522 -0.3303 -0.3825
  165SOPE  H16X18615   4.599   5.440   8.674 -0.2391 -1.1481 -0.0494
  165SOPE  H16Y18616   4.439   5.441   8.580 -0.4983 -0.2843 -0.6199
  165SOPE  C31718617   4.587   5.306   8.498  0.4763  0.4495 -0.7008
  165SOPE  H17X18618   4.637   5.216   8.539  1.5556  0.6480 -1.5697
  165SOPE  H17Y18619   4.663   5.370   8.449  0.3141  0.5334 -0.8435
  165SOPE  C31818620   4.487   5.257   8.388 -0.0888 -0.1607 -0.2707
  165SOPE  H18X18621   4.406   5.198   8.436 -0.1077 -0.3312 -0.5076
  165SOPE  H18Y18622   4.542   5.189   8.319  0.2545  0.4619 -0.6160
  165SOPE  H18Z18623   4.438   5.340   8.333  0.5220  1.1570  1.1386
  166SOPE     N18624   0.773   5.785  11.123  0.6436  0.1607 -0.5084
  166SOPE   HN118625   0.751   5.738  11.213  0.6285  1.2947  0.0941
  166SOPE   HN218626   0.805   5.879  11.153 -0.5627  0.1539  0.8258
  166SOPE   HN318627   0.683   5.793  11.073  0.9979  0.4858 -1.1073
  166SOPE   C1218628   0.864   5.715  11.022  0.5020 -0.4999  0.4515
  166SOPE  H12A18629   0.911   5.623  11.063 -0.8837 -1.9273 -1.0796
  166SOPE  H12B18630   0.951   5.784  11.008  1.0130 -1.0256  1.0104
  166SOPE   C1118631   0.786   5.694  10.893 -0.5343  0.6993  0.0893
  166SOPE  H11A18632   0.852   5.639  10.821  0.2998 -1.3487  2.3645
  166SOPE  H11B18633   0.760   5.790  10.844 -1.3081 -0.1245 -1.1662
  166SOPE     P18634   0.519   5.659  10.917 -0.1636  0.2153  0.1043
  166SOPE   O1318635   0.521   5.785  10.994 -0.3979  0.6323  0.5013
  166SOPE   O1418636   0.441   5.544  10.975  0.0184 -0.3497 -0.1746
  166SOPE   O1218637   0.673   5.613  10.910  0.7160 -0.5339 -0.1332
  166SOPE   O1118638   0.478   5.687  10.773 -0.1750  0.4824 -0.0219
  166SOPE    C118639   0.535   5.608  10.675 -0.6959 -0.2921 -0.0863
  166SOPE    HA18640   0.584   5.515  10.711 -1.4014 -1.1937 -1.4280
  166SOPE    HB18641   0.618   5.660  10.622 -0.2665 -1.6609 -0.7670
  166SOPE    C218642   0.430   5.554  10.576 -0.3845  0.4360 -0.1182
  166SOPE    HS18643   0.492   5.486  10.514  0.7375  0.7070  0.6714
  166SOPE   O2118644   0.366   5.665  10.511 -0.4919  0.5534 -0.1408
  166SOPE   C2118645   0.440   5.702  10.405 -0.6013 -0.6720  0.7102
  166SOPE   O2218646   0.535   5.645  10.354  0.1485  0.1817  0.1582
  166SOPE   C2218647   0.382   5.838  10.349  0.1528 -0.2544 -0.1549
  166SOPE   H2R18648   0.405   5.920  10.421 -0.5465  1.7488 -2.1304
  166SOPE   H2S18649   0.272   5.827  10.340  0.1092  0.6732 -0.8665
  166SOPE    C318650   0.309   5.469  10.636 -0.2193 -0.5882  0.3286
  166SOPE    HX18651   0.250   5.539  10.699 -0.8688  0.4413 -1.3899
  166SOPE    HY18652   0.360   5.397  10.704  0.7862  0.7705  1.0367
  166SOPE   O3118653   0.234   5.397  10.538 -0.8173  0.4625 -0.3791
  166SOPE   C3118654   0.297   5.302  10.477 -0.8912 -0.4987  0.7437
  166SOPE   O3218655   0.407   5.255  10.509  0.3777 -0.2212 -0.3858
  166SOPE   C3218656   0.202   5.238  10.371  0.2192 -0.3675  0.5059
  166SOPE   H2X18657   0.117   5.307  10.351 -0.4762 -0.4218  3.0685
  166SOPE   H2Y18658   0.159   5.148  10.420 -0.2300 -1.0345 -1.1157
  166SOPE   C2318659   0.440   5.891  10.207 -0.1122  0.9395 -0.5467
  166SOPE   H3R18660   0.498   5.816  10.148 -0.7481  0.1887 -0.2257
  166SOPE   H3S18661   0.526   5.959  10.224  1.2254 -0.3025 -2.0521
  166SOPE   C2418662   0.351   5.972  10.120 -0.1486 -0.0421  0.3901
  166SOPE   H4R18663   0.247   5.933  10.120 -0.0929 -0.3375 -2.8478
  166SOPE   H4S18664   0.348   6.071  10.171 -0.0750  1.1850 -1.8934
  166SOPE   C2518665   0.400   5.969   9.978  0.0083 -0.7674  0.4422
  166SOPE   H5R18666   0.476   6.049   9.968  0.3656 -0.9233  1.7657
  166SOPE   H5S18667   0.442   5.872   9.942 -1.6664 -1.5441  0.5336
  166SOPE   C2618668   0.291   6.003   9.873 -0.3069  0.6447 -0.1873
  166SOPE   H6R18669   0.200   5.940   9.888  0.8188 -0.7365  0.9474
  166SOPE   H6S18670   0.261   6.108   9.890  0.2958  1.0998 -1.8684
  166SOPE   C2718671   0.340   5.990   9.729 -0.3573  0.1714  0.2513
  166SOPE   H7R18672   0.431   6.054   9.725 -0.0789 -0.0715  2.1135
  166SOPE   H7S18673   0.371   5.886   9.704 -2.3421 -0.7887  1.6656
  166SOPE   C2818674   0.237   6.058   9.632 -0.1273  0.5362 -0.9022
  166SOPE   H8R18675   0.139   6.008   9.645 -0.1852  0.9533  0.2954
  166SOPE   H8S18676   0.233   6.161   9.673 -0.8645 -0.6770  2.1648
  166SOPE   C2918677   0.278   6.066   9.482 -0.0794  0.0954 -0.5471
  166SOPE   H9118678   0.371   6.122   9.463  0.5592 -0.7560 -0.0382
  166SOPE  C21018679   0.217   6.007   9.379  0.0755 -0.7935  0.2379
  166SOPE  H10118680   0.274   6.006   9.284 -1.5703 -0.1376 -0.7734
  166SOPE  C21118681   0.098   5.910   9.398 -0.8049 -0.1326  0.3625
  166SOPE  H11R18682   0.055   5.906   9.500 -1.3827  0.0910  0.1317
  166SOPE  H11S18683   0.125   5.811   9.358 -4.1297 -0.3459 -1.5474
  166SOPE  C21218684  -0.021   5.965   9.304  0.6553  0.0526 -0.1862
  166SOPE  H12R18685  -0.040   6.068   9.339  0.6820  0.1723 -0.5245
  166SOPE  H12S18686  -0.111   5.904   9.329 -0.3472  1.1961 -0.9543
  166SOPE  C21318687   0.001   5.945   9.153 -0.7415 -0.5332  0.0562
  166SOPE  H13R18688   0.037   5.842   9.136 -1.1630 -0.7674  0.5817
  166SOPE  H13S18689   0.083   6.015   9.124 -2.7010  0.6375 -2.9150
  166SOPE  C21418690  -0.137   5.971   9.087  0.3450  0.7780  0.2663
  166SOPE  H14R18691  -0.150   6.081   9.087 -1.1278  0.6147  0.8733
  166SOPE  H14S18692  -0.213   5.913   9.143  0.6563 -0.9962 -1.0991
  166SOPE  C21518693  -0.144   5.930   8.941  0.2797  0.3018  0.1309
  166SOPE  H15R18694  -0.047   5.952   8.891  0.2986  0.8644  0.4119
  166SOPE  H15S18695  -0.215   5.997   8.888 -0.5815  0.2794  1.2437
  166SOPE  C21618696  -0.195   5.785   8.918  0.0133  0.6099  0.5113
  166SOPE  H16R18697  -0.295   5.786   8.966 -0.5106 -0.2156 -0.5280
  166SOPE  H16S18698  -0.137   5.708   8.974  0.4914  1.7470  1.5842
  166SOPE  C21718699  -0.213   5.751   8.772  0.6415 -0.2212  0.6510
  166SOPE  H17R18700  -0.113   5.765   8.726  0.0582 -1.6233 -1.1136
  166SOPE  H17S18701  -0.276   5.827   8.720 -0.1608 -1.2560  0.0796
  166SOPE  C21818702  -0.263   5.608   8.732 -0.5154 -1.1344 -0.1077
  166SOPE  H18R18703  -0.271   5.597   8.622 -1.3445 -1.2699 -0.0364
  166SOPE  H18S18704  -0.370   5.593   8.758 -0.7512 -1.9645 -1.5165
  166SOPE  H18T18705  -0.192   5.534   8.775 -0.8561 -1.2447  0.2629
  166SOPE   C3318706   0.276   5.190  10.240 -0.5356  1.3202 -0.4391
  166SOPE   H3X18707   0.368   5.135  10.271  0.5344  3.5119  0.3874
  166SOPE   H3Y18708   0.318   5.276  10.184  0.2626  1.2232  0.0014
  166SOPE   C3418709   0.192   5.092  10.157  0.5752  0.8963 -0.4381
  166SOPE   H4X18710   0.114   5.162  10.120 -1.7629 -0.5318  1.6361
  166SOPE   H4Y18711   0.134   5.018  10.216 -0.9883  3.3336  1.1638
  166SOPE   C3518712   0.265   5.039  10.033 -0.0603  0.2411  0.0455
  166SOPE   H5X18713   0.181   4.990   9.979 -0.7595  0.2874  1.0795
  166SOPE   H5Y18714   0.325   4.949  10.061 -0.9697  0.3435  2.4377
  166SOPE   C3618715   0.343   5.135   9.953  0.2853  0.5043 -0.0909
  166SOPE   H6X18716   0.400   5.201  10.022 -1.0300  0.5784  0.9323
  166SOPE   H6Y18717   0.268   5.202   9.905  0.4015  1.6454  1.2633
  166SOPE   C3718718   0.445   5.070   9.850 -0.4421  0.5365 -0.0028
  166SOPE   H7X18719   0.401   4.995   9.780 -1.4952 -0.1923  1.4076
  166SOPE   H7Y18720   0.517   5.010   9.911 -0.2035  1.0649  0.2340
  166SOPE   C3818721   0.539   5.170   9.781  0.6164  0.0636  0.2332
  166SOPE   H8X18722   0.590   5.222   9.865  2.7755  2.3063 -2.3995
  166SOPE   H8Y18723   0.484   5.251   9.729 -0.1301 -0.2979  0.4418
  166SOPE   C3918724   0.628   5.093   9.680  0.3688 -0.2219 -0.1459
  166SOPE   H9X18725   0.661   4.993   9.715 -2.2467 -1.9907 -2.5334
  166SOPE   H9Y18726   0.724   5.144   9.661  1.0481 -0.5510  2.2127
  166SOPE  C31018727   0.552   5.070   9.549 -0.0487  0.1050 -1.2983
  166SOPE  H10X18728   0.501   5.161   9.513  1.1283  0.9268 -0.9420
  166SOPE  H10Y18729   0.471   4.998   9.570  1.8707 -1.5145  0.9404
  166SOPE  C31118730   0.638   5.005   9.443  0.1948 -0.0723 -0.2816
  166SOPE  H11X18731   0.691   4.913   9.475 -1.5826 -0.4494  1.6456
  166SOPE  H11Y18732   0.720   5.076   9.419  1.6394 -1.4653  0.5001
  166SOPE  C31218733   0.557   4.956   9.316  0.6216  0.0279 -0.4478
  166SOPE  H12X18734   0.475   4.881   9.327 -1.2769  2.1576  0.4291
  166SOPE  H12Y18735   0.627   4.905   9.247 -0.1373  0.4560 -1.5536
  166SOPE  C31318736   0.520   5.081   9.229  0.0340 -0.8455 -0.1148
  166SOPE  H13X18737   0.603   5.154   9.218 -0.3429 -0.5480 -1.0507
  166SOPE  H13Y18738   0.436   5.127   9.285 -0.6266 -1.7969 -0.3159
  166SOPE  C31418739   0.484   5.065   9.084 -0.2741  0.0833 -0.6034
  166SOPE  H14X18740   0.382   5.022   9.084  0.0648 -0.7131 -1.5306
  166SOPE  H14Y18741   0.558   4.993   9.043 -0.4728 -0.9670  0.8447
  166SOPE  C31518742   0.487   5.200   9.003  0.7949  0.1337 -0.1036
  166SOPE  H15X18743   0.467   5.182   8.895  2.1347 -1.9640 -0.0235
  166SOPE  H15Y18744   0.585   5.249   9.020  0.3558  0.9490  0.1200
  166SOPE  C31618745   0.379   5.302   9.050  0.0065  0.2052  0.8587
  166SOPE  H16X18746   0.385   5.314   9.161  0.3358 -1.2390  1.0109
  166SOPE  H16Y18747   0.281   5.258   9.022  0.2262  0.0074  0.3928
  166SOPE  C31718748   0.379   5.444   8.994  0.1935 -0.4813 -0.2861
  166SOPE  H17X18749   0.361   5.431   8.885  4.3621 -2.5546 -0.8325
  166SOPE  H17Y18750   0.479   5.488   9.018 -0.5144 -0.4332  2.6489
  166SOPE  C31818751   0.269   5.527   9.057  0.1142  0.0199 -0.1081
  166SOPE  H18X18752   0.171   5.477   9.038 -0.0157  0.6390 -1.0684
  166SOPE  H18Y18753   0.261   5.628   9.012  1.5021 -0.1384 -0.7389
  166SOPE  H18Z18754   0.268   5.537   9.168  1.0227 -1.5826  0.0605
  167SOPE     N18755   1.276   4.168   6.501  0.1579  0.4037 -0.3677
  167SOPE   HN118756   1.200   4.237   6.485 -2.3260 -2.3261 -0.8130
  167SOPE   HN218757   1.280   4.084   6.439 -0.9692 -0.4636  0.7285
  167SOPE   HN318758   1.250   4.131   6.595  0.1251 -1.8469 -1.2275
  167SOPE   C1218759   1.414   4.221   6.529  0.9333  0.2015  0.3804
  167SOPE  H12A18760   1.402   4.294   6.612  0.8157  0.8956 -0.2469
  167SOPE  H12B18761   1.454   4.260   6.433 -1.4733  1.1096 -0.3057
  167SOPE   C1118762   1.501   4.106   6.575 -0.1731 -0.1336  0.4933
  167SOPE  H11A18763   1.455   4.061   6.666  1.7816 -0.4453  1.3539
  167SOPE  H11B18764   1.603   4.132   6.611  0.2824  1.7764 -2.0741
  167SOPE     P18765   1.607   4.008   6.353 -0.1956  0.0907  0.3052
  167SOPE   O1318766   1.568   4.120   6.264 -0.1262  0.2880 -0.2556
  167SOPE   O1418767   1.608   3.871   6.300  0.5104 -0.4656  0.6697
  167SOPE   O1218768   1.505   4.003   6.476  0.4022 -0.2334  0.3182
  167SOPE   O1118769   1.742   4.048   6.417  0.7018  0.3736  0.7608
  167SOPE    C118770   1.815   3.949   6.485 -0.1022  0.6210  0.1108
  167SOPE    HA18771   1.910   3.941   6.426 -0.6987 -1.1509 -0.6363
  167SOPE    HB18772   1.776   3.846   6.497  1.0138  0.1072 -0.5360
  167SOPE    C218773   1.867   3.991   6.624 -0.3504 -0.3128  0.0012
  167SOPE    HS18774   1.960   3.930   6.635  1.2195  1.9447 -0.3607
  167SOPE   O2118775   1.755   3.967   6.713  0.4915 -0.2006 -0.1266
  167SOPE   C2118776   1.795   3.939   6.836 -0.7592  0.1060  0.8252
  167SOPE   O2218777   1.898   3.883   6.870 -0.1985 -0.0090 -0.4340
  167SOPE   C2218778   1.694   3.985   6.937  0.6370  0.5727 -0.1309
  167SOPE   H2R18779   1.595   3.947   6.904  0.9410 -2.3941  2.1988
  167SOPE   H2S18780   1.690   4.096   6.935 -0.1968  0.6761  3.5829
  167SOPE    C318781   1.902   4.144   6.629 -0.6694  0.4626  0.2262
  167SOPE    HX18782   1.810   4.194   6.592 -1.1964 -0.2617  0.5542
  167SOPE    HY18783   1.974   4.173   6.550  0.8965  2.6291  2.3840
  167SOPE   O3118784   1.931   4.182   6.763  0.0675  0.2641  0.7801
  167SOPE   C3118785   2.064   4.194   6.786  0.5141 -0.9593 -1.0658
  167SOPE   O3218786   2.151   4.179   6.703  0.2297 -0.2439  0.0388
  167SOPE   C3218787   2.087   4.221   6.940 -0.2784 -0.4395  0.2652
  167SOPE   H2X18788   1.991   4.250   6.988 -0.4298 -0.8364  0.2027
  167SOPE   H2Y18789   2.150   4.313   6.946 -1.8625  0.5051  5.6645
  167SOPE   C2318790   1.728   3.932   7.078  0.9034  0.3052  0.1170
  167SOPE   H3R18791   1.826   3.978   7.104  0.9826 -0.0970  0.5437
  167SOPE   H3S18792   1.727   3.821   7.071 -0.5430  0.2952  0.3711
  167SOPE   C2418793   1.616   3.968   7.181  0.4184 -0.7259 -0.4154
  167SOPE   H4R18794   1.580   4.073   7.173  0.9756 -0.4754  0.3002
  167SOPE   H4S18795   1.528   3.904   7.160 -0.1723 -0.4247  1.0803
  167SOPE   C2518796   1.654   3.945   7.328  0.0689 -0.4014  0.3264
  167SOPE   H5R18797   1.702   3.845   7.339  1.7151  0.5237  1.8886
  167SOPE   H5S18798   1.720   4.029   7.360 -0.9388  0.7899 -0.6486
  167SOPE   C2618799   1.525   3.944   7.415  0.4500 -0.9708 -0.1981
  167SOPE   H6R18800   1.495   4.051   7.430 -1.4045 -1.7178  1.8035
  167SOPE   H6S18801   1.440   3.892   7.365  0.6002 -0.0339 -1.4488
  167SOPE   C2718802   1.558   3.898   7.556  0.4159 -0.2128  0.2515
  167SOPE   H7R18803   1.598   3.797   7.537 -0.7461 -1.0626  2.1362
  167SOPE   H7S18804   1.641   3.963   7.592 -1.5563  3.4595 -1.5642
  167SOPE   C2818805   1.443   3.890   7.655  0.1286  1.1135  0.5215
  167SOPE   H8R18806   1.472   3.857   7.757  0.3141 -1.9164 -0.4541
  167SOPE   H8S18807   1.395   3.990   7.661  0.8122  1.4561  0.2955
  167SOPE   C2918808   1.346   3.791   7.600  0.0104  0.0094  0.0982
  167SOPE   H9118809   1.285   3.840   7.523 -0.5707  1.2205  1.3245
  167SOPE  C21018810   1.338   3.661   7.631 -0.5191  0.4566  0.6123
  167SOPE  H10118811   1.265   3.592   7.587  0.4435 -0.8923  1.0939
  167SOPE  C21118812   1.431   3.591   7.731  0.4438  0.4208  0.7950
  167SOPE  H11R18813   1.516   3.660   7.751 -0.9763  1.5469  3.2111
  167SOPE  H11S18814   1.464   3.494   7.688 -0.0004  0.2958  0.7355
  167SOPE  C21218815   1.343   3.571   7.861  0.7391 -0.9330  1.1478
  167SOPE  H12R18816   1.258   3.509   7.827  0.3424  1.1697 -2.0094
  167SOPE  H12S18817   1.306   3.670   7.895 -1.0573 -1.1515 -0.1248
  167SOPE  C21318818   1.423   3.501   7.972 -0.3528 -0.6593  0.1828
  167SOPE  H13R18819   1.521   3.553   7.985 -1.6157  1.0992  2.9212
  167SOPE  H13S18820   1.463   3.400   7.947  0.0239 -0.5883  0.4816
  167SOPE  C21418821   1.348   3.485   8.104  0.4734 -0.3914 -0.1961
  167SOPE  H14R18822   1.274   3.402   8.100 -2.4149  2.0491  0.5008
  167SOPE  H14S18823   1.287   3.577   8.119 -0.5058 -1.0627  0.0126
  167SOPE  C21518824   1.437   3.440   8.221  0.1268 -0.2193 -0.3246
  167SOPE  H15R18825   1.501   3.526   8.250  0.0352 -0.5198  0.8052
  167SOPE  H15S18826   1.502   3.357   8.187  1.9697  1.2099 -0.3895
  167SOPE  C21618827   1.379   3.404   8.354  0.2513  0.7009  0.2257
  167SOPE  H16R18828   1.335   3.302   8.344  0.2288  0.7672 -0.3514
  167SOPE  H16S18829   1.297   3.473   8.383  2.5370  2.6840  2.2232
  167SOPE  C21718830   1.477   3.398   8.475 -0.1362  0.5032 -0.3596
  167SOPE  H17R18831   1.511   3.503   8.490 -1.5938  0.8245  0.7785
  167SOPE  H17S18832   1.565   3.337   8.446 -0.8243 -0.2322 -0.9623
  167SOPE  C21818833   1.407   3.336   8.587 -0.2265 -0.1567 -0.8833
  167SOPE  H18R18834   1.472   3.310   8.673 -2.3597 -2.5492  0.0563
  167SOPE  H18S18835   1.351   3.245   8.558  2.3093 -1.4757 -1.8147
  167SOPE  H18T18836   1.329   3.403   8.628 -0.8785 -3.2190  3.1732
  167SOPE   C3318837   2.163   4.111   7.002 -0.0479 -0.0402 -0.1371
  167SOPE   H3X18838   2.261   4.113   6.950 -0.4881  0.6093 -0.9552
  167SOPE   H3Y18839   2.114   4.011   7.006 -0.7831  0.2851 -0.8639
  167SOPE   C3418840   2.196   4.144   7.153  0.1977 -0.1181  1.0611
  167SOPE   H4X18841   2.245   4.244   7.148 -4.5418  2.3292  0.3498
  167SOPE   H4Y18842   2.269   4.069   7.190  0.7499  0.1223  0.4661
  167SOPE   C3518843   2.071   4.139   7.249 -0.2102 -0.5383  0.2985
  167SOPE   H5X18844   2.022   4.040   7.238 -0.6362 -0.2593 -0.3451
  167SOPE   H5Y18845   1.997   4.208   7.202  0.8681  1.1896  1.1123
  167SOPE   C3618846   2.080   4.181   7.395  0.9601 -0.5081  0.2823
  167SOPE   H6X18847   1.991   4.150   7.453  0.4787 -0.2633 -0.3163
  167SOPE   H6Y18848   2.077   4.292   7.398 -2.1087 -0.5162 -0.5644
  167SOPE   C3718849   2.201   4.127   7.465 -0.5015  0.5010 -0.4058
  167SOPE   H7X18850   2.290   4.120   7.400  1.3513  0.3239  2.0562
  167SOPE   H7Y18851   2.195   4.021   7.498  0.4386 -0.1011 -2.1210
  167SOPE   C3818852   2.231   4.217   7.588 -0.1690 -0.2838 -0.1131
  167SOPE   H8X18853   2.271   4.310   7.542 -0.2009 -0.8260 -1.2451
  167SOPE   H8Y18854   2.313   4.161   7.639 -1.1258 -0.1581  1.6105
  167SOPE   C3918855   2.119   4.250   7.694  0.0935  0.1137  0.1055
  167SOPE   H9X18856   2.072   4.155   7.729 -0.2825 -0.4200 -1.7836
  167SOPE   H9Y18857   2.041   4.312   7.645  0.2479 -1.8069 -2.7038
  167SOPE  C31018858   2.168   4.330   7.818 -0.2012 -0.3063  0.5008
  167SOPE  H10X18859   2.084   4.379   7.871  0.0310  1.3214 -0.5834
  167SOPE  H10Y18860   2.227   4.414   7.775  0.8297 -0.0763  2.3248
  167SOPE  C31118861   2.242   4.244   7.919  0.7785 -0.0565  0.4328
  167SOPE  H11X18862   2.333   4.202   7.870  0.0914  1.4941 -2.3164
  167SOPE  H11Y18863   2.185   4.153   7.944 -0.3179  0.4302 -0.2707
  167SOPE  C31218864   2.290   4.331   8.040  0.1521  0.1081 -1.0427
  167SOPE  H12X18865   2.201   4.361   8.099 -0.4019 -2.9996 -0.1584
  167SOPE  H12Y18866   2.348   4.414   7.996  1.8669 -0.3126  0.3945
  167SOPE  C31318867   2.377   4.257   8.145 -0.3004  0.4639 -0.1125
  167SOPE  H13X18868   2.475   4.238   8.096  1.2674 -0.1606  3.1129
  167SOPE  H13Y18869   2.316   4.170   8.176 -1.1021  1.5463  1.4169
  167SOPE  C31418870   2.398   4.336   8.279 -0.4337  0.4986 -0.6881
  167SOPE  H14X18871   2.435   4.438   8.258  0.7786  0.0724 -0.6211
  167SOPE  H14Y18872   2.477   4.282   8.335  2.1281  1.0915 -3.6312
  167SOPE  C31518873   2.268   4.343   8.361  0.2842 -0.0382  0.5437
  167SOPE  H15X18874   2.224   4.242   8.376 -0.3389 -0.0999 -1.5136
  167SOPE  H15Y18875   2.194   4.406   8.309  1.7979  0.6889 -0.7772
  167SOPE  C31618876   2.301   4.402   8.508 -0.2916 -0.3036 -0.0982
  167SOPE  H16X18877   2.333   4.507   8.492 -0.3334  0.0437  2.0090
  167SOPE  H16Y18878   2.389   4.349   8.550 -0.4871  2.1306  3.6347
  167SOPE  C31718879   2.166   4.413   8.589 -0.0498  0.2483 -0.1301
  167SOPE  H17X18880   2.194   4.369   8.687  0.0238  2.2730  0.8000
  167SOPE  H17Y18881   2.095   4.337   8.552  1.4611 -1.1610 -0.2063
  167SOPE  C31818882   2.113   4.548   8.611 -0.6031 -0.2149 -0.1745
  167SOPE  H18X18883   2.095   4.607   8.518 -0.7441  1.6430  0.9931
  167SOPE  H18Y18884   2.170   4.612   8.682 -1.6720 -1.7642  2.1379
  167SOPE  H18Z18885   2.009   4.540   8.651 -0.4505 -1.7062 -0.0799
  168SOPE     N18886   1.958   0.815   6.462  0.7323  0.1874  0.1394
  168SOPE   HN118887   1.949   0.845   6.561 -2.1809  0.6024 -0.2272
  168SOPE   HN218888   2.053   0.774   6.449  1.4014  2.1234 -1.4004
  168SOPE   HN318889   1.955   0.901   6.403 -1.1297 -0.7323 -1.1449
  168SOPE   C1218890   1.850   0.720   6.426  0.3966 -0.3449 -0.7879
  168SOPE  H12A18891   1.868   0.633   6.493 -0.7056 -0.6438 -0.8589
  168SOPE  H12B18892   1.856   0.678   6.323  1.3793 -1.2289 -0.3756
  168SOPE   C1118893   1.717   0.801   6.448  0.2786  0.0526 -0.1869
  168SOPE  H11A18894   1.719   0.836   6.553  0.5394 -0.8375  0.1076
  168SOPE  H11B18895   1.634   0.727   6.450 -0.2052  0.6120  2.8263
  168SOPE     P18896   1.583   1.006   6.367  0.5893 -0.0924 -0.1200
  168SOPE   O1318897   1.463   0.934   6.317  0.6788  0.5663 -0.2276
  168SOPE   O1418898   1.615   1.130   6.297 -0.2910 -0.9397  0.0125
  168SOPE   O1218899   1.713   0.910   6.354  0.1419 -0.3493 -0.1283
  168SOPE   O1118900   1.571   1.015   6.522  0.4690  0.5804 -0.9438
  168SOPE    C118901   1.653   1.107   6.593 -0.2860  0.2640  1.1399
  168SOPE    HA18902   1.681   1.199   6.537 -0.0417  0.1819  1.1256
  168SOPE    HB18903   1.748   1.059   6.623  0.0868  1.5805  2.1244
  168SOPE    C218904   1.593   1.144   6.728 -0.0434 -0.1006  0.1092
  168SOPE    HS18905   1.661   1.193   6.800 -2.4577  1.9475  1.0663
  168SOPE   O2118906   1.525   1.028   6.787  0.3281  0.1433  0.4690
  168SOPE   C2118907   1.605   0.934   6.834  0.8355 -0.2926 -0.1744
  168SOPE   O2218908   1.726   0.928   6.836 -0.7722  0.3212 -0.0882
  168SOPE   C2218909   1.519   0.818   6.888 -0.4170 -0.0604  0.9317
  168SOPE   H2R18910   1.568   0.719   6.873  0.0809  0.5167 -1.4921
  168SOPE   H2S18911   1.427   0.811   6.827  2.5869  0.8846 -3.9610
  168SOPE    C318912   1.484   1.259   6.700  0.0954  0.1621  0.6266
  168SOPE    HX18913   1.413   1.208   6.631  1.1621  1.7462 -1.7490
  168SOPE    HY18914   1.527   1.345   6.644 -2.3387  0.8741 -0.2265
  168SOPE   O3118915   1.417   1.301   6.823  0.0149 -0.2633 -0.4473
  168SOPE   C3118916   1.465   1.414   6.872 -0.0882 -1.5624  0.5371
  168SOPE   O3218917   1.537   1.495   6.818  0.6823 -0.1435 -0.0317
  168SOPE   C3218918   1.392   1.439   7.003  0.1499  0.0124 -0.1993
  168SOPE   H2X18919   1.283   1.421   6.993 -0.4215  1.6378  2.4941
  168SOPE   H2Y18920   1.408   1.547   7.025  2.1582  0.0266 -1.5836
  168SOPE   C2318921   1.484   0.832   7.038 -0.5465  0.0377 -0.4866
  168SOPE   H3R18922   1.569   0.862   7.103 -0.7724 -1.9800  0.7988
  168SOPE   H3S18923   1.449   0.736   7.083  1.1095 -0.3827 -0.0672
  168SOPE   C2418924   1.379   0.939   7.044 -0.4902 -0.0707 -0.0483
  168SOPE   H4R18925   1.405   1.030   6.986 -2.5957  0.5330 -0.0549
  168SOPE   H4S18926   1.287   0.897   6.999 -0.1078  0.3177 -1.2171
  168SOPE   C2518927   1.343   0.982   7.188 -0.2658 -0.1676 -0.6398
  168SOPE   H5R18928   1.308   0.898   7.251  1.5495 -0.6869 -0.2775
  168SOPE   H5S18929   1.430   1.037   7.231 -1.5289  1.7128 -0.4402
  168SOPE   C2618930   1.220   1.078   7.190 -0.4223  0.4473  0.1941
  168SOPE   H6R18931   1.231   1.175   7.137 -1.0658  1.3296  1.6240
  168SOPE   H6S18932   1.140   1.018   7.141 -0.6151  0.9842 -0.1533
  168SOPE   C2718933   1.187   1.119   7.337  0.6083  0.3086  0.0524
  168SOPE   H7R18934   1.280   1.128   7.397 -0.2383 -0.2622  1.4790
  168SOPE   H7S18935   1.140   1.219   7.326 -0.8790 -0.5900 -1.9775
  168SOPE   C2818936   1.080   1.021   7.400  0.0330  0.0686 -0.2729
  168SOPE   H8R18937   0.999   1.032   7.324 -0.8162 -0.5055  0.5445
  168SOPE   H8S18938   1.107   0.914   7.398 -2.6314 -0.6306 -0.9524
  168SOPE   C2918939   1.043   1.059   7.542  0.5609 -0.3828 -0.1745
  168SOPE   H9118940   0.982   1.149   7.556 -1.0343 -1.4681 -0.0992
  168SOPE  C21018941   1.077   0.995   7.658 -0.5707 -0.0339 -0.1578
  168SOPE  H10118942   1.045   1.043   7.751 -0.6510  1.5636 -1.0036
  168SOPE  C21118943   1.159   0.873   7.678 -0.2732 -0.0792  0.3474
  168SOPE  H11R18944   1.205   0.837   7.584 -0.1065  0.7821  0.0982
  168SOPE  H11S18945   1.088   0.792   7.704  0.5653 -1.7991 -2.4452
  168SOPE  C21218946   1.275   0.894   7.782 -0.1987  0.1597 -0.9956
  168SOPE  H12R18947   1.239   0.927   7.882  0.9757  1.0338 -0.8511
  168SOPE  H12S18948   1.348   0.971   7.751  0.2051 -0.7730 -2.3946
  168SOPE  C21318949   1.345   0.764   7.811  0.5137  0.1824 -0.2593
  168SOPE  H13R18950   1.400   0.722   7.725  0.9472 -3.5015  1.7065
  168SOPE  H13S18951   1.267   0.692   7.845  1.9919 -1.6946 -0.7239
  168SOPE  C21418952   1.452   0.774   7.918 -0.1581  0.0225 -0.5310
  168SOPE  H14R18953   1.527   0.850   7.887 -2.0634  2.0999 -0.1699
  168SOPE  H14S18954   1.505   0.677   7.927  1.5348  1.0750  1.4999
  168SOPE  C21518955   1.411   0.830   8.056  0.1146  0.0212 -0.0826
  168SOPE  H15R18956   1.312   0.784   8.078  0.0638  0.5413  0.7783
  168SOPE  H15S18957   1.390   0.940   8.054 -3.6113 -0.6143 -0.9884
  168SOPE  C21618958   1.514   0.796   8.168 -0.2025  0.4612  0.1828
  168SOPE  H16R18959   1.618   0.783   8.131 -0.0554  2.2435 -0.0832
  168SOPE  H16S18960   1.481   0.700   8.212  1.0152  0.5689  1.3517
  168SOPE  C21718961   1.503   0.899   8.287 -0.1421 -0.1130  0.6273
  168SOPE  H17R18962   1.397   0.905   8.321 -0.4122  1.4537 -0.4403
  168SOPE  H17S18963   1.526   1.000   8.247 -0.3759 -0.1832  0.3155
  168SOPE  C21818964   1.605   0.871   8.394  1.0179  0.7198 -0.1214
  168SOPE  H18R18965   1.708   0.896   8.364  1.4566  0.0411  0.7865
  168SOPE  H18S18966   1.593   0.767   8.432  1.7023  0.6906  0.0059
  168SOPE  H18T18967   1.583   0.948   8.471 -1.2625  0.9185 -0.9221
  168SOPE   C3318968   1.460   1.372   7.126 -0.5730 -0.2138 -0.7965
  168SOPE   H3X18969   1.568   1.391   7.138 -0.0921 -2.2305 -1.8208
  168SOPE   H3Y18970   1.455   1.261   7.124  1.4338 -0.3301 -0.0961
  168SOPE   C3418971   1.387   1.421   7.251 -0.3986  0.4214  0.1604
  168SOPE   H4X18972   1.279   1.395   7.249 -0.4286  0.5810 -2.7939
  168SOPE   H4Y18973   1.395   1.532   7.253 -2.4191  0.6008  0.1014
  168SOPE   C3518974   1.436   1.362   7.386 -0.5343 -0.0882  0.7014
  168SOPE   H5X18975   1.546   1.380   7.397 -0.5675  1.8573 -1.8162
  168SOPE   H5Y18976   1.431   1.251   7.388 -0.8859 -0.0669  1.0007
  168SOPE   C3618977   1.357   1.419   7.504 -0.3473 -0.2658  0.2102
  168SOPE   H6X18978   1.248   1.401   7.493 -0.5128  0.7520  0.1157
  168SOPE   H6Y18979   1.364   1.529   7.518  0.2779 -0.0234 -1.8494
  168SOPE   C3718980   1.390   1.348   7.636 -0.0339 -0.4279  0.2091
  168SOPE   H7X18981   1.498   1.364   7.653 -0.2786 -0.7029  2.0535
  168SOPE   H7Y18982   1.360   1.241   7.625 -1.5293 -0.3437  3.1754
  168SOPE   C3818983   1.308   1.399   7.753  0.3142 -0.1134 -0.3165
  168SOPE   H8X18984   1.201   1.391   7.724  0.5855 -0.0343 -1.3753
  168SOPE   H8Y18985   1.314   1.508   7.774 -0.3070 -0.1444  0.0316
  168SOPE   C3918986   1.351   1.326   7.880  0.8738  0.1410  0.4282
  168SOPE   H9X18987   1.452   1.357   7.912  0.5955  1.7676 -0.2169
  168SOPE   H9Y18988   1.347   1.217   7.856  1.0418  0.3608 -0.6463
  168SOPE  C31018989   1.259   1.341   7.993  0.0382  0.3683  0.5059
  168SOPE  H10X18990   1.155   1.305   7.974  0.9450 -1.2840 -1.4885
  168SOPE  H10Y18991   1.256   1.448   8.022 -1.6604  0.3493  0.4448
  168SOPE  C31118992   1.307   1.255   8.114 -0.2401  0.8748 -0.2437
  168SOPE  H11X18993   1.417   1.271   8.110  0.1021 -1.4468 -1.0951
  168SOPE  H11Y18994   1.293   1.145   8.108  2.3924  0.4210  0.9569
  168SOPE  C31218995   1.242   1.301   8.248  0.6584 -0.2351 -0.3000
  168SOPE  H12X18996   1.134   1.284   8.233 -0.0449  0.1111  3.8376
  168SOPE  H12Y18997   1.264   1.404   8.284 -3.1708  0.6996 -0.4167
  168SOPE  C31318998   1.281   1.197   8.363  1.1558  0.2542  0.3495
  168SOPE  H13X18999   1.379   1.223   8.410  2.8421 -5.2347  0.2212
  168SOPE  H13Y19000   1.282   1.093   8.324  1.0921  0.6431 -0.7026
  168SOPE  C31419001   1.183   1.197   8.487  0.6430  0.5178 -0.7699
  168SOPE  H14X19002   1.225   1.116   8.551 -0.1166 -1.0327 -2.1802
  168SOPE  H14Y19003   1.081   1.176   8.448  0.0469 -0.3853  1.1669
  168SOPE  C31519004   1.197   1.329   8.567 -0.4645  0.0258 -0.4071
  168SOPE  H15X19005   1.165   1.420   8.512 -1.6636 -0.3037 -0.2629
  168SOPE  H15Y19006   1.303   1.345   8.595  0.1022 -3.0327 -0.6610
  168SOPE  C31619007   1.113   1.313   8.701 -0.3305 -0.0196  0.9049
  168SOPE  H16X19008   1.161   1.233   8.761  2.0319  0.3122 -0.4979
  168SOPE  H16Y19009   1.007   1.283   8.684 -0.5763  1.3242 -0.0740
  168SOPE  C31719010   1.123   1.442   8.788  0.4964 -0.0250  0.3518
  168SOPE  H17X19011   1.051   1.428   8.871 -0.8439  2.0297 -0.4129
  168SOPE  H17Y19012   1.082   1.520   8.721 -0.4726  0.5674  1.6103
  168SOPE  C31819013   1.254   1.471   8.848 -0.3827 -0.3202 -0.1224
  168SOPE  H18X19014   1.264   1.582   8.853  0.3097 -0.3932  0.1787
  168SOPE  H18Y19015   1.336   1.431   8.786 -0.9567 -2.0621  0.2207
  168SOPE  H18Z19016   1.273   1.447   8.955 -1.3543  1.7257  0.5331
  169SOPE     N19017   3.201   2.830   6.339 -0.7966  0.6072  0.4379
  169SOPE   HN119018   3.219   2.914   6.281 -2.2395 -0.0373 -0.9830
  169SOPE   HN219019   3.224   2.737   6.299 -0.9649 -0.4449  2.6892
  169SOPE   HN319020   3.098   2.823   6.352 -1.2896 -2.2575 -4.0980
  169SOPE   C1219021   3.273   2.838   6.471  0.2534 -0.3718  0.1068
  169SOPE  H12A19022   3.375   2.801   6.449 -0.6942 -1.0666 -3.3714
  169SOPE  H12B19023   3.223   2.766   6.540  1.3978  1.0665  2.5039
  169SOPE   C1119024   3.277   2.982   6.516 -0.2247  0.7960  0.1173
  169SOPE  H11A19025   3.341   2.995   6.606 -1.0615 -0.9786  1.0064
  169SOPE  H11B19026   3.178   3.018   6.551 -0.3674  0.2291  0.3096
  169SOPE     P19027   3.463   3.082   6.358  0.2650  0.3706 -0.1560
  169SOPE   O1319028   3.460   3.204   6.274 -0.5853  0.0676  0.2376
  169SOPE   O1419029   3.499   2.944   6.301 -0.0539 -0.5634 -0.4184
  169SOPE   O1219030   3.314   3.072   6.414  0.1373  0.2706 -0.6393
  169SOPE   O1119031   3.549   3.109   6.487 -0.8011  0.0625 -0.3888
  169SOPE    C119032   3.568   3.235   6.545 -0.4872  0.2868 -0.0498
  169SOPE    HA19033   3.477   3.297   6.558  0.5106  1.8332 -0.3105
  169SOPE    HB19034   3.643   3.297   6.491 -0.1457 -1.2713 -1.3902
  169SOPE    C219035   3.611   3.209   6.693  0.0055 -0.0332  0.3770
  169SOPE    HS19036   3.686   3.128   6.700  0.2369  0.0378 -1.1026
  169SOPE   O2119037   3.494   3.165   6.765  0.5760 -0.2585 -0.2235
  169SOPE   C2119038   3.484   3.035   6.794  0.5337 -0.1588  0.6582
  169SOPE   O2219039   3.553   2.942   6.750 -0.1718 -0.0901 -0.3475
  169SOPE   C2219040   3.372   3.001   6.887  0.5301  0.6291 -0.8132
  169SOPE   H2R19041   3.296   2.952   6.822  0.2108  0.4476 -0.3035
  169SOPE   H2S19042   3.327   3.095   6.925  0.9280 -0.3655  2.2031
  169SOPE    C319043   3.683   3.333   6.757  0.4403 -0.4029  0.4156
  169SOPE    HX19044   3.616   3.420   6.739 -0.1463 -0.8059  0.6406
  169SOPE    HY19045   3.775   3.348   6.697  0.0759  1.9727  0.4261
  169SOPE   O3119046   3.701   3.308   6.898  0.1858 -0.5901  0.6530
  169SOPE   C3119047   3.755   3.413   6.957 -0.2882  0.7260 -0.4162
  169SOPE   O3219048   3.788   3.515   6.894  0.0074 -0.3794  0.0380
  169SOPE   C3219049   3.755   3.407   7.112  0.2321  0.7193  0.0744
  169SOPE   H2X19050   3.846   3.356   7.150 -1.2409 -0.9225  1.4817
  169SOPE   H2Y19051   3.672   3.346   7.152 -0.3329  0.5065 -1.4225
  169SOPE   C2319052   3.424   2.917   7.008  0.2710  0.2425 -0.2731
  169SOPE   H3R19053   3.517   2.967   7.043 -0.6245  1.1522  0.8430
  169SOPE   H3S19054   3.457   2.820   6.966  1.9383  2.0070 -3.1799
  169SOPE   C2419055   3.332   2.902   7.128 -0.2898 -0.3586 -0.2518
  169SOPE   H4R19056   3.231   2.862   7.109  0.3082 -0.6408 -2.9781
  169SOPE   H4S19057   3.376   2.829   7.200  1.4798 -0.1570 -1.0901
  169SOPE   C2519058   3.297   3.031   7.208  1.1876 -0.2470 -0.7014
  169SOPE   H5R19059   3.217   3.083   7.152  1.5949  2.9438  1.5634
  169SOPE   H5S19060   3.253   3.009   7.307  1.8650  0.6659 -0.1953
  169SOPE   C2619061   3.409   3.130   7.223  0.0428 -0.3816 -0.2760
  169SOPE   H6R19062   3.486   3.075   7.280  1.3367  2.0068  0.2942
  169SOPE   H6S19063   3.445   3.167   7.125 -3.7979 -0.1889 -1.7397
  169SOPE   C2719064   3.355   3.244   7.320  0.1846  0.4350 -0.0794
  169SOPE   H7R19065   3.415   3.336   7.304 -0.1849  0.4848 -1.2539
  169SOPE   H7S19066   3.245   3.257   7.309 -0.2057 -1.0572  1.9566
  169SOPE   C2819067   3.373   3.211   7.467 -0.0841  0.8741  0.5544
  169SOPE   H8R19068   3.317   3.121   7.501 -1.3352  0.4726 -2.3852
  169SOPE   H8S19069   3.480   3.184   7.483 -0.2401  0.4746  0.9395
  169SOPE   C2919070   3.320   3.336   7.543  0.0234  0.0397 -0.0602
  169SOPE   H9119071   3.365   3.431   7.512 -0.7563  0.6107  0.5306
  169SOPE  C21019072   3.221   3.345   7.630  0.1859 -0.3008  0.3133
  169SOPE  H10119073   3.202   3.441   7.679 -1.9259  0.1970 -1.4194
  169SOPE  C21119074   3.150   3.220   7.683  0.1804 -0.0725  0.3697
  169SOPE  H11R19075   3.145   3.136   7.610 -0.9855  0.5988 -0.3368
  169SOPE  H11S19076   3.042   3.247   7.692  0.0619 -0.1053 -0.9188
  169SOPE  C21219077   3.186   3.162   7.818  0.1880 -0.8913 -0.2636
  169SOPE  H12R19078   3.103   3.099   7.856  0.0958 -0.1621  0.7757
  169SOPE  H12S19079   3.203   3.248   7.887  0.6543 -0.9570 -0.2937
  169SOPE  C21319080   3.312   3.078   7.807  0.1668  0.9573 -0.8044
  169SOPE  H13R19081   3.357   3.072   7.908  1.7595  2.3759 -1.3995
  169SOPE  H13S19082   3.386   3.126   7.739  0.1601  1.7517 -0.2595
  169SOPE  C21419083   3.282   2.936   7.758 -0.7455  0.5331 -0.5263
  169SOPE  H14R19084   3.243   2.943   7.654 -1.5490 -0.1956 -0.2870
  169SOPE  H14S19085   3.201   2.903   7.827 -0.9071  0.4729 -0.7452
  169SOPE  C21519086   3.397   2.840   7.765  0.8385 -0.5511  0.2064
  169SOPE  H15R19087   3.432   2.801   7.863 -1.0537 -0.1165  1.0908
  169SOPE  H15S19088   3.478   2.900   7.718 -1.2695 -0.1142 -3.0487
  169SOPE  C21619089   3.377   2.717   7.672 -0.5104 -0.0209 -0.3097
  169SOPE  H16R19090   3.470   2.659   7.655 -0.0357  0.9280 -0.9763
  169SOPE  H16S19091   3.352   2.755   7.571 -1.0915 -2.9545 -1.3127
  169SOPE  C21719092   3.271   2.615   7.721 -0.1122  0.0257 -0.1436
  169SOPE  H17R19093   3.184   2.671   7.762 -0.0142 -0.4239  0.6952
  169SOPE  H17S19094   3.310   2.555   7.806 -0.4008 -0.5561 -0.4211
  169SOPE  C21819095   3.217   2.531   7.608  0.3098 -0.7583 -0.3664
  169SOPE  H18R19096   3.261   2.430   7.611 -1.0134 -1.3365  0.2409
  169SOPE  H18S19097   3.229   2.588   7.513  0.0282  0.3185  0.2246
  169SOPE  H18T19098   3.108   2.513   7.620  0.0310  2.3959  2.6694
  169SOPE   C3319099   3.746   3.551   7.160  0.4370 -0.2239 -0.3572
  169SOPE   H3X19100   3.673   3.607   7.098 -0.7315 -2.7898 -1.3758
  169SOPE   H3Y19101   3.842   3.606   7.158  1.2636 -1.6802 -1.5627
  169SOPE   C3419102   3.703   3.562   7.307 -0.0683  0.3497  0.5578
  169SOPE   H4X19103   3.609   3.505   7.323 -0.6296  1.5630  1.6774
  169SOPE   H4Y19104   3.679   3.670   7.320 -0.5039  0.2726  0.4200
  169SOPE   C3519105   3.820   3.521   7.399 -0.6085  0.1724  1.0113
  169SOPE   H5X19106   3.902   3.588   7.365 -2.7804  2.1487 -0.4569
  169SOPE   H5Y19107   3.833   3.411   7.399 -1.1730  0.1076  0.3606
  169SOPE   C3619108   3.798   3.559   7.541 -0.4256  0.7496  0.2676
  169SOPE   H6X19109   3.778   3.668   7.528  1.5879  1.3129  1.5791
  169SOPE   H6Y19110   3.891   3.551   7.602 -1.4330 -0.5046  1.6534
  169SOPE   C3719111   3.677   3.495   7.612 -0.1894 -0.0032  0.8606
  169SOPE   H7X19112   3.690   3.385   7.621 -1.7970 -0.2774 -0.0503
  169SOPE   H7Y19113   3.586   3.526   7.556  0.7778  0.6182 -0.3754
  169SOPE   C3819114   3.652   3.555   7.753  0.3616 -0.2341 -0.2880
  169SOPE   H8X19115   3.745   3.543   7.813 -0.0349  2.1861  0.8591
  169SOPE   H8Y19116   3.625   3.662   7.743 -1.9373 -0.5970  1.6377
  169SOPE   C3919117   3.540   3.482   7.827 -0.0958 -0.1802  1.0789
  169SOPE   H9X19118   3.546   3.374   7.802 -0.5817 -0.0661  0.4601
  169SOPE   H9Y19119   3.443   3.507   7.779  1.0668  1.1152 -0.6482
  169SOPE  C31019120   3.544   3.502   7.980  0.4423 -0.2330 -0.7071
  169SOPE  H10X19121   3.511   3.602   8.016 -1.4317 -1.7123  1.8780
  169SOPE  H10Y19122   3.647   3.489   8.019  0.2887 -1.4149 -0.6624
  169SOPE  C31119123   3.449   3.400   8.056 -0.1394 -0.0330 -0.3248
  169SOPE  H11X19124   3.501   3.303   8.043 -0.2880 -0.2894  0.9064
  169SOPE  H11Y19125   3.347   3.391   8.013 -0.9629  0.0384  1.5272
  169SOPE  C31219126   3.459   3.425   8.210 -0.5629 -0.0186 -0.0368
  169SOPE  H12X19127   3.559   3.451   8.252 -0.3990 -0.3772 -0.2064
  169SOPE  H12Y19128   3.428   3.329   8.256 -0.3491  0.2119  0.6090
  169SOPE  C31319129   3.366   3.529   8.276  0.5269 -0.3589 -0.2311
  169SOPE  H13X19130   3.258   3.507   8.270  0.4547 -0.8911  2.4346
  169SOPE  H13Y19131   3.384   3.624   8.221 -3.6437  0.4974 -0.2869
  169SOPE  C31419132   3.382   3.539   8.438 -0.1447 -0.9599  0.1349
  169SOPE  H14X19133   3.492   3.546   8.452 -0.0467 -1.0454 -0.5560
  169SOPE  H14Y19134   3.335   3.452   8.488  0.2325 -0.2131  1.8015
  169SOPE  C31519135   3.323   3.665   8.501 -0.2991 -0.4456  0.3907
  169SOPE  H15X19136   3.216   3.663   8.471 -0.5129  2.7121  0.7602
  169SOPE  H15Y19137   3.379   3.751   8.458 -0.1464 -1.5985 -1.7675
  169SOPE  C31619138   3.344   3.678   8.651  1.0606 -0.4763 -0.3649
  169SOPE  H16X19139   3.305   3.581   8.688  0.5108 -0.5690 -1.1839
  169SOPE  H16Y19140   3.279   3.764   8.677  2.4679  0.3563  0.4635
  169SOPE  C31719141   3.480   3.702   8.715  0.6693 -0.1601 -0.4061
  169SOPE  H17X19142   3.543   3.784   8.673  1.9012  0.2872  2.1941
  169SOPE  H17Y19143   3.548   3.616   8.698  0.1062 -0.7290  0.2156
  169SOPE  C31819144   3.471   3.727   8.866 -0.1568  0.0182  0.1189
  169SOPE  H18X19145   3.568   3.760   8.911 -0.6831  1.1763  0.4273
  169SOPE  H18Y19146   3.430   3.637   8.916  1.4092 -0.2914  0.9026
  169SOPE  H18Z19147   3.409   3.819   8.872  2.4742  1.7287  2.3862
  170SOPE     N19148   4.269   1.808   5.922 -0.1918 -0.4612 -0.2725
  170SOPE   HN119149   4.300   1.712   5.947 -1.8098 -1.3103 -1.4381
  170SOPE   HN219150   4.168   1.824   5.942  0.7144  2.7054  2.1365
  170SOPE   HN319151   4.293   1.831   5.823 -1.0950  0.4532 -0.2905
  170SOPE   C1219152   4.338   1.896   6.016  0.1138  0.5715 -0.2681
  170SOPE  H12A19153   4.306   2.000   5.990  1.0466  0.9776  0.2126
  170SOPE  H12B19154   4.447   1.896   5.998  0.1425  1.4209 -0.1116
  170SOPE   C1119155   4.302   1.862   6.167 -0.4574 -0.3331  0.0155
  170SOPE  H11A19156   4.194   1.855   6.189 -0.7727  2.4718 -0.5473
  170SOPE  H11B19157   4.337   1.951   6.223  0.7069 -0.9351  0.2655
  170SOPE     P19158   4.519   1.757   6.284 -0.2204  0.2909 -0.3845
  170SOPE   O1319159   4.584   1.885   6.248  0.5458  0.2132 -0.2067
  170SOPE   O1419160   4.591   1.635   6.252 -0.5405  0.0074  0.6147
  170SOPE   O1219161   4.368   1.743   6.212 -0.4376  0.4949 -0.4364
  170SOPE   O1119162   4.478   1.756   6.437  0.1750 -0.2755  0.1358
  170SOPE    C119163   4.359   1.704   6.489  0.8623  0.1179  0.6135
  170SOPE    HA19164   4.349   1.595   6.469  1.1680  0.0375  0.8750
  170SOPE    HB19165   4.266   1.756   6.459  0.1840 -1.0988  0.5590
  170SOPE    C219166   4.359   1.695   6.644 -1.2144  0.6406 -0.5307
  170SOPE    HS19167   4.372   1.797   6.687  1.4188  0.5655 -1.0316
  170SOPE   O2119168   4.473   1.612   6.682 -0.0953 -0.1993  0.2571
  170SOPE   C2119169   4.511   1.630   6.808 -0.6673  0.2362 -0.1442
  170SOPE   O2219170   4.464   1.706   6.893  0.0011 -0.0794 -0.3295
  170SOPE   C2219171   4.615   1.527   6.843 -0.1212 -0.1870 -0.9922
  170SOPE   H2R19172   4.693   1.509   6.766 -1.5224 -1.8963 -2.0473
  170SOPE   H2S19173   4.564   1.429   6.832  1.7409 -1.3723  0.5939
  170SOPE    C319174   4.226   1.637   6.701 -0.2277 -0.4896  0.0403
  170SOPE    HX19175   4.225   1.535   6.656  4.1201 -0.7567  0.3991
  170SOPE    HY19176   4.149   1.701   6.653 -0.0855  0.0112  0.4752
  170SOPE   O3119177   4.212   1.630   6.844  0.1362  0.1439  0.5162
  170SOPE   C3119178   4.173   1.739   6.899 -0.2758 -0.3644 -0.3140
  170SOPE   O3219179   4.174   1.853   6.854 -1.0566  0.1802  0.0824
  170SOPE   C3219180   4.142   1.691   7.038  0.0822 -0.7351 -0.8435
  170SOPE   H2X19181   4.233   1.645   7.081  0.6436  1.2086  0.1208
  170SOPE   H2Y19182   4.062   1.619   7.012 -0.5677 -0.2271 -0.2717
  170SOPE   C2319183   4.684   1.548   6.983 -0.2381  0.2951  0.5910
  170SOPE   H3R19184   4.719   1.652   7.000  1.8039 -0.4954  1.3897
  170SOPE   H3S19185   4.771   1.479   6.997  1.4775  2.0558 -1.1003
  170SOPE   C2419186   4.587   1.535   7.103 -0.1702 -0.7313  0.6272
  170SOPE   H4R19187   4.557   1.631   7.150  0.3946 -0.5016  0.5147
  170SOPE   H4S19188   4.497   1.478   7.072 -0.4714 -0.6752  1.3886
  170SOPE   C2519189   4.658   1.458   7.220  0.5141  0.4128 -0.8316
  170SOPE   H5R19190   4.585   1.436   7.300  0.1060 -2.3176 -1.8871
  170SOPE   H5S19191   4.696   1.360   7.182  1.5566  0.2963  0.4705
  170SOPE   C2619192   4.778   1.536   7.274 -0.7210  0.0712  0.6579
  170SOPE   H6R19193   4.857   1.513   7.199 -1.6330  0.2013 -0.3621
  170SOPE   H6S19194   4.765   1.646   7.285  1.2433  0.3135  0.7051
  170SOPE   C2719195   4.833   1.475   7.412 -0.0263  0.6580  0.8740
  170SOPE   H7R19196   4.851   1.366   7.403 -2.9558  0.1488  0.8391
  170SOPE   H7S19197   4.932   1.523   7.425  0.4840 -0.1518  0.0666
  170SOPE   C2819198   4.752   1.503   7.541 -0.4114  0.1747 -0.0029
  170SOPE   H8R19199   4.667   1.432   7.533  0.2627 -0.6883  0.4865
  170SOPE   H8S19200   4.815   1.459   7.621 -0.0592 -1.9475 -1.4008
  170SOPE   C2919201   4.712   1.646   7.552  0.2415  0.2968  0.1130
  170SOPE   H9119202   4.622   1.674   7.495 -0.4619  0.6703  1.3929
  170SOPE  C21019203   4.781   1.732   7.634  0.0847  0.6161 -0.1181
  170SOPE  H10119204   4.747   1.836   7.646  2.1123  1.1539  1.3130
  170SOPE  C21119205   4.902   1.701   7.720 -0.5556 -0.4328  0.3100
  170SOPE  H11R19206   4.987   1.762   7.682  0.7396 -2.3360  0.1124
  170SOPE  H11S19207   4.929   1.594   7.712  1.6376 -0.0512  1.8749
  170SOPE  C21219208   4.901   1.729   7.873 -0.1927  0.3231  0.1716
  170SOPE  H12R19209   4.988   1.683   7.923 -0.7100  0.4484  1.2032
  170SOPE  H12S19210   4.810   1.683   7.917  0.3890  0.5454  1.6311
  170SOPE  C21319211   4.897   1.876   7.913  0.2763 -0.5710 -0.1994
  170SOPE  H13R19212   4.816   1.931   7.859  2.0667  1.8672 -0.4618
  170SOPE  H13S19213   4.983   1.926   7.864  0.0909 -0.1730 -0.1262
  170SOPE  C21419214   4.902   1.892   8.065 -0.5576  0.1235 -0.1383
  170SOPE  H14R19215   4.819   1.840   8.119 -0.3661  1.8223  1.8629
  170SOPE  H14S19216   4.900   2.001   8.086 -0.8874 -0.2381  1.8735
  170SOPE  C21519217   5.035   1.841   8.123  0.3390  0.6687 -0.4722
  170SOPE  H15R19218   5.117   1.892   8.069 -0.2346  2.2269  0.0987
  170SOPE  H15S19219   5.042   1.730   8.118  2.4705  0.7732  0.0704
  170SOPE  C21619220   5.044   1.878   8.269 -0.2924  0.1033 -0.1946
  170SOPE  H16R19221   5.028   1.987   8.281 -0.4165  0.5237 -3.4871
  170SOPE  H16S19222   5.148   1.856   8.298 -0.2445  0.2465 -0.2582
  170SOPE  C21719223   4.940   1.819   8.373  0.3887 -0.0218  0.2569
  170SOPE  H17R19224   4.935   1.709   8.359 -0.0138  0.1995 -1.4732
  170SOPE  H17S19225   4.845   1.871   8.349  0.3406  0.2235  0.9739
  170SOPE  C21819226   4.981   1.840   8.516  0.2834  0.6510 -0.4429
  170SOPE  H18R19227   4.997   1.945   8.547 -1.2262  1.2718 -1.6603
  170SOPE  H18S19228   5.064   1.774   8.549  0.4315  0.0704 -1.9232
  170SOPE  H18T19229   4.895   1.820   8.584 -0.6312 -0.4876 -1.8729
  170SOPE   C3319230   4.069   1.790   7.135  0.0653 -0.5529 -0.6897
  170SOPE   H3X19231   3.980   1.835   7.085  0.6074  2.1876  0.7300
  170SOPE   H3Y19232   4.135   1.876   7.158 -0.0882 -1.0361  1.6203
  170SOPE   C3419233   4.021   1.724   7.262 -0.1781  0.4555 -0.9956
  170SOPE   H4X19234   4.106   1.676   7.316  0.1188  0.7859 -1.1618
  170SOPE   H4Y19235   3.952   1.640   7.240  1.7065 -1.2789 -0.4864
  170SOPE   C3519236   3.945   1.818   7.356 -0.5502 -0.2717  0.2654
  170SOPE   H5X19237   3.862   1.866   7.300 -1.7031  0.7977  2.8121
  170SOPE   H5Y19238   4.018   1.899   7.375 -2.4829  1.4688  0.4272
  170SOPE   C3619239   3.883   1.746   7.486 -0.1525 -1.0507  0.6975
  170SOPE   H6X19240   3.881   1.636   7.467 -0.5686 -0.9096 -0.1104
  170SOPE   H6Y19241   3.778   1.778   7.501  0.6277  0.3708  3.3630
  170SOPE   C3719242   3.967   1.767   7.613 -0.3541  0.1294  0.0582
  170SOPE   H7X19243   3.972   1.875   7.639 -2.3878 -0.5608  3.7140
  170SOPE   H7Y19244   4.069   1.726   7.598 -0.5480  0.6165 -2.8861
  170SOPE   C3819245   3.923   1.683   7.728 -0.2412 -0.3918  0.7628
  170SOPE   H8X19246   3.939   1.578   7.695 -0.3845 -0.2624  0.2715
  170SOPE   H8Y19247   3.814   1.685   7.744 -0.1907 -1.7675  1.3191
  170SOPE   C3919248   4.003   1.710   7.861 -0.0156 -0.3457 -0.1490
  170SOPE   H9X19249   3.987   1.815   7.893  0.6461 -0.6857  1.3389
  170SOPE   H9Y19250   4.109   1.714   7.830 -0.1422 -0.4144 -0.5916
  170SOPE  C31019251   3.974   1.617   7.975 -0.0336  0.3073 -0.5625
  170SOPE  H10X19252   3.957   1.516   7.932  0.4031 -0.6247  1.4198
  170SOPE  H10Y19253   3.880   1.654   8.022 -0.0767  1.9717 -1.9186
  170SOPE  C31119254   4.082   1.609   8.083  0.0097 -0.6646  0.7104
  170SOPE  H11X19255   4.103   1.716   8.105  0.6909  0.0781 -3.2413
  170SOPE  H11Y19256   4.182   1.574   8.051 -0.5380 -2.7891  1.2563
  170SOPE  C31219257   4.050   1.533   8.212  0.3762 -0.6283 -0.3635
  170SOPE  H12X19258   4.131   1.525   8.287 -0.2036  3.0914  0.7493
  170SOPE  H12Y19259   4.019   1.431   8.181 -1.4196 -0.3624  0.4707
  170SOPE  C31319260   3.939   1.599   8.291  0.4565 -0.3508 -0.5673
  170SOPE  H13X19261   3.843   1.598   8.235  0.2988 -1.2234 -0.2909
  170SOPE  H13Y19262   3.957   1.708   8.308 -2.2136 -0.0068  0.3616
  170SOPE  C31419263   3.914   1.527   8.426  0.4454  0.0775 -0.2153
  170SOPE  H14X19264   4.006   1.534   8.488 -1.9448  0.9940  3.3553
  170SOPE  H14Y19265   3.892   1.419   8.411  0.6614  0.1638 -1.1724
  170SOPE  C31519266   3.802   1.603   8.506 -0.7022 -0.5205  0.6122
  170SOPE  H15X19267   3.702   1.594   8.457  0.9026 -1.9060 -2.5596
  170SOPE  H15Y19268   3.834   1.709   8.500 -1.8996 -0.2141 -0.4998
  170SOPE  C31619269   3.772   1.555   8.644 -0.1688  0.2396 -0.2640
  170SOPE  H16X19270   3.852   1.574   8.720  0.1476 -0.4503 -0.4231
  170SOPE  H16Y19271   3.745   1.448   8.644 -0.1308  0.2011  2.0856
  170SOPE  C31719272   3.649   1.620   8.710 -0.0475 -0.3278  0.8262
  170SOPE  H17X19273   3.562   1.603   8.642  0.3076 -0.3977  0.3855
  170SOPE  H17Y19274   3.677   1.727   8.715  0.8066 -0.6053  2.0091
  170SOPE  C31819275   3.610   1.563   8.851  0.7233 -0.1302  0.0284
  170SOPE  H18X19276   3.595   1.453   8.849 -1.9721  0.1363  2.3193
  170SOPE  H18Y19277   3.531   1.626   8.897  0.8321  1.8905 -2.4533
  170SOPE  H18Z19278   3.693   1.586   8.922 -0.3377  0.5836  1.0570
  171SOPE     N19279   5.275   5.102   6.240  0.3496  1.0761  0.3596
  171SOPE   HN119280   5.251   5.165   6.319  0.0567  1.5321 -0.0925
  171SOPE   HN219281   5.331   5.026   6.284 -1.6640 -0.7925 -0.2056
  171SOPE   HN319282   5.327   5.159   6.171 -0.5138  1.2598 -0.1580
  171SOPE   C1219283   5.156   5.060   6.170 -0.5295  0.1217  0.5788
  171SOPE  H12A19284   5.191   5.026   6.070  1.0497  0.2117  1.0940
  171SOPE  H12B19285   5.094   5.151   6.160 -0.2168  0.1839 -1.0610
  171SOPE   C1119286   5.082   4.944   6.236 -0.5815  1.1402 -0.6168
  171SOPE  H11A19287   5.157   4.863   6.251 -2.2001 -0.1850  0.6049
  171SOPE  H11B19288   5.002   4.904   6.169  1.0368 -2.9834 -0.2743
  171SOPE     P19289   4.910   4.912   6.436 -0.0195  0.0220 -0.1238
  171SOPE   O1319290   4.817   4.865   6.332 -0.2561  0.1521  0.0451
  171SOPE   O1419291   4.858   5.004   6.538 -0.5870  0.6643  0.1350
  171SOPE   O1219292   5.032   4.990   6.363  0.1694  0.0805  0.3252
  171SOPE   O1119293   4.980   4.791   6.510  0.2833 -0.1508  0.3348
  171SOPE    C119294   5.110   4.799   6.568  0.9513 -0.4114  0.3787
  171SOPE    HA19295   5.171   4.890   6.546  0.1033 -0.0064 -0.2848
  171SOPE    HB19296   5.166   4.714   6.524  1.2079  0.2244 -0.5407
  171SOPE    C219297   5.104   4.804   6.728 -0.4931 -0.7799 -0.7649
  171SOPE    HS19298   5.088   4.701   6.767 -0.8665 -0.2216  0.5703
  171SOPE   O2119299   5.007   4.897   6.784 -0.7127  0.0070 -0.2435
  171SOPE   C2119300   4.889   4.835   6.794  0.1271 -0.4489 -0.1515
  171SOPE   O2219301   4.863   4.722   6.762 -0.1762  0.2835  0.2232
  171SOPE   C2219302   4.789   4.924   6.868  0.2315  0.0904 -0.1749
  171SOPE   H2R19303   4.692   4.870   6.860  0.5557 -0.3316 -1.3438
  171SOPE   H2S19304   4.792   5.020   6.813 -1.6203  1.5284  2.1165
  171SOPE    C319305   5.244   4.836   6.790  0.1878  0.5462 -0.8122
  171SOPE    HX19306   5.260   4.945   6.785 -0.5391  0.7182  0.3767
  171SOPE    HY19307   5.321   4.782   6.731  1.2140 -0.1570  1.0980
  171SOPE   O3119308   5.257   4.777   6.923 -0.2228 -0.2446  0.3462
  171SOPE   C3119309   5.271   4.860   7.029 -1.6022 -0.0263  0.3570
  171SOPE   O3219310   5.279   4.979   7.025 -0.1252 -0.8265 -0.1727
  171SOPE   C3219311   5.290   4.776   7.160 -0.4890  0.3986 -0.2110
  171SOPE   H2X19312   5.398   4.751   7.167 -0.8999 -1.4908 -0.1607
  171SOPE   H2Y19313   5.238   4.679   7.142 -1.3901  0.5739  1.3700
  171SOPE   C2319314   4.824   4.939   7.012  0.2489  0.4523  1.0428
  171SOPE   H3R19315   4.928   4.974   7.030 -0.2512  1.5859  1.7909
  171SOPE   H3S19316   4.814   4.845   7.071 -2.3981 -0.8631 -1.4273
  171SOPE   C2419317   4.731   5.046   7.076 -1.0083  0.2533  0.0615
  171SOPE   H4R19318   4.757   5.141   7.024  0.3838  1.1006  2.2404
  171SOPE   H4S19319   4.623   5.027   7.058 -0.7815 -1.8909  0.8775
  171SOPE   C2519320   4.751   5.072   7.224 -0.0032 -0.0319  0.7501
  171SOPE   H5R19321   4.742   4.978   7.282 -3.3791 -0.7582 -0.8157
  171SOPE   H5S19322   4.855   5.105   7.243 -0.6574  2.4871  0.1598
  171SOPE   C2619323   4.649   5.173   7.276 -0.1825 -0.1785  0.8535
  171SOPE   H6R19324   4.672   5.271   7.229 -0.1885 -0.5099  0.1570
  171SOPE   H6S19325   4.549   5.145   7.237  0.5240  0.6462 -1.6629
  171SOPE   C2719326   4.635   5.203   7.422  0.1161  1.1558 -0.4191
  171SOPE   H7R19327   4.553   5.276   7.436 -1.4035 -0.5129 -0.4641
  171SOPE   H7S19328   4.608   5.104   7.466 -0.1751  0.8648 -1.2505
  171SOPE   C2819329   4.766   5.261   7.490 -0.3334 -0.0041  0.0890
  171SOPE   H8R19330   4.828   5.170   7.508 -0.5369 -0.4021 -1.1742
  171SOPE   H8S19331   4.818   5.319   7.411  0.4846 -2.1036 -0.9568
  171SOPE   C2919332   4.736   5.340   7.613 -0.4202 -0.9828 -0.7802
  171SOPE   H9119333   4.694   5.441   7.606  2.3312  0.2832  0.2485
  171SOPE  C21019334   4.739   5.290   7.738  0.5713 -0.3900  0.2355
  171SOPE  H10119335   4.708   5.354   7.822  0.2515  0.4820 -0.5292
  171SOPE  C21119336   4.757   5.146   7.770 -0.4068  0.8410 -0.1914
  171SOPE  H11R19337   4.856   5.104   7.744 -0.4978 -0.7440  1.8961
  171SOPE  H11S19338   4.681   5.089   7.712  1.1810 -0.4215 -1.0584
  171SOPE  C21219339   4.719   5.121   7.918 -0.5665 -0.5616 -0.6724
  171SOPE  H12R19340   4.618   5.159   7.945 -0.5278 -0.5768 -0.5067
  171SOPE  H12S19341   4.801   5.169   7.975  1.2586 -4.9922  0.6080
  171SOPE  C21319342   4.724   4.970   7.963  0.1439 -0.1874 -0.1127
  171SOPE  H13R19343   4.821   4.928   7.929  1.2228  3.2419 -1.5073
  171SOPE  H13S19344   4.645   4.910   7.915  0.7113 -1.6602  0.7542
  171SOPE  C21419345   4.715   4.957   8.116  0.3257  0.1636 -0.3450
  171SOPE  H14R19346   4.700   4.849   8.137  0.5957  0.5269  1.8300
  171SOPE  H14S19347   4.617   5.000   8.144  0.1454 -0.1059 -0.5656
  171SOPE  C21519348   4.825   5.029   8.193  0.3985  0.2590 -0.9350
  171SOPE  H15R19349   4.818   5.140   8.188  1.6634  0.3103 -1.8603
  171SOPE  H15S19350   4.918   5.009   8.135  1.3471 -0.4545  0.7843
  171SOPE  C21619351   4.846   4.974   8.338  1.3173 -0.1914  0.2936
  171SOPE  H16R19352   4.889   4.871   8.332 -0.4571 -0.8784 -1.0062
  171SOPE  H16S19353   4.751   4.951   8.391  1.7510 -2.4455  0.1543
  171SOPE  C21719354   4.934   5.065   8.422 -0.2903 -0.2347 -0.3698
  171SOPE  H17R19355   4.883   5.161   8.446  2.8913  1.3712  0.2892
  171SOPE  H17S19356   5.012   5.099   8.350 -0.1752 -0.5617 -0.4006
  171SOPE  C21819357   4.988   5.003   8.547  0.0017 -0.2787 -0.1027
  171SOPE  H18R19358   5.041   4.910   8.516  0.0053  0.2743 -1.8293
  171SOPE  H18S19359   4.907   4.981   8.619 -0.5833  0.7953 -0.4128
  171SOPE  H18T19360   5.054   5.069   8.607  2.2027 -0.6980 -1.9827
  171SOPE   C3319361   5.229   4.832   7.291 -0.0175 -1.1032  0.1347
  171SOPE   H3X19362   5.259   4.937   7.314 -1.0706 -1.1344  1.6977
  171SOPE   H3Y19363   5.269   4.768   7.373  1.8825  1.2661  1.1251
  171SOPE   C3419364   5.077   4.815   7.293  0.0795 -0.5067 -0.1494
  171SOPE   H4X19365   5.052   4.784   7.188  1.9965  0.3830 -0.8808
  171SOPE   H4Y19366   5.030   4.914   7.309  2.2593  0.6654 -0.9022
  171SOPE   C3519367   5.029   4.714   7.396  0.1675  0.8456 -0.0774
  171SOPE   H5X19368   5.089   4.621   7.388  2.3805  1.9584  2.5811
  171SOPE   H5Y19369   4.923   4.692   7.373  0.4996  1.0223 -1.8330
  171SOPE   C3619370   5.029   4.764   7.541 -0.3746 -0.2956 -0.0793
  171SOPE   H6X19371   4.941   4.830   7.556  0.7482  1.1081  0.5498
  171SOPE   H6Y19372   5.121   4.819   7.572  0.0977 -0.2787 -1.5027
  171SOPE   C3719373   5.018   4.644   7.635  0.1338 -0.8597  0.9237
  171SOPE   H7X19374   5.096   4.568   7.616 -0.6410 -1.5038  0.2141
  171SOPE   H7Y19375   4.921   4.595   7.609 -0.4937  0.9286 -0.1771
  171SOPE   C3819376   5.005   4.675   7.783  0.6652  0.9518  0.3038
  171SOPE   H8X19377   4.980   4.576   7.827  2.5885 -0.5194 -1.8276
  171SOPE   H8Y19378   4.917   4.740   7.804 -0.6199 -0.8106  0.5112
  171SOPE   C3919379   5.129   4.728   7.846 -0.5853 -0.1160 -0.2687
  171SOPE   H9X19380   5.177   4.810   7.789  1.9635 -2.8385 -2.2710
  171SOPE   H9Y19381   5.202   4.645   7.833  1.8047  1.7789  0.7205
  171SOPE  C31019382   5.113   4.757   7.995  0.0803 -0.3208 -0.1093
  171SOPE  H10X19383   5.056   4.675   8.044 -2.3601  1.2580 -0.2416
  171SOPE  H10Y19384   5.045   4.845   7.999  0.5182 -0.0573  3.5595
  171SOPE  C31119385   5.236   4.800   8.063  0.2783 -1.0172  0.3309
  171SOPE  H11X19386   5.300   4.860   7.995 -1.1606 -1.0632 -1.1219
  171SOPE  H11Y19387   5.297   4.711   8.088  0.7335 -1.4421 -2.1604
  171SOPE  C31219388   5.219   4.877   8.195  0.9984  0.4033  0.0931
  171SOPE  H12X19389   5.151   4.815   8.258  0.2783  2.4887  1.4079
  171SOPE  H12Y19390   5.154   4.965   8.176  0.0453 -0.1897  0.6183
  171SOPE  C31319391   5.351   4.907   8.261 -0.3451  0.7768 -0.2397
  171SOPE  H13X19392   5.429   4.828   8.255  1.0584  2.1048  0.3362
  171SOPE  H13Y19393   5.324   4.922   8.367  1.3031  0.5414  0.2266
  171SOPE  C31419394   5.411   5.038   8.196 -0.2820  0.4719 -0.5228
  171SOPE  H14X19395   5.332   5.113   8.175 -0.7642 -0.2798 -1.4608
  171SOPE  H14Y19396   5.457   5.012   8.097  0.6758  2.4801 -0.6251
  171SOPE  C31519397   5.530   5.086   8.280 -0.7531  0.0229 -0.6202
  171SOPE  H15X19398   5.591   4.999   8.312  1.7124  1.5869 -0.8891
  171SOPE  H15Y19399   5.488   5.121   8.377 -0.0794  1.0946 -0.7096
  171SOPE  C31619400   5.617   5.190   8.209 -1.0060  0.3411 -0.0588
  171SOPE  H16X19401   5.671   5.247   8.288  2.9931 -0.9934 -1.7281
  171SOPE  H16Y19402   5.555   5.263   8.152  1.3018  0.2395 -2.8094
  171SOPE  C31719403   5.717   5.137   8.107 -1.1502  0.2993  0.6004
  171SOPE  H17X19404   5.778   5.220   8.064 -3.8655  1.3101 -1.4486
  171SOPE  H17Y19405   5.667   5.082   8.025 -0.1725  0.0722  0.1546
  171SOPE  C31819406   5.808   5.025   8.176  0.1802 -0.0164  0.1668
  171SOPE  H18X19407   5.749   4.936   8.207  0.6791 -0.2918  0.3335
  171SOPE  H18Y19408   5.883   5.064   8.248 -2.9974  1.8585  2.6351
  171SOPE  H18Z19409   5.871   4.976   8.099 -1.1155 -0.3091 -0.7290
  172SOPE     N19410   5.172   6.465   6.227 -0.6875  0.5257  0.3935
  172SOPE   HN119411   5.236   6.538   6.187 -0.1653 -1.1626 -2.0113
  172SOPE   HN219412   5.105   6.435   6.153  0.7277 -0.6487 -0.4453
  172SOPE   HN319413   5.114   6.509   6.300  0.3374  1.7303  0.4966
  172SOPE   C1219414   5.262   6.350   6.276 -0.2129 -0.3357 -0.2206
  172SOPE  H12A19415   5.335   6.319   6.199 -1.0435 -0.6144 -0.9123
  172SOPE  H12B19416   5.211   6.251   6.275 -0.4036 -0.2351 -1.2924
  172SOPE   C1119417   5.323   6.375   6.409  0.6908 -0.7911  0.8185
  172SOPE  H11A19418   5.388   6.286   6.424 -0.4451 -1.4616  1.8276
  172SOPE  H11B19419   5.242   6.380   6.486  1.6273 -1.6177  1.8731
  172SOPE     P19420   5.512   6.516   6.506  0.0323 -0.7284 -0.4970
  172SOPE   O1319421   5.530   6.660   6.531 -0.0176  0.6347 -0.1335
  172SOPE   O1419422   5.631   6.446   6.455  0.5783 -0.1610  0.2179
  172SOPE   O1219423   5.387   6.501   6.403 -0.2217 -0.2102  0.1804
  172SOPE   O1119424   5.459   6.441   6.634  1.2313  0.0369 -0.7729
  172SOPE    C119425   5.357   6.495   6.722 -0.6615 -0.2659  0.2578
  172SOPE    HA19426   5.277   6.419   6.737  1.0414 -2.4578 -1.2611
  172SOPE    HB19427   5.311   6.587   6.681  0.2320  0.5386  1.0502
  172SOPE    C219428   5.413   6.545   6.863 -0.7468 -0.4739  0.2739
  172SOPE    HS19429   5.464   6.642   6.851 -0.5218 -0.4494  1.3608
  172SOPE   O2119430   5.514   6.447   6.907  0.3688 -0.7165 -0.2182
  172SOPE   C2119431   5.475   6.325   6.932 -0.1321 -0.9760  0.8257
  172SOPE   O2219432   5.357   6.293   6.937  0.2555 -0.8670 -0.4219
  172SOPE   C2219433   5.593   6.237   6.972 -0.8020  0.6506  0.9986
  172SOPE   H2R19434   5.685   6.299   6.969  0.1615 -0.5952  3.3435
  172SOPE   H2S19435   5.609   6.153   6.901  0.0874  0.5428  1.3233
  172SOPE    C319436   5.306   6.574   6.972  0.2890  0.2035  0.0733
  172SOPE    HX19437   5.234   6.491   6.987  0.8106  0.2916  3.5550
  172SOPE    HY19438   5.247   6.661   6.937  0.3293  0.0536 -0.3634
  172SOPE   O3119439   5.368   6.615   7.096 -0.4342  0.1501 -0.3219
  172SOPE   C3119440   5.408   6.734   7.116 -0.8267  0.6075  0.6376
  172SOPE   O3219441   5.390   6.820   7.039 -0.6478 -0.5269 -0.4062
  172SOPE   C3219442   5.473   6.746   7.254  0.1485  0.2105 -0.9254
  172SOPE   H2X19443   5.558   6.674   7.257 -1.7611 -2.0480 -0.3888
  172SOPE   H2Y19444   5.397   6.703   7.322 -0.3727  0.2071 -1.5091
  172SOPE   C2319445   5.587   6.176   7.113 -0.1426  0.2509  0.4203
  172SOPE   H3R19446   5.675   6.112   7.138 -1.1099 -1.2508  0.0817
  172SOPE   H3S19447   5.498   6.111   7.124 -1.5563  2.5050  2.7242
  172SOPE   C2419448   5.571   6.287   7.213  0.2768 -0.1543 -0.4510
  172SOPE   H4R19449   5.651   6.363   7.201  0.0160 -0.1486 -2.4269
  172SOPE   H4S19450   5.472   6.339   7.206  1.2050  1.6733 -0.3832
  172SOPE   C2519451   5.563   6.244   7.360  0.0123  0.2409  0.6896
  172SOPE   H5R19452   5.458   6.221   7.387 -0.2089  0.6713  0.2079
  172SOPE   H5S19453   5.623   6.151   7.360 -2.0391 -1.2024 -3.5705
  172SOPE   C2619454   5.626   6.336   7.467 -0.3993 -0.0005  0.0192
  172SOPE   H6R19455   5.647   6.279   7.560 -0.7511  2.2772  1.5262
  172SOPE   H6S19456   5.720   6.373   7.420 -0.1608  0.8360  1.1404
  172SOPE   C2719457   5.539   6.457   7.505  0.5016  0.4191  0.0041
  172SOPE   H7R19458   5.617   6.535   7.513 -0.9739  1.8017  1.1919
  172SOPE   H7S19459   5.459   6.489   7.434 -0.4546 -1.6968  0.0877
  172SOPE   C2819460   5.468   6.447   7.637 -0.1773 -0.6216  0.3799
  172SOPE   H8R19461   5.420   6.546   7.646  0.4368 -0.2129 -0.7324
  172SOPE   H8S19462   5.384   6.374   7.626  1.1925 -1.9576 -1.5722
  172SOPE   C2919463   5.543   6.408   7.769  0.7792 -0.5979 -0.5744
  172SOPE   H9119464   5.619   6.328   7.761  1.1248 -0.4978  1.5057
  172SOPE  C21019465   5.549   6.472   7.889 -0.1642  0.0460 -1.3594
  172SOPE  H10119466   5.605   6.424   7.971 -4.0628 -1.6502  0.3945
  172SOPE  C21119467   5.479   6.601   7.930 -0.5625  0.5096  0.2226
  172SOPE  H11R19468   5.427   6.648   7.844  0.1636  0.2077 -0.3931
  172SOPE  H11S19469   5.561   6.670   7.962 -1.2413  2.0239 -1.1970
  172SOPE  C21219470   5.377   6.600   8.057  0.3882  0.0846 -0.0998
  172SOPE  H12R19471   5.287   6.540   8.034  0.0431  0.2470  0.7872
  172SOPE  H12S19472   5.344   6.706   8.055  0.3337  0.0524 -2.6419
  172SOPE  C21319473   5.439   6.569   8.190 -0.0544  0.2702  0.2401
  172SOPE  H13R19474   5.533   6.625   8.207  1.7233 -2.0820 -1.4271
  172SOPE  H13S19475   5.464   6.461   8.199 -1.7116 -0.2235 -0.8445
  172SOPE  C21419476   5.346   6.607   8.307 -0.2283  0.2641 -0.3004
  172SOPE  H14R19477   5.349   6.717   8.319 -0.4747  0.0923  1.4319
  172SOPE  H14S19478   5.390   6.565   8.399  1.3121 -0.8320 -1.5061
  172SOPE  C21519479   5.200   6.566   8.294  0.0714 -0.2596  0.0639
  172SOPE  H15R19480   5.167   6.629   8.209 -0.3242  3.0584  2.5973
  172SOPE  H15S19481   5.142   6.596   8.384  0.1546 -0.9248  0.3507
  172SOPE  C21619482   5.170   6.417   8.277 -0.3898  0.3542  0.5529
  172SOPE  H16R19483   5.205   6.361   8.366 -0.7661 -0.8619 -0.0408
  172SOPE  H16S19484   5.211   6.368   8.185 -0.2598 -0.7570  1.1839
  172SOPE  C21719485   5.022   6.382   8.284 -0.1559 -0.0249 -0.1017
  172SOPE  H17R19486   4.984   6.413   8.384 -0.7361 -0.8376 -0.0672
  172SOPE  H17S19487   5.007   6.272   8.281  0.1507 -0.0483 -0.9941
  172SOPE  C21819488   4.923   6.440   8.183  0.4136  0.0519  0.0060
  172SOPE  H18R19489   4.944   6.424   8.075  0.6051  2.7662 -0.4034
  172SOPE  H18S19490   4.921   6.551   8.197  0.8677  0.3468 -2.0541
  172SOPE  H18T19491   4.821   6.398   8.194  0.4336  0.2133  0.8190
  172SOPE   C3319492   5.524   6.886   7.297  0.8404 -0.2550  0.5352
  172SOPE   H3X19493   5.591   6.934   7.223  0.5011  0.3681  0.6264
  172SOPE   H3Y19494   5.586   6.877   7.388  1.2806  0.0455  0.2671
  172SOPE   C3419495   5.404   6.988   7.305 -0.4080 -0.7532  0.2612
  172SOPE   H4X19496   5.341   7.000   7.215  0.8936  1.9215 -0.3518
  172SOPE   H4Y19497   5.440   7.092   7.322  1.3706 -1.0309 -1.5995
  172SOPE   C3519498   5.306   6.955   7.413 -0.2976  0.3919 -0.5727
  172SOPE   H5X19499   5.254   6.862   7.380 -1.3252  0.7315  0.0835
  172SOPE   H5Y19500   5.231   7.037   7.403  0.9250  1.5020 -0.7301
  172SOPE   C3619501   5.376   6.943   7.555  0.1454 -0.4256  0.2496
  172SOPE   H6X19502   5.417   6.840   7.552  0.3175 -0.2896 -3.2334
  172SOPE   H6Y19503   5.287   6.940   7.622 -0.5131 -0.4418 -0.6167
  172SOPE   C3719504   5.474   7.057   7.590  0.2203  0.1580 -0.4548
  172SOPE   H7X19505   5.417   7.152   7.580  2.4879  1.6711  0.6501
  172SOPE   H7Y19506   5.550   7.057   7.509  1.3763 -0.1309  0.6139
  172SOPE   C3819507   5.544   7.042   7.725 -1.0866 -0.1543  0.0206
  172SOPE   H8X19508   5.617   7.124   7.742 -1.6673  0.7025 -1.5230
  172SOPE   H8Y19509   5.601   6.947   7.723  0.3317  0.6950 -0.9310
  172SOPE   C3919510   5.456   7.043   7.853 -0.3243  0.2805  0.0214
  172SOPE   H9X19511   5.388   6.956   7.863 -0.3170  0.2537 -0.1477
  172SOPE   H9Y19512   5.382   7.126   7.857 -0.1874  0.7293 -4.0569
  172SOPE  C31019513   5.554   7.063   7.969  0.3860  0.0537 -0.2594
  172SOPE  H10X19514   5.609   7.159   7.960 -1.2070  1.2105  2.0077
  172SOPE  H10Y19515   5.621   6.974   7.974 -2.3684 -2.0179  2.0503
  172SOPE  C31119516   5.484   7.062   8.099  0.6284  0.8922 -0.3625
  172SOPE  H11X19517   5.439   6.963   8.124  2.4423  0.1973  0.2264
  172SOPE  H11Y19518   5.397   7.130   8.082 -0.9549 -1.0510 -0.3085
  172SOPE  C31219519   5.581   7.094   8.219  0.0212  0.0193 -0.2624
  172SOPE  H12X19520   5.648   7.179   8.196 -0.0102  0.1802  0.2323
  172SOPE  H12Y19521   5.640   7.006   8.251  1.1590  0.9678  0.2850
  172SOPE  C31319522   5.492   7.138   8.337 -0.1201 -0.5347 -0.2434
  172SOPE  H13X19523   5.401   7.190   8.298 -0.1008 -0.6256 -0.4109
  172SOPE  H13Y19524   5.553   7.214   8.389  0.7924 -1.0668 -0.5289
  172SOPE  C31419525   5.450   7.021   8.432  0.1810  0.0718  0.0667
  172SOPE  H14X19526   5.540   6.961   8.457  0.2783 -0.1225 -0.7299
  172SOPE  H14Y19527   5.391   6.946   8.375  0.3905  0.1847 -0.3051
  172SOPE  C31519528   5.386   7.072   8.565  1.0805  0.0335 -0.4600
  172SOPE  H15X19529   5.299   7.127   8.524  1.3587  1.3208  0.6350
  172SOPE  H15Y19530   5.461   7.138   8.614  1.9264 -0.4666 -1.0712
  172SOPE  C31619531   5.360   6.965   8.666  0.3389 -0.0217  0.5335
  172SOPE  H16X19532   5.462   6.928   8.687  0.0571  0.1592  2.3650
  172SOPE  H16Y19533   5.299   6.888   8.615  2.9253  1.0609 -4.5129
  172SOPE  C31719534   5.303   7.014   8.799 -0.2358  0.3795 -0.3888
  172SOPE  H17X19535   5.209   7.072   8.787 -0.1516  0.2048 -1.9495
  172SOPE  H17Y19536   5.379   7.084   8.841 -1.8982  0.3247  2.8681
  172SOPE  C31819537   5.280   6.901   8.892 -0.0580  0.0849  0.2554
  172SOPE  H18X19538   5.377   6.868   8.935  1.0624  1.9839 -0.7175
  172SOPE  H18Y19539   5.245   6.805   8.846  1.2154 -0.5719  0.6448
  172SOPE  H18Z19540   5.219   6.938   8.977 -0.7532 -1.3637  0.4059
  173SAPI   C1219541   0.694   3.706  10.848  0.2733 -0.6947  0.3417
  173SAPI    H219542   0.631   3.660  10.769 -0.6072 -1.6464  1.5658
  173SAPI    O219543   0.808   3.626  10.870  1.3026 -0.0955 -0.2627
  173SAPI   HO219544   0.800   3.575  10.951 -2.1597 -2.0545 -1.7014
  173SAPI   C1319545   0.731   3.851  10.808 -0.3326 -0.3753 -0.0208
  173SAPI    H319546   0.640   3.913  10.793  0.7228  1.7338  1.9180
  173SAPI    O319547   0.814   3.850  10.686 -0.2811  0.2550  0.4418
  173SAPI   HO319548   0.875   3.777  10.694  0.0298  0.5725  0.9857
  173SAPI   C1419549   0.807   3.918  10.921 -0.0541 -0.5666  0.0843
  173SAPI    H419550   0.903   3.866  10.940 -0.1567 -0.0900  1.9448
  173SAPI    O419551   0.843   4.050  10.882  0.3107 -0.2126  0.2035
  173SAPI   HO419552   0.771   4.090  10.833  0.8912 -0.3082 -0.7615
  173SAPI   C1519553   0.720   3.921  11.043 -0.4062 -0.6193 -0.0717
  173SAPI    H519554   0.622   3.969  11.021 -0.2428 -0.3156 -0.1417
  173SAPI    O519555   0.780   3.996  11.149 -0.3841  0.2806 -0.5053
  173SAPI   HO519556   0.811   4.079  11.110 -0.4703 -0.8357 -3.0268
  173SAPI   C1619557   0.684   3.777  11.093  0.4622 -0.1023 -0.1857
  173SAPI    H619558   0.776   3.723  11.123  0.0159 -1.4673 -1.2186
  173SAPI    O619559   0.604   3.790  11.212  0.4460 -0.0969 -0.0937
  173SAPI   HO619560   0.635   3.868  11.260  1.4084 -1.6075  1.8422
  173SAPI   C1119561   0.610   3.712  10.979  0.1128 -0.3677 -0.2908
  173SAPI    H119562   0.519   3.771  10.956  0.2288 -0.2615 -0.4876
  173SAPI     P19563   0.419   3.511  10.982 -0.4042  0.2954  0.2475
  173SAPI   O1319564   0.319   3.615  10.989 -0.1138 -0.2783 -0.1997
  173SAPI   O1419565   0.402   3.392  11.063 -0.4256  0.0136 -0.3827
  173SAPI   O1219566   0.572   3.577  11.014 -0.1257 -0.2094  0.5908
  173SAPI   O1119567   0.446   3.463  10.828 -0.2420  0.2881 -0.2547
  173SAPI    C119568   0.555   3.374  10.797  0.1325 -0.3811  0.4383
  173SAPI    HA19569   0.654   3.424  10.795 -0.3651  0.6067  0.6563
  173SAPI    HB19570   0.556   3.294  10.875  1.1975 -0.8446 -0.0347
  173SAPI    C219571   0.531   3.308  10.655 -0.0951 -0.3245 -0.8288
  173SAPI    HS19572   0.614   3.244  10.618 -0.6270 -0.1488 -2.3478
  173SAPI   O2119573   0.503   3.415  10.563  0.7579 -0.2001  0.1870
  173SAPI   C2119574   0.608   3.486  10.527 -0.0142 -0.8359 -0.0900
  173SAPI   O2219575   0.721   3.477  10.569 -0.0423  0.0995  0.0017
  173SAPI   C2219576   0.561   3.575  10.406  0.5255 -0.0403 -0.4778
  173SAPI   H2R19577   0.537   3.495  10.333  2.9213 -0.1330 -1.1844
  173SAPI   H2S19578   0.476   3.638  10.441  0.0914  0.4386 -2.3719
  173SAPI    C319579   0.411   3.216  10.664  0.0965  0.4859 -0.7316
  173SAPI    HX19580   0.315   3.271  10.658 -0.1120  0.2499  0.4403
  173SAPI    HY19581   0.409   3.159  10.759  0.5806 -1.4928 -1.8810
  173SAPI   O3119582   0.401   3.125  10.550  0.9092 -0.2343  0.2691
  173SAPI   C3119583   0.474   3.013  10.563 -0.9918  0.0382  0.8816
  173SAPI   O3219584   0.519   2.979  10.669 -0.4592  0.0426  0.3393
  173SAPI   C3219585   0.482   2.950  10.420  0.2244  0.3396 -0.7010
  173SAPI   H2X19586   0.378   2.929  10.389  0.4253 -0.0252 -1.1319
  173SAPI   H2Y19587   0.528   2.850  10.434  1.3178  1.0862  1.2418
  173SAPI   C2319588   0.679   3.646  10.345 -0.7238 -0.2155  0.3186
  173SAPI   H3R19589   0.766   3.576  10.337 -0.4095  0.3872 -2.1868
  173SAPI   H3S19590   0.726   3.719  10.414  1.4201 -2.4523  1.3007
  173SAPI   C2419591   0.668   3.700  10.195 -0.8348 -0.1228 -0.2881
  173SAPI   H4R19592   0.596   3.784  10.186  1.0026  1.4952 -0.2676
  173SAPI   H4S19593   0.616   3.623  10.134  1.3298 -0.6824 -1.4830
  173SAPI   C2519594   0.805   3.745  10.140  0.5788 -0.0892  0.5532
  173SAPI   H5R19595   0.872   3.773  10.222 -0.8535  0.3964  1.5886
  173SAPI   C2619596   0.846   3.740  10.013 -0.1664  0.7679  0.0332
  173SAPI   H6R19597   0.944   3.785   9.990  0.0947 -0.7091 -1.9154
  173SAPI   C2719598   0.770   3.688   9.889 -0.7489  0.1268 -0.1924
  173SAPI   H7R19599   0.668   3.649   9.906  1.2834 -5.5375  0.1001
  173SAPI   H7S19600   0.831   3.608   9.842  0.6645  0.8032  0.4407
  173SAPI   C2819601   0.774   3.801   9.785 -0.0628  0.1398  0.2700
  173SAPI   H8R19602   0.813   3.896   9.824  0.9104  0.1568 -0.7411
  173SAPI   C2919603   0.752   3.798   9.653  1.0266 -0.0520  0.2199
  173SAPI   H9R19604   0.769   3.883   9.585 -0.2802 -0.3452 -0.4802
  173SAPI  C21019605   0.719   3.676   9.576 -0.3013 -0.0784 -0.5436
  173SAPI  H10R19606   0.741   3.580   9.627 -1.2675  0.2612  0.5372
  173SAPI  H10S19607   0.776   3.661   9.482  1.0198  1.1874  0.0365
  173SAPI  C21119608   0.569   3.687   9.533 -0.4262  0.4313 -0.0833
  173SAPI  H11R19609   0.504   3.759   9.587 -1.9002 -0.4637 -0.6312
  173SAPI  C21219610   0.499   3.632   9.435 -0.9127 -0.0450  0.4747
  173SAPI  H12R19611   0.397   3.668   9.417  0.0830  1.5734 -2.1190
  173SAPI  C21319612   0.561   3.536   9.335  0.3742  0.2304 -0.1635
  173SAPI  H13R19613   0.659   3.499   9.372 -0.0923  1.8634  2.8703
  173SAPI  H13S19614   0.583   3.596   9.244  3.0730  1.6445  1.3792
  173SAPI  C21419615   0.483   3.417   9.282 -0.4646 -0.4934 -0.1899
  173SAPI  H14R19616   0.529   3.324   9.318  1.4839  0.0427 -1.2196
  173SAPI  C21519617   0.366   3.419   9.213  0.7450 -0.8847  0.2558
  173SAPI  H15R19618   0.321   3.325   9.178 -0.4988 -0.4896  0.7720
  173SAPI  C21619619   0.300   3.544   9.163 -0.4386 -0.0552 -0.0357
  173SAPI  H16R19620   0.331   3.639   9.210 -0.8722  0.9747 -1.8065
  173SAPI  H16S19621   0.190   3.535   9.174 -0.3559 -2.3000 -0.6272
  173SAPI  C21719622   0.325   3.565   9.014 -1.1319  0.1363  1.3769
  173SAPI  H17R19623   0.266   3.488   8.960  1.5719 -0.6705 -0.4919
  173SAPI  H17S19624   0.430   3.543   8.987 -1.2220  1.0201  0.2631
  173SAPI  C21819625   0.302   3.706   8.959 -0.0607  0.6988 -0.3329
  173SAPI  H18R19626   0.378   3.768   9.012  1.7502  0.7075 -2.8566
  173SAPI  H18S19627   0.200   3.741   8.985  0.9567  3.7888 -0.3429
  173SAPI  C21919628   0.328   3.730   8.811  0.1385 -0.2696 -0.2507
  173SAPI  H19R19629   0.432   3.708   8.782 -0.1051 -0.0359 -1.3172
  173SAPI  H19S19630   0.317   3.840   8.804  0.3613 -0.3409 -1.8875
  173SAPI  C22019631   0.228   3.666   8.718 -0.1875 -0.0666 -0.4136
  173SAPI  H20R19632   0.129   3.713   8.701  0.1707  0.7699 -0.2583
  173SAPI  H20S19633   0.210   3.561   8.747  0.8523 -0.3770 -0.8617
  173SAPI  H20T19634   0.275   3.666   8.617 -0.3254  1.7666 -0.4950
  173SAPI   C3319635   0.552   3.044  10.318  0.6077  0.3554 -0.2117
  173SAPI   H3X19636   0.492   3.136  10.305  0.4579  0.2875 -0.0040
  173SAPI   H3Y19637   0.562   2.994  10.219  1.8200  1.0198 -0.4284
  173SAPI   C3419638   0.695   3.088  10.351 -0.4665  0.0868  0.4749
  173SAPI   H4X19639   0.758   3.010  10.399 -0.2086 -0.2549 -0.4095
  173SAPI   H4Y19640   0.699   3.164  10.432 -1.2157 -0.2889  0.8721
  173SAPI   C3519641   0.756   3.144  10.229  0.2493 -0.4662 -0.4366
  173SAPI   H5X19642   0.683   3.198  10.165 -2.9528 -1.9315  1.9015
  173SAPI   H5Y19643   0.786   3.056  10.168  0.1827  0.0371 -1.2062
  173SAPI   C3619644   0.874   3.240  10.262  0.2338 -0.1477 -0.1858
  173SAPI   H6X19645   0.948   3.170  10.306 -1.4463 -1.1012  1.2099
  173SAPI   H6Y19646   0.839   3.311  10.339  4.0983 -1.5564  3.0040
  173SAPI   C3719647   0.905   3.324  10.144 -0.4304  0.3285  0.9047
  173SAPI   H7X19648   0.989   3.392  10.168  0.9952  0.1238 -3.0886
  173SAPI   H7Y19649   0.827   3.392  10.103 -1.3278 -2.8261 -3.0139
  173SAPI   C3819650   0.950   3.241  10.018 -0.2212 -0.0229  0.0778
  173SAPI   H8X19651   0.856   3.207   9.969  2.9102 -2.9637 -4.2190
  173SAPI   H8Y19652   1.024   3.160  10.035 -0.3224 -0.2246 -0.4454
  173SAPI   C3919653   1.019   3.338   9.912 -0.3708 -0.3653 -0.4096
  173SAPI   H9X19654   1.125   3.359   9.935 -1.1833  1.6325  1.6802
  173SAPI   H9Y19655   0.975   3.438   9.933 -0.8865 -0.6976  0.1287
  173SAPI  C31019656   1.004   3.306   9.762  0.5643  0.1741 -0.0645
  173SAPI  H10X19657   1.054   3.374   9.690  0.7414  0.5459  0.4013
  173SAPI  H10Y19658   0.899   3.329   9.735 -0.7784 -3.0066  2.0826
  173SAPI  C31119659   1.050   3.170   9.729 -0.2631  0.6640  0.0573
  173SAPI  H11X19660   1.006   3.091   9.794  0.6596 -0.6894 -0.9319
  173SAPI  H11Y19661   1.156   3.165   9.761 -0.0462  2.9814 -0.2128
  173SAPI  C31219662   1.036   3.136   9.578  0.2298  0.4061 -0.1792
  173SAPI  H12X19663   1.089   3.206   9.510 -1.2376  0.7251 -0.9925
  173SAPI  H12Y19664   0.933   3.137   9.538  0.2842  2.7384 -0.2916
  173SAPI  C31319665   1.119   3.003   9.546  0.0102 -0.0383 -0.2833
  173SAPI  H13X19666   1.077   2.928   9.616  0.6183 -0.7026 -0.6237
  173SAPI  H13Y19667   1.224   3.031   9.567 -0.3854  0.5006  0.9917
  173SAPI  C31419668   1.086   2.949   9.398  0.0160  0.0319  0.7358
  173SAPI  H14X19669   1.131   3.021   9.327 -0.4436  0.3320  0.7484
  173SAPI  H14Y19670   0.975   2.953   9.393  0.0213  2.9364  1.9038
  173SAPI  C31519671   1.141   2.819   9.375 -0.0013 -0.6567  0.2520
  173SAPI  H15X19672   1.101   2.744   9.446 -2.3239  1.8736  1.7427
  173SAPI  H15Y19673   1.252   2.816   9.378  0.0848 -1.2020 -2.3485
  173SAPI  C31619674   1.100   2.769   9.231 -0.4341  0.1916 -0.0694
  173SAPI  H16X19675   1.138   2.836   9.151 -1.3632  1.3364  0.4393
  173SAPI  H16Y19676   0.989   2.762   9.226 -0.3674 -0.4928 -0.8079
  173SAPI  C31719677   1.153   2.629   9.207 -0.2738  0.0508  0.2123
  173SAPI  H17X19678   1.130   2.559   9.291  0.7945 -0.1505  0.3425
  173SAPI  H17Y19679   1.262   2.648   9.216 -0.5213  0.7942  1.8414
  173SAPI  C31819680   1.109   2.576   9.071 -1.1299 -0.1255  0.1298
  173SAPI  H18X19681   1.160   2.478   9.054 -0.9909 -0.1446  0.6587
  173SAPI  H18Y19682   1.152   2.641   8.991  0.0607 -2.2592 -1.0191
  173SAPI  H18Z19683   0.999   2.566   9.063 -1.0236 -2.3901  1.0782
  174SAPI   C1219684   4.404   4.359  10.892  0.9370  0.8462  0.5440
  174SAPI    H219685   4.449   4.386  10.794 -1.4710  0.1213 -0.7974
  174SAPI    O219686   4.275   4.297  10.876 -0.4538  0.6196  0.7177
  174SAPI   HO219687   4.275   4.209  10.838 -1.1413  0.4048  1.2002
  174SAPI   C1319688   4.504   4.252  10.943 -0.2705 -0.5244 -0.1537
  174SAPI    H319689   4.605   4.297  10.955  0.0339 -0.8783 -1.2713
  174SAPI    O319690   4.520   4.138  10.854  0.1115 -0.0167 -0.1678
  174SAPI   HO319691   4.611   4.135  10.822  0.1412 -0.2900 -0.0541
  174SAPI   C1419692   4.465   4.217  11.082 -0.2177 -0.0377  0.1502
  174SAPI    H419693   4.363   4.175  11.078  0.6967 -2.3736  0.7233
  174SAPI    O419694   4.553   4.114  11.125 -0.1328 -0.0838 -0.5057
  174SAPI   HO419695   4.516   4.032  11.093  1.2250 -0.6564 -0.6157
  174SAPI   C1519696   4.453   4.330  11.180  0.5145 -0.1315  0.2831
  174SAPI    H519697   4.555   4.372  11.189  0.2836  0.6896 -0.8677
  174SAPI    O519698   4.412   4.285  11.308 -0.5982  0.5319  0.0096
  174SAPI   HO519699   4.422   4.364  11.363  0.9171  1.7045 -1.9086
  174SAPI   C1619700   4.356   4.440  11.124 -0.1636 -0.3673  0.7568
  174SAPI    H619701   4.253   4.397  11.129 -1.1338  1.8803  0.7002
  174SAPI    O619702   4.347   4.547  11.220 -0.1736 -0.2501  0.4266
  174SAPI   HO619703   4.284   4.614  11.191  0.5499  0.2567  0.0219
  174SAPI   C1119704   4.401   4.481  10.986 -0.1592 -0.2586 -0.1317
  174SAPI    H119705   4.505   4.520  10.997 -0.7512  0.9799  1.3393
  174SAPI     P19706   4.342   4.698  10.837 -0.0582 -0.0502 -0.3868
  174SAPI   O1319707   4.477   4.761  10.863  0.1735  0.0617 -0.2268
  174SAPI   O1419708   4.224   4.788  10.842 -0.1320 -0.2121 -0.1465
  174SAPI   O1219709   4.310   4.580  10.945 -0.7575 -0.4332  0.4650
  174SAPI   O1119710   4.342   4.620  10.697 -0.2458  0.2602  0.0548
  174SAPI    C119711   4.221   4.557  10.660 -0.0652  0.3651  0.2475
  174SAPI    HA19712   4.208   4.463  10.717  0.4238  0.0730 -0.1146
  174SAPI    HB19713   4.133   4.623  10.673 -0.1351  0.4566 -0.6341
  174SAPI    C219714   4.224   4.518  10.510 -0.7373  0.5302 -0.0113
  174SAPI    HS19715   4.128   4.467  10.486 -0.7637  1.0335 -1.0069
  174SAPI   O2119716   4.340   4.432  10.486  0.4977  0.2522  0.2319
  174SAPI   C2119717   4.323   4.298  10.475  0.0351  0.2321  0.5090
  174SAPI   O2219718   4.218   4.237  10.482  0.1836 -0.1209  0.6109
  174SAPI   C2219719   4.460   4.232  10.470 -0.0637 -0.2411 -0.0356
  174SAPI   H2R19720   4.531   4.284  10.538  0.7531  0.1746 -1.1898
  174SAPI   H2S19721   4.448   4.128  10.507  2.7229 -1.0344 -1.1640
  174SAPI    C319722   4.239   4.647  10.422  0.4409  1.0272  0.3452
  174SAPI    HX19723   4.317   4.714  10.463  0.0494  2.2337 -0.8600
  174SAPI    HY19724   4.149   4.712  10.422 -0.7589 -0.5889  0.4049
  174SAPI   O3119725   4.256   4.608  10.281  0.1452 -0.3076 -0.0887
  174SAPI   C3119726   4.373   4.584  10.248 -0.0754 -0.1935  0.5616
  174SAPI   O3219727   4.473   4.591  10.318 -0.8010 -0.1833 -0.5562
  174SAPI   C3219728   4.374   4.540  10.096 -0.0604  0.5999 -0.0619
  174SAPI   H2X19729   4.333   4.621  10.031 -2.3848 -0.8535 -0.4985
  174SAPI   H2Y19730   4.311   4.449  10.083  0.2654  0.4901 -0.9610
  174SAPI   C2319731   4.527   4.231  10.334  0.2046  0.0583 -0.0271
  174SAPI   H3R19732   4.620   4.175  10.358  1.3967  1.8018 -0.4665
  174SAPI   H3S19733   4.562   4.333  10.309 -0.3561  0.3100  0.2083
  174SAPI   C2419734   4.446   4.167  10.216 -0.7062  0.0561 -0.3891
  174SAPI   H4R19735   4.504   4.193  10.125  1.8891 -3.0423  0.2739
  174SAPI   H4S19736   4.345   4.213  10.214 -0.3178  0.8897 -1.0261
  174SAPI   C2519737   4.442   4.017  10.228 -0.0602 -0.3652 -0.4600
  174SAPI   H5R19738   4.415   3.975  10.326 -2.6907 -0.0781 -1.0345
  174SAPI   C2619739   4.470   3.934  10.126  0.4621 -0.9628  0.3019
  174SAPI   H6R19740   4.465   3.827  10.153  0.2477 -1.1436 -0.4587
  174SAPI   C2719741   4.491   3.967   9.980  0.7840  0.3175 -1.0039
  174SAPI   H7R19742   4.570   3.893   9.954  0.1739 -0.5651 -0.3838
  174SAPI   H7S19743   4.523   4.072   9.963  4.0349 -0.6483 -1.2091
  174SAPI   C2819744   4.352   3.948   9.918 -0.0971  0.8948  0.5864
  174SAPI   H8R19745   4.264   3.984   9.974  0.1721  1.6796  0.5058
  174SAPI   C2919746   4.326   3.904   9.792 -0.1329  0.4846  0.3179
  174SAPI   H9R19747   4.223   3.888   9.756  0.3499  1.9867 -1.8228
  174SAPI  C21019748   4.435   3.861   9.701  0.4670  0.0629  0.6993
  174SAPI  H10R19749   4.400   3.778   9.636 -0.1221 -0.2784  1.4488
  174SAPI  H10S19750   4.532   3.838   9.750  0.1415 -1.9118  0.4507
  174SAPI  C21119751   4.466   3.969   9.597  0.3081 -0.0614  0.2386
  174SAPI  H11R19752   4.412   4.065   9.602  1.2197  0.5105 -0.5833
  174SAPI  C21219753   4.548   3.951   9.494 -0.0270  0.4544 -0.2373
  174SAPI  H12R19754   4.564   4.037   9.429  1.7294  1.4591  1.4667
  174SAPI  C21319755   4.635   3.826   9.474  0.1145  0.4067 -0.6530
  174SAPI  H13R19756   4.596   3.741   9.533  0.5539 -0.6410 -1.8597
  174SAPI  H13S19757   4.742   3.842   9.497  0.2271  0.8634 -1.4533
  174SAPI  C21419758   4.617   3.776   9.335 -0.7066  1.2540  0.4824
  174SAPI  H14R19759   4.531   3.708   9.334 -1.8026  2.6077  0.0933
  174SAPI  C21519760   4.684   3.782   9.219  0.0101 -0.3764  0.3765
  174SAPI  H15R19761   4.654   3.733   9.125  0.7251 -1.8448  0.9017
  174SAPI  C21619762   4.817   3.849   9.208  0.1752 -0.3770 -0.4112
  174SAPI  H16R19763   4.888   3.794   9.274 -0.0958  0.1560  0.3296
  174SAPI  H16S19764   4.816   3.955   9.240 -0.0475 -0.6059  0.3439
  174SAPI  C21719765   4.864   3.849   9.063  0.4839 -0.1102 -0.1392
  174SAPI  H17R19766   4.971   3.879   9.058  0.4985  0.1947  1.5282
  174SAPI  H17S19767   4.797   3.922   9.011 -0.2815 -0.9365 -0.3188
  174SAPI  C21819768   4.864   3.711   8.984 -0.3621  0.3355 -0.7143
  174SAPI  H18R19769   4.785   3.638   9.013  0.4805 -0.1919  0.2509
  174SAPI  H18S19770   4.950   3.647   9.010  0.1107  0.8264 -1.0555
  174SAPI  C21919771   4.876   3.749   8.834  0.6557 -0.1306 -0.0820
  174SAPI  H19R19772   4.968   3.810   8.815 -0.2837  0.7496 -1.9471
  174SAPI  H19S19773   4.788   3.811   8.807 -0.3926 -1.1570  0.9354
  174SAPI  C22019774   4.880   3.632   8.734 -0.2862 -0.4736 -0.3526
  174SAPI  H20R19775   4.868   3.671   8.631  2.9604 -1.0867 -1.0175
  174SAPI  H20S19776   4.795   3.564   8.757  0.2903 -0.4056  2.1718
  174SAPI  H20T19777   4.975   3.576   8.731 -0.6820 -1.0822 -2.0426
  174SAPI   C3319778   4.515   4.511  10.038  0.5686  0.0362 -0.7781
  174SAPI   H3X19779   4.566   4.439  10.105 -1.6619  0.2705  1.2215
  174SAPI   H3Y19780   4.580   4.601  10.032  0.1058  0.2565 -3.1939
  174SAPI   C3419781   4.504   4.437   9.904 -0.0092  0.1804 -0.5577
  174SAPI   H4X19782   4.462   4.334   9.908 -1.1218  0.6438  0.1830
  174SAPI   H4Y19783   4.607   4.436   9.863 -0.3712  3.1402 -1.6697
  174SAPI   C3519784   4.416   4.515   9.807 -0.5185  0.2084 -0.4536
  174SAPI   H5X19785   4.457   4.616   9.786 -2.1660  1.0705  0.3376
  174SAPI   H5Y19786   4.316   4.536   9.850 -0.4836  1.4216 -0.9441
  174SAPI   C3619787   4.391   4.436   9.679 -0.1389  0.0131  0.0751
  174SAPI   H6X19788   4.299   4.480   9.636  0.5524  1.3756 -0.0532
  174SAPI   H6Y19789   4.390   4.326   9.695 -4.4478 -0.1893 -1.1152
  174SAPI   C3719790   4.503   4.469   9.574 -0.2659  0.2925  0.3964
  174SAPI   H7X19791   4.601   4.437   9.618  0.6949  1.4334 -0.8826
  174SAPI   H7Y19792   4.505   4.578   9.552 -0.9845  0.0338 -0.9866
  174SAPI   C3819793   4.472   4.388   9.446 -0.2975 -0.1332 -0.3848
  174SAPI   H8X19794   4.368   4.414   9.417 -0.5716  2.2686  2.4926
  174SAPI   H8Y19795   4.478   4.277   9.453  2.2089  0.0329  0.3157
  174SAPI   C3919796   4.577   4.417   9.338  0.3009 -0.7816  0.3286
  174SAPI   H9X19797   4.664   4.353   9.364  0.8240 -0.9560 -1.8204
  174SAPI   H9Y19798   4.590   4.527   9.330 -2.3294 -0.4900 -0.4011
  174SAPI  C31019799   4.527   4.374   9.199  0.2567  0.6518 -0.1593
  174SAPI  H10X19800   4.449   4.448   9.173 -0.6323 -0.2540 -0.1037
  174SAPI  H10Y19801   4.461   4.284   9.199 -0.9649  1.5172  1.9384
  174SAPI  C31119802   4.643   4.375   9.096  0.2125  0.4842  0.6650
  174SAPI  H11X19803   4.681   4.274   9.070 -0.9866 -0.6016  2.9653
  174SAPI  H11Y19804   4.728   4.436   9.133  1.2935 -0.6751  0.1481
  174SAPI  C31219805   4.598   4.437   8.966  0.7536  0.3791  0.0405
  174SAPI  H12X19806   4.558   4.539   8.986  0.8607 -0.1005  2.8355
  174SAPI  H12Y19807   4.514   4.390   8.910  0.2115 -0.2181  1.3291
  174SAPI  C31319808   4.718   4.454   8.876  0.5756  0.3394 -0.3006
  174SAPI  H13X19809   4.764   4.355   8.858 -0.0100 -0.3473  1.8549
  174SAPI  H13Y19810   4.802   4.516   8.915  1.0890 -0.6560  0.1831
  174SAPI  C31419811   4.690   4.544   8.745 -1.3296 -0.1346  0.0536
  174SAPI  H14X19812   4.675   4.650   8.771 -2.1291 -0.2044 -0.0928
  174SAPI  H14Y19813   4.599   4.493   8.705 -0.8073 -0.8339 -0.2588
  174SAPI  C31519814   4.811   4.517   8.646 -0.3323  0.2034 -0.0521
  174SAPI  H15X19815   4.817   4.409   8.621  1.2503  0.0831  0.8098
  174SAPI  H15Y19816   4.906   4.540   8.698 -0.3715 -0.8948  0.5012
  174SAPI  C31619817   4.796   4.590   8.513 -0.5448 -0.6553  0.1298
  174SAPI  H16X19818   4.806   4.699   8.529  0.0931 -0.7879  0.6694
  174SAPI  H16Y19819   4.696   4.563   8.471 -1.3664 -2.6598  3.1791
  174SAPI  C31719820   4.898   4.546   8.405 -0.7105  1.0327  0.0070
  174SAPI  H17X19821   4.890   4.609   8.313  3.2676 -0.7954 -1.7333
  174SAPI  H17Y19822   4.885   4.437   8.387  0.0938  0.9485 -0.0860
  174SAPI  C31819823   5.042   4.578   8.442  0.0491 -0.3161  0.3187
  174SAPI  H18X19824   5.049   4.685   8.470  2.3602 -0.9283  2.2207
  174SAPI  H18Y19825   5.112   4.561   8.357 -2.2234  0.5513 -1.7735
  174SAPI  H18Z19826   5.075   4.528   8.535  1.4991  1.3670  0.7354
  175SAPI   C1219827   6.602   3.253   6.324  0.2147 -0.3028  0.5155
  175SAPI    H219828   6.584   3.358   6.293 -1.1090 -0.7087 -0.1229
  175SAPI    O219829   6.476   3.189   6.316  0.2648  0.6313 -0.8842
  175SAPI   HO219830   6.418   3.236   6.377  0.3034 -0.5417  0.0791
  175SAPI   C1319831   6.710   3.180   6.242  0.2261 -0.0148  0.6517
  175SAPI    H319832   6.803   3.238   6.260  2.0153 -2.2803 -1.0352
  175SAPI    O319833   6.674   3.182   6.103 -0.4347  0.4284 -0.0614
  175SAPI   HO319834   6.758   3.204   6.061 -0.0112  1.8691  1.5160
  175SAPI   C1419835   6.728   3.035   6.288  0.6530  0.5163  0.8868
  175SAPI    H419836   6.630   2.983   6.281  0.3657  1.2654 -1.0998
  175SAPI    O419837   6.824   2.961   6.209 -0.4654  0.0483 -0.3184
  175SAPI   HO419838   6.806   2.956   6.115  1.9737  2.7156 -1.0108
  175SAPI   C1519839   6.767   3.031   6.434  0.1006  0.0532 -0.5167
  175SAPI    H519840   6.865   3.082   6.442  0.4248 -0.5231 -0.7643
  175SAPI    O519841   6.791   2.901   6.485  0.0071  0.6781  0.0647
  175SAPI   HO519842   6.803   2.911   6.580 -1.2436 -1.1760  0.4579
  175SAPI   C1619843   6.668   3.113   6.520  0.7373 -0.1670 -0.0099
  175SAPI    H619844   6.568   3.072   6.545  0.1028  1.6631  0.5315
  175SAPI    O619845   6.723   3.135   6.646  0.2034  0.0639  0.2371
  175SAPI   HO619846   6.716   3.230   6.657 -1.0363  0.2647 -1.9673
  175SAPI   C1119847   6.646   3.259   6.463  0.3070 -0.6122 -0.4750
  175SAPI    H119848   6.744   3.310   6.461 -0.1957  0.5356  2.5165
  175SAPI     P19849   6.607   3.481   6.610  0.0755 -0.3675 -0.7174
  175SAPI   O1319850   6.488   3.564   6.647  0.5858  0.8904  0.4402
  175SAPI   O1419851   6.715   3.543   6.529 -0.1349  0.2050  0.4625
  175SAPI   O1219852   6.556   3.347   6.535  0.3129 -0.1804 -0.0947
  175SAPI   O1119853   6.676   3.414   6.734  0.0281  0.0633  0.0241
  175SAPI    C119854   6.607   3.349   6.838  0.1509  0.4184  1.0720
  175SAPI    HA19855   6.497   3.345   6.829  0.1671  2.0198 -0.1724
  175SAPI    HB19856   6.651   3.247   6.841  4.8981  2.2711 -0.0108
  175SAPI    C219857   6.637   3.420   6.974  0.4429 -0.1507 -0.0416
  175SAPI    HS19858   6.608   3.351   7.056  0.7594 -0.7618 -0.4382
  175SAPI   O2119859   6.561   3.552   6.981  0.0106  0.7169 -0.4193
  175SAPI   C2119860   6.433   3.554   6.975 -0.6246 -0.7807 -0.2018
  175SAPI   O2219861   6.356   3.464   6.992  0.6052  0.4416  0.4181
  175SAPI   C2219862   6.382   3.696   6.964 -0.4166 -0.2277  0.3247
  175SAPI   H2R19863   6.445   3.757   7.032 -0.1007 -0.6127  0.3816
  175SAPI   H2S19864   6.385   3.732   6.859  0.5266  1.4015  0.8970
  175SAPI    C319865   6.782   3.452   6.987  0.4553  0.4506  1.0013
  175SAPI    HX19866   6.812   3.524   6.908 -1.4028  0.2874  0.1311
  175SAPI    HY19867   6.838   3.355   6.983 -0.0058  0.1332  2.0149
  175SAPI   O3119868   6.810   3.498   7.117 -0.0175 -0.5810 -0.9372
  175SAPI   C3119869   6.931   3.555   7.133 -0.4996 -0.3340  0.4742
  175SAPI   O3219870   7.010   3.584   7.047 -0.1951 -1.1263  0.0157
  175SAPI   C3219871   6.938   3.579   7.277  0.6361 -0.6063 -0.6656
  175SAPI   H2X19872   7.031   3.535   7.320 -0.4637 -1.7789  0.5551
  175SAPI   H2Y19873   6.853   3.537   7.335  0.1457  0.8766 -0.2728
  175SAPI   C2319874   6.230   3.712   6.997  0.1903  0.6194  0.8142
  175SAPI   H3R19875   6.175   3.655   6.919  0.8850 -0.3094  0.9991
  175SAPI   H3S19876   6.208   3.819   6.978 -0.5876  0.5746  1.4612
  175SAPI   C2419877   6.188   3.673   7.141 -0.8258 -0.0327  1.0937
  175SAPI   H4R19878   6.217   3.567   7.158  0.9221  0.2473 -0.0829
  175SAPI   H4S19879   6.080   3.697   7.150 -1.3303 -0.7218 -2.3440
  175SAPI   C2519880   6.258   3.753   7.240  0.0678 -0.6977  0.8674
  175SAPI   H5R19881   6.266   3.859   7.210 -2.3806 -0.7804 -0.1704
  175SAPI   C2619882   6.313   3.716   7.360 -0.1491 -0.6796  0.4503
  175SAPI   H6R19883   6.380   3.775   7.425  0.5466 -1.7551  0.7317
  175SAPI   C2719884   6.295   3.574   7.411  0.0220  0.4194 -0.0737
  175SAPI   H7R19885   6.197   3.532   7.379  0.7965 -0.8474 -0.7889
  175SAPI   H7S19886   6.306   3.578   7.521  0.1156 -1.0771 -0.0236
  175SAPI   C2819887   6.411   3.490   7.349 -0.2162 -0.2260  0.2366
  175SAPI   H8R19888   6.484   3.527   7.275  0.8242 -0.6339  1.0527
  175SAPI   C2919889   6.425   3.360   7.380 -0.5270  0.3932 -0.2034
  175SAPI   H9R19890   6.495   3.295   7.325 -0.0378  0.1894  0.6477
  175SAPI  C21019891   6.346   3.281   7.482 -0.5982  0.5077 -0.8417
  175SAPI  H10R19892   6.344   3.327   7.583 -0.7357 -0.7048 -0.2853
  175SAPI  H10S19893   6.408   3.189   7.488  0.8151  1.5418  1.0247
  175SAPI  C21119894   6.204   3.244   7.440 -0.3601 -0.8835 -0.0203
  175SAPI  H11R19895   6.196   3.221   7.333 -2.8775 -0.9233  0.1515
  175SAPI  C21219896   6.089   3.258   7.519 -0.1367  0.1282  0.2129
  175SAPI  H12R19897   5.988   3.239   7.481 -0.0237 -2.0445  0.9478
  175SAPI  C21319898   6.090   3.299   7.667 -0.6652 -0.1342 -0.1183
  175SAPI  H13R19899   6.084   3.409   7.667  2.2448  0.0803 -1.2497
  175SAPI  H13S19900   6.184   3.268   7.718  0.3439  1.6079 -0.8784
  175SAPI  C21419901   5.977   3.229   7.754 -0.4448 -0.1833 -0.5417
  175SAPI  H14R19902   5.891   3.201   7.691 -1.3419  0.8571  0.1849
  175SAPI  C21519903   5.979   3.217   7.892 -0.1273 -0.4654  0.0327
  175SAPI  H15R19904   5.903   3.151   7.936 -2.0289 -0.4586 -3.0932
  175SAPI  C21619905   6.087   3.271   7.989 -0.2604 -0.2888  0.7316
  175SAPI  H16R19906   6.132   3.361   7.941 -0.0010 -0.6005  0.3945
  175SAPI  H16S19907   6.154   3.186   8.014  0.0911  0.2443  1.6233
  175SAPI  C21719908   6.021   3.313   8.119 -0.2020  0.8950  0.1031
  175SAPI  H17R19909   5.982   3.225   8.173  2.3458  0.9231  2.0771
  175SAPI  H17S19910   5.937   3.385   8.114 -2.3361 -1.3702  2.0197
  175SAPI  C21819911   6.117   3.381   8.217  0.5130 -0.1510  0.6440
  175SAPI  H18R19912   6.067   3.413   8.311 -2.1211 -0.8880 -0.4648
  175SAPI  H18S19913   6.148   3.477   8.171  1.0247 -0.4756  0.3114
  175SAPI  C21919914   6.238   3.301   8.267 -0.5054 -0.1892  0.3866
  175SAPI  H19R19915   6.316   3.281   8.191 -1.9141 -1.2203 -0.8242
  175SAPI  H19S19916   6.215   3.198   8.304 -0.1227 -0.6134 -0.5412
  175SAPI  C22019917   6.294   3.388   8.378 -0.2259 -0.0891  0.0346
  175SAPI  H20R19918   6.225   3.386   8.466 -2.0562 -3.8966 -1.4140
  175SAPI  H20S19919   6.297   3.493   8.342 -0.5817  1.0767  3.2204
  175SAPI  H20T19920   6.392   3.352   8.414  0.3483  0.2544 -1.1648
  175SAPI   C3319921   6.965   3.726   7.320  0.7732  0.7470  0.6660
  175SAPI   H3X19922   7.041   3.775   7.255  0.0365 -0.0151 -0.7892
  175SAPI   H3Y19923   7.005   3.725   7.424  0.7165  1.3544  0.6989
  175SAPI   C3419924   6.846   3.822   7.314  0.6464  0.1466 -1.1088
  175SAPI   H4X19925   6.811   3.843   7.211 -2.0128 -2.1286 -0.7242
  175SAPI   H4Y19926   6.878   3.915   7.365 -0.1258 -0.6172  0.8020
  175SAPI   C3519927   6.716   3.767   7.383 -0.1344 -0.3297  0.3143
  175SAPI   H5X19928   6.680   3.679   7.326  1.4583 -1.9880  1.8032
  175SAPI   H5Y19929   6.628   3.835   7.377 -1.3658 -2.0056 -1.0535
  175SAPI   C3619930   6.742   3.720   7.522 -0.5531 -0.7595 -0.4471
  175SAPI   H6X19931   6.777   3.804   7.586  1.1419  1.0650 -3.5901
  175SAPI   H6Y19932   6.822   3.642   7.521  1.0666  0.8391  0.1610
  175SAPI   C3719933   6.625   3.672   7.597  0.3760 -0.2986 -0.6864
  175SAPI   H7X19934   6.602   3.574   7.551  0.7886 -0.0150 -1.5144
  175SAPI   H7Y19935   6.543   3.742   7.569  0.3690  1.4775  3.4068
  175SAPI   C3819936   6.662   3.676   7.747 -1.2367  0.4571  0.0274
  175SAPI   H8X19937   6.685   3.777   7.787 -1.0684  0.2234  0.5252
  175SAPI   H8Y19938   6.748   3.607   7.757 -0.4879  1.4850  0.8235
  175SAPI   C3919939   6.551   3.623   7.833 -0.2878 -0.3435  0.5671
  175SAPI   H9X19940   6.590   3.597   7.934 -0.6480  0.2156  0.8488
  175SAPI   H9Y19941   6.508   3.528   7.794  0.5659 -0.0736 -1.0882
  175SAPI  C31019942   6.443   3.732   7.847  0.1872  0.8183  0.3262
  175SAPI  H10X19943   6.390   3.761   7.753 -0.3829  1.2663  0.7769
  175SAPI  H10Y19944   6.511   3.819   7.863 -0.4661  1.8101 -2.1069
  175SAPI  C31119945   6.342   3.708   7.963  0.6300  0.2635 -0.9664
  175SAPI  H11X19946   6.409   3.689   8.049 -1.2039  0.1862  0.4648
  175SAPI  H11Y19947   6.276   3.624   7.934  0.9332 -0.2632 -0.1072
  175SAPI  C31219948   6.248   3.818   7.996  1.0795 -0.4489 -0.2758
  175SAPI  H12X19949   6.173   3.830   7.916  1.9536 -0.3113 -1.0888
  175SAPI  H12Y19950   6.302   3.909   8.030 -0.3424 -0.0432  0.9600
  175SAPI  C31319951   6.156   3.783   8.113  0.6221 -0.2702 -0.2757
  175SAPI  H13X19952   6.215   3.751   8.202  1.2818  0.8228 -0.3101
  175SAPI  H13Y19953   6.093   3.698   8.082 -2.7640  1.7250  0.8848
  175SAPI  C31419954   6.056   3.894   8.154 -0.7094  0.7193 -0.4104
  175SAPI  H14X19955   5.995   3.910   8.062 -2.0679  2.6752  0.8036
  175SAPI  H14Y19956   6.113   3.987   8.174  1.0944  0.1522 -2.6773
  175SAPI  C31519957   5.991   3.857   8.287  0.0009 -0.0151  0.5029
  175SAPI  H15X19958   5.941   3.951   8.319  1.6347  1.5041 -1.3143
  175SAPI  H15Y19959   6.078   3.841   8.354 -1.4498 -0.4125  2.3314
  175SAPI  C31619960   5.882   3.741   8.277  0.1373  0.0068 -0.1099
  175SAPI  H16X19961   5.926   3.641   8.254 -1.3157 -0.3084 -1.5555
  175SAPI  H16Y19962   5.812   3.770   8.196 -0.8835 -0.6242  0.5427
  175SAPI  C31719963   5.785   3.740   8.402  0.2610  0.3289  0.7664
  175SAPI  H17X19964   5.724   3.648   8.394  1.3326 -0.2723 -0.7767
  175SAPI  H17Y19965   5.728   3.836   8.398  1.5866  1.1217  0.2755
  175SAPI  C31819966   5.848   3.748   8.533  0.0442 -1.2727 -0.1243
  175SAPI  H18X19967   5.922   3.830   8.541 -2.3592  0.9183  0.1306
  175SAPI  H18Y19968   5.896   3.647   8.542  0.6143 -1.2479 -2.6353
  175SAPI  H18Z19969   5.777   3.758   8.617 -0.0077  0.9740 -0.4123
  176SAPI   C1219970   5.710   2.531   6.800  0.1612  0.1138 -0.1565
  176SAPI    H219971   5.709   2.582   6.899  0.3355 -3.5359  1.8356
  176SAPI    O219972   5.851   2.512   6.772  0.5691 -0.0352 -0.3235
  176SAPI   HO219973   5.885   2.601   6.756 -1.4765  0.9389  0.4477
  176SAPI   C1319974   5.642   2.391   6.814  0.5105 -0.4239 -0.2511
  176SAPI    H319975   5.535   2.414   6.837  1.1980  1.8949  0.8037
  176SAPI    O319976   5.694   2.325   6.933  0.4160  0.3351  0.4496
  176SAPI   HO319977   5.788   2.345   6.938  0.8299 -2.0006  2.9863
  176SAPI   C1419978   5.643   2.317   6.679  0.2396  0.1566  0.1982
  176SAPI    H419979   5.750   2.293   6.658  0.5493  2.8194 -1.5849
  176SAPI    O419980   5.593   2.181   6.689  0.0140 -0.5399 -0.0726
  176SAPI   HO419981   5.669   2.127   6.667  0.3512  0.7183 -2.1545
  176SAPI   C1519982   5.590   2.404   6.569  0.0409  0.5133 -0.2621
  176SAPI    H519983   5.484   2.414   6.602 -0.0289 -0.5141 -0.1608
  176SAPI    O519984   5.585   2.343   6.438  0.7133  0.3914  0.3261
  176SAPI   HO519985   5.674   2.340   6.402  0.3449 -0.2436 -0.5349
  176SAPI   C1619986   5.650   2.541   6.562 -0.2034 -0.1104 -0.0296
  176SAPI    H619987   5.756   2.538   6.527 -0.1913  1.1732 -0.1121
  176SAPI    O619988   5.586   2.618   6.463  0.1547 -0.1337 -0.0274
  176SAPI   HO619989   5.537   2.687   6.508 -0.3690 -1.1193  0.9245
  176SAPI   C1119990   5.636   2.610   6.696  0.3295 -0.6044  0.1094
  176SAPI    H119991   5.529   2.603   6.724  0.3596 -0.6627  0.2142
  176SAPI     P19992   5.592   2.862   6.712  0.2201  0.1746 -0.0005
  176SAPI   O1319993   5.498   2.847   6.603 -0.0835 -0.5124 -0.2508
  176SAPI   O1419994   5.669   2.993   6.718 -0.0039 -0.3731 -0.0062
  176SAPI   O1219995   5.699   2.741   6.713 -0.3361 -0.2830  0.0653
  176SAPI   O1119996   5.518   2.834   6.844  0.2856  0.0797  0.0081
  176SAPI    C119997   5.513   2.939   6.944  0.4649  0.3963 -0.3778
  176SAPI    HA19998   5.618   2.954   6.978  0.3849  1.0091 -0.4028
  176SAPI    HB19999   5.503   3.042   6.905 -0.8613  0.8515  1.1453
  176SAPI    C220000   5.407   2.911   7.057 -0.4120 -0.2027 -0.6679
  176SAPI    HS20001   5.448   2.966   7.144 -2.1744 -1.1770  0.8106
  176SAPI   O2120002   5.387   2.770   7.088  0.1707 -0.1955  0.3663
  176SAPI   C2120003   5.478   2.723   7.178 -0.5342  0.3679 -0.4168
  176SAPI   O2220004   5.551   2.795   7.241  0.4898  0.5151  0.9693
  176SAPI   C2220005   5.476   2.563   7.161  0.0747  1.0329 -0.0843
  176SAPI   H2R20006   5.384   2.535   7.216 -0.3829  1.8260 -0.4359
  176SAPI   H2S20007   5.481   2.538   7.053  0.4983 -0.8145  0.3401
  176SAPI    C320008   5.274   2.965   7.016 -0.1923  0.9899  0.7260
  176SAPI    HX20009   5.237   2.918   6.923  0.9556  0.2832  0.6200
  176SAPI    HY20010   5.284   3.070   6.981  1.3127  0.6934  0.2586
  176SAPI   O3120011   5.180   2.965   7.124 -0.0364 -0.2869 -0.1520
  176SAPI   C3120012   5.114   2.847   7.138 -0.2776 -0.3597 -0.7624
  176SAPI   O3220013   5.112   2.762   7.057 -0.0620  0.1223  0.3350
  176SAPI   C3220014   5.027   2.854   7.264  0.6591 -0.1295 -0.5219
  176SAPI   H2X20015   4.946   2.778   7.263 -0.8545  1.3737  2.2861
  176SAPI   H2Y20016   4.995   2.961   7.262  2.2657  0.4196  1.7856
  176SAPI   C2320017   5.600   2.488   7.232 -0.7467 -1.1178 -0.0135
  176SAPI   H3R20018   5.630   2.550   7.319  0.4565  0.1488 -1.3048
  176SAPI   H3S20019   5.687   2.479   7.164  0.5484 -0.7030  1.5397
  176SAPI   C2420020   5.542   2.356   7.288 -0.3208 -0.2936  0.0987
  176SAPI   H4R20021   5.519   2.292   7.201 -1.3111  1.7665 -1.2000
  176SAPI   H4S20022   5.443   2.380   7.334  0.0209  0.9725  0.1934
  176SAPI   C2520023   5.633   2.280   7.382 -0.8010 -0.2283  0.2315
  176SAPI   H5R20024   5.673   2.186   7.340  1.6351  1.1421 -0.6130
  176SAPI   C2620025   5.665   2.310   7.512 -0.2689 -0.2492  0.3256
  176SAPI   H6R20026   5.713   2.225   7.563 -0.2664  0.2526  1.1694
  176SAPI   C2720027   5.614   2.427   7.593  0.3749 -0.0780 -0.1254
  176SAPI   H7R20028   5.564   2.386   7.684  1.0099 -0.6106 -0.0141
  176SAPI   H7S20029   5.533   2.480   7.537 -0.5475 -0.0583  1.1973
  176SAPI   C2820030   5.721   2.531   7.628 -0.4316  0.2374 -0.5865
  176SAPI   H8R20031   5.780   2.577   7.548  0.7091 -2.1144 -1.1298
  176SAPI   C2920032   5.761   2.564   7.747  0.3125 -0.2121 -0.0543
  176SAPI   H9R20033   5.843   2.637   7.754  0.0030  0.5170 -3.3810
  176SAPI  C21020034   5.700   2.515   7.872 -0.2996 -0.2589  0.1942
  176SAPI  H10R20035   5.672   2.407   7.871 -0.5782 -0.1919 -2.3319
  176SAPI  H10S20036   5.607   2.572   7.890  1.8933  3.0143  1.6013
  176SAPI  C21120037   5.786   2.540   7.993 -0.1498  0.1898 -0.0705
  176SAPI  H11R20038   5.850   2.453   8.016  1.1174  0.5849 -1.9766
  176SAPI  C21220039   5.803   2.648   8.063  0.4215 -0.2029 -0.3957
  176SAPI  H12R20040   5.866   2.652   8.152  1.0810  2.2681 -0.9273
  176SAPI  C21320041   5.719   2.780   8.040 -0.4704  0.3658 -0.3635
  176SAPI  H13R20042   5.686   2.787   7.934  0.6489  0.4495 -0.7118
  176SAPI  H13S20043   5.783   2.870   8.049 -0.0372  0.4121 -3.2868
  176SAPI  C21420044   5.598   2.777   8.130 -0.7756  0.1459  0.4326
  176SAPI  H14R20045   5.535   2.687   8.129  0.2484 -0.5832 -2.4259
  176SAPI  C21520046   5.558   2.872   8.222  0.2789 -0.0827  0.1170
  176SAPI  H15R20047   5.481   2.840   8.293  0.7568  1.0272  1.1635
  176SAPI  C21620048   5.640   3.003   8.242  0.4971  0.8127  0.5478
  176SAPI  H16R20049   5.587   3.092   8.203  1.5704  0.1196 -2.6612
  176SAPI  H16S20050   5.738   2.993   8.191 -0.8778 -2.5741 -1.6523
  176SAPI  C21720051   5.677   3.045   8.390 -1.2832 -0.4119 -0.1044
  176SAPI  H17R20052   5.735   3.139   8.402 -0.2448 -1.2698  1.9638
  176SAPI  H17S20053   5.751   2.969   8.425  1.7729  2.6343  0.3188
  176SAPI  C21820054   5.553   3.050   8.478  0.3004  0.2572  0.8600
  176SAPI  H18R20055   5.512   2.947   8.483 -1.6357  0.8790 -1.1531
  176SAPI  H18S20056   5.477   3.113   8.426  0.9524  0.5034  0.2008
  176SAPI  C21920057   5.585   3.099   8.614  0.7320 -0.4759 -0.0210
  176SAPI  H19R20058   5.613   3.206   8.602 -0.0892 -0.4024 -1.5098
  176SAPI  H19S20059   5.672   3.040   8.650 -0.8236 -1.6706  1.9030
  176SAPI  C22020060   5.467   3.084   8.709  0.3882  0.2709 -0.3587
  176SAPI  H20R20061   5.379   3.148   8.688  0.9934  1.3850  0.4392
  176SAPI  H20S20062   5.492   3.099   8.816  0.5167 -0.7510 -0.2475
  176SAPI  H20T20063   5.426   2.983   8.692  1.1172 -0.3082  1.2661
  176SAPI   C3320064   5.107   2.827   7.397  0.0124 -0.4427  0.3099
  176SAPI   H3X20065   5.046   2.844   7.488 -0.9066 -1.4962 -0.1035
  176SAPI   H3Y20066   5.190   2.901   7.395  0.6107 -1.1195 -0.1389
  176SAPI   C3420067   5.153   2.681   7.404 -0.2083  0.0229  0.1301
  176SAPI   H4X20068   5.195   2.667   7.302  1.4730 -1.4662  0.9932
  176SAPI   H4Y20069   5.063   2.619   7.424  0.0348 -0.9511 -1.7155
  176SAPI   C3520070   5.261   2.645   7.508 -1.0053 -0.2535  0.3461
  176SAPI   H5X20071   5.345   2.707   7.469 -1.1637  0.3342  0.9288
  176SAPI   H5Y20072   5.282   2.536   7.515 -0.8690 -0.2330  0.2591
  176SAPI   C3620073   5.240   2.703   7.651  0.3664 -0.1686 -0.1145
  176SAPI   H6X20074   5.225   2.813   7.656 -1.0908 -0.4186  1.2949
  176SAPI   H6Y20075   5.333   2.674   7.703  0.2971  1.4880  0.9623
  176SAPI   C3720076   5.124   2.650   7.735 -0.0290  0.3585  0.2846
  176SAPI   H7X20077   5.108   2.545   7.702  1.3910  1.2661 -3.6675
  176SAPI   H7Y20078   5.034   2.710   7.707  0.9137  1.3551 -0.6820
  176SAPI   C3820079   5.144   2.664   7.886  0.6424  0.2617 -0.8723
  176SAPI   H8X20080   5.217   2.589   7.924 -1.7522 -1.7084 -0.0032
  176SAPI   H8Y20081   5.057   2.630   7.947 -0.6129  2.6263 -1.2909
  176SAPI   C3920082   5.181   2.801   7.919 -0.2021 -0.4764 -0.4277
  176SAPI   H9X20083   5.110   2.863   7.860  1.6680  0.1256 -2.1117
  176SAPI   H9Y20084   5.281   2.836   7.887  0.3765  0.5482  2.3273
  176SAPI  C31020085   5.174   2.827   8.072  0.0786 -0.3743 -0.1684
  176SAPI  H10X20086   5.245   2.757   8.120 -1.2262 -1.8510 -0.3419
  176SAPI  H10Y20087   5.078   2.783   8.107 -0.2418 -0.4194 -1.0939
  176SAPI  C31120088   5.182   2.972   8.119  0.1157  0.4477 -0.0268
  176SAPI  H11X20089   5.117   3.031   8.052 -1.2246 -2.2382 -1.1416
  176SAPI  H11Y20090   5.285   3.013   8.115 -0.2143  1.4965  1.5786
  176SAPI  C31220091   5.121   2.988   8.260  0.1362  0.1747  0.7452
  176SAPI  H12X20092   5.168   2.923   8.337  2.2589 -0.0306 -0.6758
  176SAPI  H12Y20093   5.016   2.952   8.260 -0.0791  0.7925  0.4827
  176SAPI  C31320094   5.123   3.131   8.323  0.4316  0.5195  0.1486
  176SAPI  H13X20095   5.075   3.202   8.254 -0.9476  0.3466  0.9077
  176SAPI  H13Y20096   5.231   3.154   8.315  0.9948 -1.6623  0.9566
  176SAPI  C31420097   5.066   3.146   8.470  0.1012  0.1167 -0.0136
  176SAPI  H14X20098   5.091   3.249   8.502  0.9629 -0.7187  2.1139
  176SAPI  H14Y20099   5.114   3.078   8.543  1.2236  3.1529  2.1602
  176SAPI  C31520100   4.914   3.134   8.488 -0.3228 -0.5415 -0.4104
  176SAPI  H15X20101   4.872   3.034   8.461  1.1239 -0.6413 -2.3733
  176SAPI  H15Y20102   4.867   3.205   8.417  2.5513 -1.6121 -3.5371
  176SAPI  C31620103   4.879   3.164   8.635 -0.0647  0.0258  0.4314
  176SAPI  H16X20104   4.910   3.266   8.668 -0.3049 -0.0138  0.7851
  176SAPI  H16Y20105   4.939   3.092   8.695 -0.0924  0.6441  1.2186
  176SAPI  C31720106   4.737   3.139   8.682  0.2069 -0.2128 -0.3587
  176SAPI  H17X20107   4.724   3.145   8.792  1.0023 -1.5425 -0.1775
  176SAPI  H17Y20108   4.719   3.033   8.653 -0.9673  0.0603 -0.6722
  176SAPI  C31820109   4.632   3.219   8.615 -0.1885  0.2852  0.5686
  176SAPI  H18X20110   4.658   3.230   8.508 -1.2145  0.3138  0.3094
  176SAPI  H18Y20111   4.628   3.314   8.673  1.8276  1.2208 -0.7732
  176SAPI  H18Z20112   4.541   3.155   8.618  0.1822 -0.3904 -1.4960
  177SLPC     N20113   6.301   5.315  11.155 -0.3468 -0.7073  0.0094
  177SLPC   C1320114   6.198   5.210  11.182  0.5925  0.6051 -0.3161
  177SLPC  H13A20115   6.103   5.258  11.161 -0.0340  1.4940  4.1033
  177SLPC  H13B20116   6.221   5.124  11.121 -1.1378 -1.4187  1.7845
  177SLPC  H13C20117   6.190   5.180  11.285  1.7751 -2.5935 -1.1006
  177SLPC   C1420118   6.433   5.237  11.163  0.4724  0.4520 -1.2643
  177SLPC  H14A20119   6.448   5.193  11.261  0.7670 -0.5642 -1.7630
  177SLPC  H14B20120   6.449   5.158  11.092 -0.3602 -0.1693 -0.7604
  177SLPC  H14C20121   6.516   5.305  11.150  1.5546 -0.8643 -1.2991
  177SLPC   C1520122   6.289   5.425  11.263  0.9179  0.4813  0.4895
  177SLPC  H15A20123   6.283   5.384  11.362  1.6351 -0.3230  0.2146
  177SLPC  H15B20124   6.363   5.503  11.251 -2.0710  3.1696 -1.3599
  177SLPC  H15C20125   6.204   5.490  11.247 -0.3793 -1.0293  1.1527
  177SLPC   C1220126   6.287   5.380  11.015  0.2539 -0.2225 -0.2088
  177SLPC  H12A20127   6.374   5.443  11.006 -0.6901  1.4420  2.0197
  177SLPC  H12B20128   6.197   5.440  11.014  0.2978 -0.1575 -0.3353
  177SLPC   C1120129   6.276   5.288  10.887  0.1485  0.4757 -0.3831
  177SLPC  H11A20130   6.360   5.216  10.889  0.4461  0.7317 -2.3149
  177SLPC  H11B20131   6.288   5.348  10.794 -3.6840  1.3172 -0.4186
  177SLPC     P20132   6.014   5.279  10.863  0.0312  0.1510  0.4464
  177SLPC   O1320133   5.923   5.228  10.974 -0.2884 -0.0148  1.1014
  177SLPC   O1420134   6.024   5.426  10.838  0.1634 -0.1318  0.3825
  177SLPC   O1220135   6.156   5.218  10.881  1.3519 -0.2519  0.1243
  177SLPC   O1120136   5.976   5.194  10.735  0.9013  0.2045 -0.2408
  177SLPC    C120137   6.073   5.127  10.651  0.9267 -0.5468 -1.0966
  177SLPC    HA20138   6.167   5.186  10.642  0.7320 -0.0215  0.1768
  177SLPC    HB20139   6.098   5.031  10.701  1.9036  0.4121  0.2962
  177SLPC    C220140   6.020   5.103  10.514 -0.0051 -0.7889 -0.4678
  177SLPC    HS20141   6.088   5.037  10.456  3.0363  3.9208 -2.5176
  177SLPC   O2120142   5.997   5.225  10.447 -0.3534  0.1584  0.1692
  177SLPC   C2120143   6.019   5.234  10.318 -0.1665 -0.6217  0.7011
  177SLPC   O2220144   6.073   5.155  10.247 -0.7688  0.2045  0.4476
  177SLPC   C2220145   5.937   5.347  10.260 -0.0582  0.0771  0.0379
  177SLPC   H2R20146   5.843   5.305  10.217  0.2114 -0.4781 -0.0159
  177SLPC   H2S20147   5.912   5.410  10.348 -0.3385 -0.6171  0.4560
  177SLPC    C320148   5.887   5.026  10.523 -0.7148  0.0041  0.1230
  177SLPC    HX20149   5.809   5.092  10.566  1.6338  2.8162  0.1926
  177SLPC    HY20150   5.895   4.946  10.601 -2.0683 -1.3753 -1.1155
  177SLPC   O3120151   5.842   4.965  10.397 -0.5811 -0.5452  0.5448
  177SLPC   C3120152   5.711   4.981  10.367  0.2769 -0.7440  0.3314
  177SLPC   O3220153   5.635   5.065  10.409  0.0020  0.1225  0.3588
  177SLPC   C3220154   5.670   4.879  10.266  0.2544 -0.0225  0.9432
  177SLPC   H2X20155   5.595   4.810  10.312 -0.0061  0.0196  0.5801
  177SLPC   H2Y20156   5.756   4.811  10.248  0.8572  0.7962  0.7290
  177SLPC   C2320157   6.000   5.435  10.145  0.2798  0.1379  0.2579
  177SLPC   H3R20158   6.108   5.453  10.162  0.1347  0.8203  0.4743
  177SLPC   H3S20159   5.962   5.539  10.154 -1.2217 -0.4491  0.7835
  177SLPC   C2420160   5.968   5.380  10.005 -0.5269  0.5739  0.4397
  177SLPC   H4R20161   5.861   5.407   9.990 -1.2433 -2.5644 -0.5579
  177SLPC   H4S20162   5.967   5.269  10.015  0.7211  0.3133 -1.9195
  177SLPC   C2520163   6.059   5.438   9.892  0.2438 -0.1300 -0.0066
  177SLPC   H5R20164   6.165   5.423   9.923 -0.3740 -1.3181  1.6345
  177SLPC   H5S20165   6.039   5.546   9.879  0.7082 -0.0883 -0.3799
  177SLPC   C2620166   6.024   5.367   9.758  0.2386  0.6020 -0.2631
  177SLPC   H6R20167   5.914   5.352   9.756  0.3771 -0.2691 -2.1705
  177SLPC   H6S20168   6.072   5.266   9.757 -0.0911  0.4284  1.1033
  177SLPC   C2720169   6.064   5.452   9.637  0.8034  0.3951 -0.1144
  177SLPC   H7R20170   6.168   5.492   9.637  1.3932 -1.0969  0.0506
  177SLPC   H7S20171   6.012   5.549   9.637 -1.5500 -0.8229  2.0970
  177SLPC   C2820172   6.023   5.389   9.503  0.2534  0.2997 -0.1012
  177SLPC   H8R20173   6.062   5.456   9.424  1.3723  0.0954  0.2613
  177SLPC   H8S20174   5.914   5.394   9.486  0.3582 -1.1674 -1.3009
  177SLPC   C2920175   6.054   5.245   9.485 -0.4627 -0.5798 -0.0519
  177SLPC   H9R20176   6.028   5.174   9.565  0.9109 -2.1404 -0.9455
  177SLPC  C21020177   6.135   5.202   9.385  0.2093 -0.4385  0.6013
  177SLPC  H10R20178   6.150   5.094   9.380  0.2215 -0.4229  0.2990
  177SLPC  C21120179   6.205   5.276   9.280 -0.2415  0.6234 -0.2477
  177SLPC  H11R20180   6.168   5.225   9.189  2.9703 -2.2581 -0.0421
  177SLPC  H11S20181   6.165   5.379   9.264 -1.4867 -0.0912 -1.9100
  177SLPC  C21220182   6.356   5.271   9.291 -0.2085 -0.1426  0.4034
  177SLPC  H12R20183   6.403   5.263   9.390 -3.0330  2.2007  1.9986
  177SLPC  C21320184   6.435   5.276   9.185 -0.1201  0.4376 -0.3521
  177SLPC  H13R20185   6.541   5.247   9.198  0.4815  2.9362  0.6795
  177SLPC  C21420186   6.394   5.291   9.043 -0.1100 -0.1822 -0.5021
  177SLPC  H14R20187   6.404   5.402   9.033  0.7331 -0.2571 -0.5737
  177SLPC  H14S20188   6.292   5.257   9.019  0.7432 -2.7736 -0.6206
  177SLPC  C21520189   6.479   5.216   8.935 -0.4120  0.0782 -0.5466
  177SLPC  H15R20190   6.441   5.236   8.832 -1.2619  0.0897 -0.2373
  177SLPC  H15S20191   6.471   5.106   8.948 -0.6775 -0.1556 -2.5621
  177SLPC  C21620192   6.632   5.245   8.937  0.1980 -0.1043 -0.0884
  177SLPC  H16R20193   6.667   5.201   9.033  0.3069 -1.4900 -0.7483
  177SLPC  H16S20194   6.660   5.352   8.943  0.5176 -0.1122 -1.2849
  177SLPC  C21720195   6.708   5.176   8.824  0.5756  0.3737  0.6611
  177SLPC  H17R20196   6.669   5.223   8.731  1.8233  1.5364  0.7047
  177SLPC  H17S20197   6.679   5.069   8.823 -1.0785  0.8087 -1.4324
  177SLPC  C21820198   6.859   5.188   8.835  0.2063 -0.1459  0.2298
  177SLPC  H18R20199   6.897   5.290   8.857  3.5555 -1.4102  0.7216
  177SLPC  H18S20200   6.903   5.156   8.737 -1.7458  1.6566 -1.2666
  177SLPC  H18T20201   6.902   5.120   8.912 -1.3876  2.0465  3.1028
  177SLPC   C3320202   5.615   4.956  10.140  0.6804  0.1751  0.3439
  177SLPC   H3X20203   5.685   5.032  10.098 -0.7816  2.6264  2.2340
  177SLPC   H3Y20204   5.521   5.008  10.169  0.8574  0.5554  0.2409
  177SLPC   C3420205   5.574   4.859  10.023 -0.0871 -0.1916 -0.1969
  177SLPC   H4X20206   5.506   4.783  10.065 -2.1818  1.2199 -0.9548
  177SLPC   H4Y20207   5.669   4.818   9.984 -0.0411 -0.6551  0.3987
  177SLPC   C3520208   5.498   4.932   9.906 -0.4623 -0.4505  0.0389
  177SLPC   H5X20209   5.402   4.973   9.943  1.8426  2.5995  2.8960
  177SLPC   H5Y20210   5.472   4.856   9.829 -1.9948  1.0196 -0.9431
  177SLPC   C3620211   5.578   5.038   9.829 -0.4058 -0.2609 -0.2382
  177SLPC   H6X20212   5.677   4.988   9.823 -0.6892 -0.6760 -1.4834
  177SLPC   H6Y20213   5.592   5.121   9.902 -0.8325 -0.7708  0.4308
  177SLPC   C3720214   5.518   5.073   9.693 -0.2165 -0.0438 -0.0108
  177SLPC   H7X20215   5.411   5.103   9.698  0.0354  0.8707 -0.1592
  177SLPC   H7Y20216   5.509   4.978   9.636 -0.3922  0.2644 -0.4962
  177SLPC   C3820217   5.612   5.167   9.612  1.0087 -0.3941 -0.2948
  177SLPC   H8X20218   5.716   5.142   9.642  0.1897 -2.0518  1.2913
  177SLPC   H8Y20219   5.599   5.271   9.650  0.1981 -0.8250  0.6239
  177SLPC   C3920220   5.596   5.161   9.463 -0.4546 -0.6565  0.0700
  177SLPC   H9X20221   5.499   5.204   9.429  1.2478  3.7367  0.5634
  177SLPC   H9Y20222   5.592   5.059   9.418  4.8308 -0.1290 -1.8974
  177SLPC  C31020223   5.715   5.231   9.399  0.1453 -0.0832  0.9319
  177SLPC  H10X20224   5.811   5.184   9.430 -0.2751 -1.4532  0.1988
  177SLPC  H10Y20225   5.702   5.336   9.433 -1.2641 -0.2876  1.0505
  177SLPC  C31120226   5.687   5.218   9.252  0.4942 -0.2309 -0.4452
  177SLPC  H11X20227   5.586   5.256   9.229 -0.4772 -1.4266  1.6671
  177SLPC  H11Y20228   5.700   5.113   9.221  1.3865 -0.3774  0.3864
  177SLPC  C31220229   5.795   5.295   9.166 -0.5795 -0.4124 -0.6112
  177SLPC  H12X20230   5.814   5.244   9.069  1.7011  0.9195 -0.8980
  177SLPC  H12Y20231   5.888   5.289   9.226  0.3063  0.2369 -1.9082
  177SLPC  C31320232   5.752   5.438   9.137 -0.2656  0.1684  0.3503
  177SLPC  H13X20233   5.709   5.483   9.229 -1.6032 -1.2166  0.4136
  177SLPC  H13Y20234   5.665   5.437   9.068 -1.7529  2.4566  2.0748
  177SLPC  C31420235   5.861   5.533   9.076  0.9854 -0.2044 -0.3085
  177SLPC  H14X20236   5.944   5.554   9.147  1.5983 -1.8678 -0.4964
  177SLPC  H14Y20237   5.811   5.626   9.041  0.0579 -0.0421  1.4185
  177SLPC  C31520238   5.943   5.472   8.960  0.4974 -0.4043 -0.0012
  177SLPC  H15X20239   5.996   5.381   8.998  0.9619 -0.0243  0.2716
  177SLPC  H15Y20240   6.027   5.541   8.935  0.7625 -0.4735  0.6807
  177SLPC  C31620241   5.875   5.436   8.828  0.0605 -0.4663 -0.2696
  177SLPC  H16X20242   5.800   5.356   8.844 -1.3170  1.2630  2.1902
  177SLPC  H16Y20243   5.951   5.402   8.755  1.5516  1.0749  0.5100
  177SLPC  C31720244   5.796   5.551   8.762  0.9656  0.3013  1.0077
  177SLPC  H17X20245   5.720   5.595   8.829 -1.9128 -0.4549 -1.6537
  177SLPC  H17Y20246   5.759   5.502   8.670  1.2679 -0.2033  1.1545
  177SLPC  C31820247   5.885   5.673   8.712 -0.1963 -0.1299  0.4670
  177SLPC  H18X20248   5.940   5.626   8.628 -0.0672 -2.8506  2.0213
  177SLPC  H18Y20249   5.955   5.707   8.792  0.4366 -1.8617  0.6661
  177SLPC  H18Z20250   5.819   5.760   8.689 -0.5536 -0.4520  0.2567
  178SLPC     N20251   0.996   6.656  11.271 -0.2256  0.8784  1.1064
  178SLPC   C1320252   0.891   6.754  11.239 -0.2858  0.2543  0.4301
  178SLPC  H13A20253   0.815   6.711  11.176  0.8720  0.2026 -0.9519
  178SLPC  H13B20254   0.847   6.806  11.324 -3.8465 -0.6024 -0.7835
  178SLPC  H13C20255   0.926   6.836  11.178 -1.3747 -0.9167 -1.8211
  178SLPC   C1420256   0.944   6.566  11.383  0.9053  0.5782  0.1537
  178SLPC  H14A20257   0.926   6.619  11.475 -1.0923  1.0160 -0.4652
  178SLPC  H14B20258   0.844   6.544  11.349  0.9455  3.2248 -1.8281
  178SLPC  H14C20259   0.999   6.477  11.410 -2.1625 -1.4508 -0.0318
  178SLPC   C1520260   1.124   6.725  11.303 -0.1532  0.5083  0.2871
  178SLPC  H15A20261   1.118   6.786  11.392 -1.5768  3.1118 -1.5400
  178SLPC  H15B20262   1.210   6.659  11.301  0.2645  1.0565 -2.7158
  178SLPC  H15C20263   1.140   6.803  11.230 -0.5479  0.6783  0.3880
  178SLPC   C1220264   1.005   6.569  11.143  0.1542 -0.2055  0.5610
  178SLPC  H12A20265   0.923   6.499  11.130 -0.1136  0.1768  0.1610
  178SLPC  H12B20266   1.098   6.515  11.147 -0.3222 -0.8679  3.6515
  178SLPC   C1120267   1.010   6.642  11.004 -0.1971  0.3149  0.2654
  178SLPC  H11A20268   0.909   6.685  10.985  1.1144  4.2032  1.6011
  178SLPC  H11B20269   1.039   6.569  10.925 -0.9785  0.3682 -0.0837
  178SLPC     P20270   1.086   6.886  10.955  0.5095 -0.0204  0.2717
  178SLPC   O1320271   1.051   6.969  11.073  0.2534  0.2729  0.2020
  178SLPC   O1420272   1.202   6.924  10.875 -0.5445  0.1132  0.2016
  178SLPC   O1220273   1.119   6.740  11.006  0.2368  0.1391 -0.0945
  178SLPC   O1120274   0.958   6.875  10.863 -0.6943  0.0013  0.1583
  178SLPC    C120275   0.949   6.796  10.744 -0.4570 -0.1604  0.1806
  178SLPC    HA20276   1.048   6.747  10.731  0.4653  1.1876  1.9032
  178SLPC    HB20277   0.869   6.720  10.759 -1.0019 -0.0383 -2.0028
  178SLPC    C220278   0.909   6.887  10.627 -0.4567 -1.2386  0.5149
  178SLPC    HS20279   0.895   6.819  10.540  0.1794 -0.5453 -0.1334
  178SLPC   O2120280   1.002   6.994  10.615  0.0201  0.5577 -0.2435
  178SLPC   C2120281   1.115   6.966  10.552 -0.3551  0.5933  0.1378
  178SLPC   O2220282   1.143   6.853  10.507 -0.1157 -0.5442  0.3097
  178SLPC   C2220283   1.207   7.088  10.554 -0.9771 -0.6024  0.4914
  178SLPC   H2R20284   1.220   7.113  10.661  1.8121  0.7034 -0.1172
  178SLPC   H2S20285   1.302   7.045  10.517 -1.4534 -0.5920 -0.7700
  178SLPC    C320286   0.773   6.957  10.649 -0.5607  0.7978 -0.6030
  178SLPC    HX20287   0.789   7.049  10.709  2.0614  1.8259 -2.7694
  178SLPC    HY20288   0.712   6.883  10.707  1.5989  1.0391  2.1092
  178SLPC   O3120289   0.710   6.993  10.532  0.3534  0.5160 -0.0516
  178SLPC   C3120290   0.651   6.892  10.471 -1.1374 -0.2727  0.6287
  178SLPC   O3220291   0.649   6.776  10.513  0.2311  0.0216 -0.5467
  178SLPC   C3220292   0.578   6.934  10.339  0.3956  0.5286  0.3836
  178SLPC   H2X20293   0.626   7.027  10.302  1.4904 -0.1187  0.1493
  178SLPC   H2Y20294   0.475   6.961  10.371  0.6451  0.9938  0.7960
  178SLPC   C2320295   1.165   7.209  10.468  1.2972 -0.9789  0.6723
  178SLPC   H3R20296   1.247   7.282  10.488 -0.3070  0.7594  0.9608
  178SLPC   H3S20297   1.067   7.251  10.499 -0.6624 -3.5809 -1.7472
  178SLPC   C2420298   1.168   7.179  10.316  0.7886  0.5710 -0.1581
  178SLPC   H4R20299   1.253   7.117  10.279  0.8492  0.9622 -0.6803
  178SLPC   H4S20300   1.174   7.273  10.256  0.3922 -0.8286 -2.4459
  178SLPC   C2520301   1.037   7.125  10.260 -1.4285 -0.1057 -0.2299
  178SLPC   H5R20302   0.959   7.185  10.311  0.0461  0.5362  1.3451
  178SLPC   H5S20303   1.032   7.018  10.289  1.5770 -0.3230 -0.3066
  178SLPC   C2620304   1.017   7.146  10.109  0.1283  0.7482  0.4205
  178SLPC   H6R20305   1.105   7.106  10.055 -0.8904 -0.0033 -0.7036
  178SLPC   H6S20306   0.991   7.251  10.082  1.8292  1.1839  0.4024
  178SLPC   C2720307   0.900   7.060  10.056 -0.0693 -0.6595  0.5331
  178SLPC   H7R20308   0.811   7.105  10.105  0.2119  0.3772  0.0916
  178SLPC   H7S20309   0.915   6.960  10.102  0.3618 -1.0920 -0.5423
  178SLPC   C2820310   0.878   7.065   9.903 -0.0645  0.1446 -0.1179
  178SLPC   H8R20311   0.847   7.169   9.882  1.4204  0.7299  0.5294
  178SLPC   H8S20312   0.799   6.992   9.872 -0.0186 -0.2499  0.6766
  178SLPC   C2920313   1.003   7.038   9.828 -0.1458  0.2213 -0.2972
  178SLPC   H9R20314   1.086   6.983   9.875 -1.4537 -1.6477 -0.1267
  178SLPC  C21020315   1.026   7.084   9.705  0.0501  0.1282  0.4311
  178SLPC  H10R20316   1.130   7.074   9.670  0.1033  0.2047  0.5665
  178SLPC  C21120317   0.933   7.176   9.630 -0.2086 -0.0994  0.2896
  178SLPC  H11R20318   0.928   7.270   9.688 -2.3180 -0.1642  0.2414
  178SLPC  H11S20319   0.835   7.125   9.617  1.3186 -2.8142 -1.0366
  178SLPC  C21220320   0.975   7.234   9.495 -0.4883 -0.4106  0.4043
  178SLPC  H12R20321   1.031   7.328   9.498  2.3542 -2.0746  1.8264
  178SLPC  C21320322   0.951   7.177   9.373 -0.2844 -0.7304 -0.0313
  178SLPC  H13R20323   1.005   7.218   9.286  1.3219  0.7698  1.6089
  178SLPC  C21420324   0.874   7.053   9.348 -0.7377 -0.5157 -0.1456
  178SLPC  H14R20325   0.766   7.071   9.335 -0.3853 -0.2343 -3.0026
  178SLPC  H14S20326   0.875   6.994   9.442 -0.9330 -1.6286 -0.8253
  178SLPC  C21520327   0.920   6.959   9.230 -0.2569 -0.4000 -0.2588
  178SLPC  H15R20328   0.850   6.873   9.227 -0.1911 -0.4289 -1.2085
  178SLPC  H15S20329   1.019   6.912   9.249  0.1373  0.5124 -0.0562
  178SLPC  C21620330   0.914   7.013   9.092  0.4146  0.4751 -0.0403
  178SLPC  H16R20331   0.988   7.095   9.082  2.7269 -1.3211  1.5539
  178SLPC  H16S20332   0.815   7.056   9.067  1.2040  2.1210 -0.3637
  178SLPC  C21720333   0.957   6.907   8.988  0.2855 -0.0813 -0.1394
  178SLPC  H17R20334   0.874   6.834   8.973 -1.2900  1.6141  0.1640
  178SLPC  H17S20335   1.042   6.846   9.025  1.1205  0.0479 -1.8024
  178SLPC  C21820336   0.980   6.959   8.847 -0.1218 -0.1117 -0.1901
  178SLPC  H18R20337   0.894   7.026   8.823  0.7716  0.7775 -0.9108
  178SLPC  H18S20338   0.992   6.879   8.771  0.7752  1.3333 -1.5965
  178SLPC  H18T20339   1.070   7.023   8.848 -0.9502  1.0991 -1.8705
  178SLPC   C3320340   0.577   6.816  10.241  0.0544 -0.7892  0.5064
  178SLPC   H3X20341   0.561   6.725  10.303 -0.2729 -0.6742  0.5918
  178SLPC   H3Y20342   0.676   6.800  10.192 -0.5347  0.6221 -1.1769
  178SLPC   C3420343   0.478   6.831  10.128  0.8857 -0.7514 -0.1705
  178SLPC   H4X20344   0.384   6.885  10.152  2.0017  0.1624  2.3303
  178SLPC   H4Y20345   0.443   6.727  10.111 -2.0700 -0.0889  1.6622
  178SLPC   C3520346   0.543   6.885  10.000  0.1142 -0.0239  0.5982
  178SLPC   H5X20347   0.637   6.826   9.990 -1.3137 -2.4882  1.3442
  178SLPC   H5Y20348   0.577   6.990  10.005  1.3159 -0.3255 -1.0096
  178SLPC   C3620349   0.457   6.864   9.876  0.2163 -0.6431 -0.0637
  178SLPC   H6X20350   0.385   6.948   9.884  0.1171 -0.5064 -2.1425
  178SLPC   H6Y20351   0.408   6.765   9.867  0.3804 -0.7332  0.0266
  178SLPC   C3720352   0.533   6.888   9.745 -0.5086  0.1097 -0.3125
  178SLPC   H7X20353   0.606   6.808   9.722 -0.0321  0.9436 -1.7729
  178SLPC   H7Y20354   0.599   6.976   9.759  0.3885 -0.6951  0.5904
  178SLPC   C3820355   0.444   6.886   9.617 -0.2244  0.4020  0.2759
  178SLPC   H8X20356   0.380   6.977   9.614  1.3418  1.5689  1.5316
  178SLPC   H8Y20357   0.378   6.797   9.629 -1.0009  0.8227 -0.7504
  178SLPC   C3920358   0.521   6.885   9.480 -0.0825 -0.0420 -0.6179
  178SLPC   H9X20359   0.590   6.798   9.478 -1.8337 -1.5090  1.0507
  178SLPC   H9Y20360   0.580   6.979   9.473 -1.6601  1.0094  0.0345
  178SLPC  C31020361   0.414   6.884   9.364  0.5015  0.0666 -0.1549
  178SLPC  H10X20362   0.364   6.982   9.378 -0.6375 -0.1957 -2.3046
  178SLPC  H10Y20363   0.343   6.806   9.399 -0.7942 -0.0077 -2.8394
  178SLPC  C31120364   0.471   6.859   9.223 -0.1564 -0.2880 -0.1758
  178SLPC  H11X20365   0.453   6.756   9.188 -0.7963 -0.3530  0.3307
  178SLPC  H11Y20366   0.581   6.874   9.221  0.0548 -1.9755 -1.9847
  178SLPC  C31220367   0.412   6.961   9.130 -0.0700 -0.0864 -0.3759
  178SLPC  H12X20368   0.457   7.059   9.155 -1.0977  0.9405 -2.4441
  178SLPC  H12Y20369   0.306   6.987   9.151  0.1049 -0.4609  0.9737
  178SLPC  C31320370   0.433   6.923   8.985  0.2115  0.4516 -0.1332
  178SLPC  H13X20371   0.359   6.842   8.965 -0.3082  0.5917  1.1866
  178SLPC  H13Y20372   0.526   6.865   8.963 -1.3100 -1.2582 -2.2949
  178SLPC  C31420373   0.430   7.045   8.885  0.2602 -0.3171 -0.2487
  178SLPC  H14X20374   0.353   7.114   8.925  0.1731 -0.8970  0.5891
  178SLPC  H14Y20375   0.390   7.007   8.789  0.8858  1.5883 -1.2806
  178SLPC  C31520376   0.554   7.127   8.893  0.0601  0.1159  0.1682
  178SLPC  H15X20377   0.548   7.179   8.991 -2.6703 -0.3688  0.3039
  178SLPC  H15Y20378   0.648   7.070   8.878 -1.4031 -1.7907 -2.0670
  178SLPC  C31620379   0.566   7.241   8.793 -0.4678 -0.5093 -0.7238
  178SLPC  H16X20380   0.467   7.291   8.798 -0.3632 -0.4587  0.9591
  178SLPC  H16Y20381   0.572   7.210   8.686 -1.0536  1.5700 -1.3955
  178SLPC  C31720382   0.667   7.352   8.817  0.9876 -0.4132 -0.1153
  178SLPC  H17X20383   0.643   7.383   8.921 -1.7456 -2.4830 -0.0697
  178SLPC  H17Y20384   0.655   7.440   8.751 -0.8767  0.4887  1.3880
  178SLPC  C31820385   0.809   7.311   8.807  0.1204  0.3511 -0.1736
  178SLPC  H18X20386   0.879   7.396   8.826  0.7130 -0.3360  0.7813
  178SLPC  H18Y20387   0.837   7.280   8.704 -0.3963  2.4599 -0.9753
  178SLPC  H18Z20388   0.840   7.224   8.869  0.3578 -0.1454 -0.9849
  179SLPC     N20389   3.357   3.954  10.413  0.4370  0.0425  0.7441
  179SLPC   C1320390   3.469   4.049  10.439 -0.1373  0.3450  0.4563
  179SLPC  H13A20391   3.430   4.128  10.501 -1.0505 -0.6152  1.1209
  179SLPC  H13B20392   3.552   3.998  10.484 -1.2302 -0.1448  1.9618
  179SLPC  H13C20393   3.499   4.089  10.343  2.2625 -0.3628  0.8936
  179SLPC   C1420394   3.321   3.888  10.538  0.6153 -0.1983 -0.0249
  179SLPC  H14A20395   3.297   3.957  10.618 -1.4446 -0.0795 -0.7311
  179SLPC  H14B20396   3.226   3.840  10.521  0.1053  0.5670  0.6001
  179SLPC  H14C20397   3.396   3.818  10.572  2.0288  0.8248 -0.9394
  179SLPC   C1520398   3.401   3.856  10.301 -0.9313  0.1836 -0.3677
  179SLPC  H15A20399   3.316   3.799  10.266  0.7800 -2.3760 -0.5242
  179SLPC  H15B20400   3.436   3.905  10.211 -0.4657  1.3550  0.4408
  179SLPC  H15C20401   3.463   3.777  10.341 -1.6048 -0.2879 -0.2312
  179SLPC   C1220402   3.229   4.035  10.358  0.0449 -0.3129 -0.6376
  179SLPC  H12A20403   3.268   4.100  10.281 -0.6860  2.2885  1.1101
  179SLPC  H12B20404   3.188   4.100  10.434  2.2579  1.5751 -0.9952
  179SLPC   C1120405   3.117   3.951  10.297  0.0932 -0.7193 -0.0539
  179SLPC  H11A20406   3.138   3.898  10.202 -2.0055 -1.7233  0.0175
  179SLPC  H11B20407   3.043   4.023  10.256  1.8153 -0.2489 -2.4151
  179SLPC     P20408   2.941   3.917  10.479 -0.0441  0.0262 -0.1910
  179SLPC   O1320409   2.887   3.794  10.541 -0.4263 -0.0780 -0.0381
  179SLPC   O1420410   2.975   4.032  10.569  0.3151 -0.6307  0.0097
  179SLPC   O1220411   3.066   3.868  10.400  0.0896  0.3795  0.0346
  179SLPC   O1120412   2.842   3.963  10.366 -0.5496 -0.0385  0.0315
  179SLPC    C120413   2.712   3.998  10.399 -0.0812  0.0569 -0.2545
  179SLPC    HA20414   2.664   3.908  10.441  0.9643 -0.1957  0.4194
  179SLPC    HB20415   2.705   4.075  10.480 -2.9838 -0.8250  0.4014
  179SLPC    C220416   2.629   4.050  10.279  0.6123 -0.9211  0.4661
  179SLPC    HS20417   2.622   3.974  10.198 -1.8632  1.1016 -1.3126
  179SLPC   O2120418   2.696   4.174  10.242 -0.0775 -0.4890 -0.6531
  179SLPC   C2120419   2.772   4.174  10.135  0.2490  0.8803 -0.5233
  179SLPC   O2220420   2.807   4.076  10.072 -0.3886  0.1223  0.5077
  179SLPC   C2220421   2.825   4.307  10.103  0.0301  0.6552 -0.1551
  179SLPC   H2R20422   2.745   4.373  10.143 -0.9770 -0.0888 -0.9051
  179SLPC   H2S20423   2.924   4.318  10.152 -0.2877  0.7023  0.4883
  179SLPC    C320424   2.486   4.081  10.319  0.2072 -0.7368 -0.0978
  179SLPC    HX20425   2.487   4.179  10.370  0.6671 -1.1970  0.7898
  179SLPC    HY20426   2.458   4.003  10.393 -0.2341 -1.2549 -0.8082
  179SLPC   O3120427   2.399   4.069  10.203 -0.1663  0.9414 -0.4865
  179SLPC   C3120428   2.379   4.180  10.137 -0.7017 -0.5509 -0.3268
  179SLPC   O3220429   2.416   4.287  10.173  0.7677 -0.3325  0.0755
  179SLPC   C3220430   2.300   4.160  10.005 -0.5475  0.1069 -0.4030
  179SLPC   H2X20431   2.216   4.091  10.024  0.3085 -0.6152  0.7979
  179SLPC   H2Y20432   2.380   4.127   9.935  0.2962  0.8121  0.2158
  179SLPC   C2320433   2.840   4.330   9.953  0.1345 -0.4947 -0.1620
  179SLPC   H3R20434   2.894   4.243   9.909  0.1996  0.0600 -1.1945
  179SLPC   H3S20435   2.910   4.413   9.931  0.0887 -0.3899  0.0917
  179SLPC   C2420436   2.716   4.348   9.872  0.8056 -0.4088  0.2222
  179SLPC   H4R20437   2.655   4.426   9.922 -0.7430 -1.3869 -0.0924
  179SLPC   H4S20438   2.642   4.265   9.880  0.2977  0.1597  1.5736
  179SLPC   C2520439   2.748   4.386   9.725 -0.2931  0.2803 -0.3721
  179SLPC   H5R20440   2.785   4.491   9.719 -1.7636  0.9026  0.8839
  179SLPC   H5S20441   2.650   4.378   9.673  0.1329 -3.1281 -0.7132
  179SLPC   C2620442   2.843   4.293   9.645 -0.0672 -0.0545 -0.0469
  179SLPC   H6R20443   2.807   4.188   9.648 -0.0469 -0.1736 -2.7064
  179SLPC   H6S20444   2.940   4.297   9.699  0.3025  0.3651 -0.7359
  179SLPC   C2720445   2.864   4.343   9.496  0.1530  0.2542 -0.0813
  179SLPC   H7R20446   2.961   4.292   9.480  1.3718  2.1461  1.1201
  179SLPC   H7S20447   2.869   4.454   9.500 -0.7525  0.3076 -0.2980
  179SLPC   C2820448   2.775   4.291   9.381  0.0699 -0.3526 -0.3636
  179SLPC   H8R20449   2.811   4.352   9.296  0.6690  0.0490  0.1721
  179SLPC   H8S20450   2.668   4.316   9.398  0.0105  0.2416 -1.5560
  179SLPC   C2920451   2.783   4.148   9.338 -0.0189  0.7561 -0.0062
  179SLPC   H9R20452   2.785   4.067   9.413 -0.3054 -0.3395 -1.1512
  179SLPC  C21020453   2.770   4.107   9.213 -0.1216 -0.6009  0.8916
  179SLPC  H10R20454   2.778   4.002   9.181  0.1048 -0.4243  0.3616
  179SLPC  C21120455   2.750   4.192   9.090  0.0143 -0.2400 -0.6732
  179SLPC  H11R20456   2.676   4.273   9.110 -0.6001 -0.7680 -0.8002
  179SLPC  H11S20457   2.705   4.133   9.007 -0.1093 -1.2609  0.1075
  179SLPC  C21220458   2.876   4.259   9.033 -1.1039  0.8341  0.6387
  179SLPC  H12R20459   2.872   4.368   9.051 -1.3224  0.9764 -0.2765
  179SLPC  C21320460   2.973   4.204   8.958 -0.4142  0.3685  0.1059
  179SLPC  H13R20461   3.063   4.259   8.928 -0.0013 -1.1744 -1.5793
  179SLPC  C21420462   2.971   4.061   8.914 -0.1703 -0.4600 -0.7003
  179SLPC  H14R20463   2.876   4.012   8.943  0.7776 -0.2980  2.8955
  179SLPC  H14S20464   3.050   4.017   8.978 -0.0358  1.6269  0.5950
  179SLPC  C21520465   3.004   4.049   8.764  0.1211  0.2735 -0.3223
  179SLPC  H15R20466   3.111   4.073   8.746  0.7980 -0.1755  2.7564
  179SLPC  H15S20467   2.944   4.118   8.702 -0.1924 -2.5481 -3.2966
  179SLPC  C21620468   2.972   3.906   8.716 -0.3305 -0.2484 -0.1236
  179SLPC  H16R20469   2.864   3.889   8.736 -0.1718 -1.5153 -0.3282
  179SLPC  H16S20470   3.044   3.827   8.746  0.4908  0.9478  1.1206
  179SLPC  C21720471   2.968   3.907   8.563 -0.4448 -0.1348  0.7201
  179SLPC  H17R20472   3.062   3.954   8.527 -0.2075 -1.0668  0.1038
  179SLPC  H17S20473   2.883   3.972   8.536 -0.5946 -0.8136 -0.4521
  179SLPC  C21820474   2.950   3.766   8.498  0.5795  0.1762  0.2161
  179SLPC  H18R20475   2.847   3.734   8.522  1.2291 -0.6109  2.1105
  179SLPC  H18S20476   3.029   3.701   8.542 -0.5720 -1.5652 -0.2559
  179SLPC  H18T20477   2.967   3.781   8.389  2.2972  0.6104  0.5246
  179SLPC   C3320478   2.237   4.291   9.951 -0.2045  0.9066  0.3294
  179SLPC   H3X20479   2.296   4.385   9.956  3.8082 -1.3489 -2.1005
  179SLPC   H3Y20480   2.143   4.315  10.005 -0.9144  1.1833 -1.0239
  179SLPC   C3420481   2.191   4.276   9.807 -0.1766 -0.2000  0.9169
  179SLPC   H4X20482   2.274   4.242   9.741 -0.8561 -4.0799  1.9263
  179SLPC   H4Y20483   2.141   4.367   9.767  0.5722  0.0213  0.4581
  179SLPC   C3520484   2.083   4.166   9.797  0.0272  0.0152 -0.4114
  179SLPC   H5X20485   2.028   4.179   9.893 -0.0593  0.0469 -0.4670
  179SLPC   H5Y20486   2.140   4.070   9.803  0.2826  0.1563 -0.5670
  179SLPC   C3620487   1.995   4.168   9.678 -0.0195 -0.7204  0.4664
  179SLPC   H6X20488   2.060   4.141   9.591 -0.9298 -0.3915 -0.3220
  179SLPC   H6Y20489   1.963   4.271   9.651 -2.3315 -1.9180 -1.5777
  179SLPC   C3720490   1.871   4.085   9.700 -1.3879  0.1949  0.9390
  179SLPC   H7X20491   1.806   4.099   9.789  0.2677  0.3641  2.1214
  179SLPC   H7Y20492   1.914   3.983   9.698  0.8034  1.1074 -0.3893
  179SLPC   C3820493   1.787   4.089   9.567 -1.2796  0.5440  0.2153
  179SLPC   H8X20494   1.852   4.052   9.484 -2.1331 -0.6385  0.0638
  179SLPC   H8Y20495   1.751   4.190   9.541 -1.1761 -0.0961 -2.5477
  179SLPC   C3920496   1.674   3.994   9.550  0.3225  0.1588  0.0150
  179SLPC   H9X20497   1.624   3.981   9.648  1.1542 -0.8875  0.3034
  179SLPC   H9Y20498   1.725   3.901   9.518  1.1931  1.1269 -1.5356
  179SLPC  C31020499   1.565   4.032   9.444 -0.4487 -0.1176  0.3213
  179SLPC  H10X20500   1.495   4.103   9.493 -0.5244 -0.8504  1.2911
  179SLPC  H10Y20501   1.507   3.937   9.438 -2.5558  1.1233  0.4759
  179SLPC  C31120502   1.629   4.070   9.319  0.1466 -0.4449 -0.9033
  179SLPC  H11X20503   1.681   3.980   9.279 -0.3648 -1.3114  0.3181
  179SLPC  H11Y20504   1.692   4.160   9.320 -3.0315  1.9449 -3.6937
  179SLPC  C31220505   1.523   4.116   9.224 -0.6685  0.4530 -0.6899
  179SLPC  H12X20506   1.567   4.136   9.124  1.6403  3.0053  0.7639
  179SLPC  H12Y20507   1.472   4.209   9.257  2.3784  0.8175  3.2822
  179SLPC  C31320508   1.403   4.019   9.196 -0.0930  0.0206  0.1469
  179SLPC  H13X20509   1.343   3.995   9.286 -1.5861 -0.2561 -0.9026
  179SLPC  H13Y20510   1.435   3.922   9.151 -0.2539 -1.8938  3.9410
  179SLPC  C31420511   1.300   4.083   9.098  0.2500  0.8334 -0.3843
  179SLPC  H14X20512   1.308   4.188   9.132  1.1339  0.9221 -0.8669
  179SLPC  H14Y20513   1.197   4.047   9.119  0.3201  0.6869 -0.2895
  179SLPC  C31520514   1.335   4.063   8.954  0.4510  0.6017  0.0843
  179SLPC  H15X20515   1.364   3.960   8.925  0.0672  0.6565 -0.5150
  179SLPC  H15Y20516   1.426   4.122   8.930 -0.3403  3.2605  3.2160
  179SLPC  C31620517   1.233   4.128   8.850  0.3039  0.0220 -0.1799
  179SLPC  H16X20518   1.273   4.214   8.792  0.6850  0.5140  0.7882
  179SLPC  H16Y20519   1.154   4.176   8.913  2.5361  3.3481  0.2197
  179SLPC  C31720520   1.166   4.021   8.777  0.3028 -0.2852  0.2067
  179SLPC  H17X20521   1.128   3.934   8.835 -0.6083  0.2487  0.4123
  179SLPC  H17Y20522   1.254   3.978   8.724  0.1723 -0.0900 -0.1708
  179SLPC  C31820523   1.061   4.064   8.672  0.0434  0.1949 -0.4319
  179SLPC  H18X20524   1.094   4.014   8.579 -1.0394 -0.6570 -0.3780
  179SLPC  H18Y20525   1.059   4.174   8.663  1.8368  0.3905  1.2623
  179SLPC  H18Z20526   0.958   4.025   8.692  0.0415  0.7626  0.7051
  180SLPC     N20527   3.155   6.476  10.779 -0.0969 -0.1355 -0.0056
  180SLPC   C1320528   3.246   6.535  10.878  0.0116  0.3576  0.5038
  180SLPC  H13A20529   3.199   6.556  10.973  0.3700  0.3655  0.6783
  180SLPC  H13B20530   3.329   6.468  10.895 -0.8938 -0.6890  0.9040
  180SLPC  H13C20531   3.291   6.623  10.835  1.4248 -0.0216  1.1586
  180SLPC   C1420532   3.109   6.357  10.844 -0.4211  0.1580 -0.1890
  180SLPC  H14A20533   3.089   6.378  10.948 -1.9482 -0.0477 -0.4353
  180SLPC  H14B20534   3.022   6.310  10.800 -0.4213 -1.6245  1.6609
  180SLPC  H14C20535   3.189   6.285  10.855 -0.6567 -0.2172 -0.9273
  180SLPC   C1520536   3.234   6.449  10.648 -0.0581  0.9657  0.1233
  180SLPC  H15A20537   3.263   6.547  10.612  2.4318  0.4649  0.6662
  180SLPC  H15B20538   3.315   6.379  10.666 -0.0311  0.4900 -1.7282
  180SLPC  H15C20539   3.161   6.391  10.593 -2.0652  0.9383  2.7173
  180SLPC   C1220540   3.044   6.570  10.742 -0.8339  0.0178 -0.0883
  180SLPC  H12A20541   3.007   6.604  10.837 -3.2036  1.0327 -1.3311
  180SLPC  H12B20542   2.961   6.521  10.692 -0.6400 -0.4912  0.0895
  180SLPC   C1120543   3.081   6.699  10.672  0.2309  0.3786  0.9975
  180SLPC  H11A20544   2.985   6.747  10.643  0.4162  0.4517  0.5104
  180SLPC  H11B20545   3.147   6.682  10.584  1.1043  1.3039  1.4756
  180SLPC     P20546   3.086   6.889  10.846  0.2719  0.2865  0.3875
  180SLPC   O1320547   2.937   6.891  10.816  0.0507 -0.0091 -0.0932
  180SLPC   O1420548   3.128   6.858  10.985 -0.0899  0.5545  0.3927
  180SLPC   O1220549   3.151   6.783  10.750 -0.0032  0.5440  0.1745
  180SLPC   O1120550   3.149   7.025  10.803 -0.2163 -0.2609 -0.4479
  180SLPC    C120551   3.169   7.048  10.662 -0.3174  0.5199 -0.0799
  180SLPC    HA20552   3.233   6.969  10.618 -2.8346 -1.9154  0.4629
  180SLPC    HB20553   3.069   7.053  10.613  0.1606 -3.1548 -1.5564
  180SLPC    C220554   3.244   7.184  10.641 -0.5379 -0.1846  0.1933
  180SLPC    HS20555   3.234   7.229  10.743  1.6945 -1.0336  0.8130
  180SLPC   O2120556   3.180   7.256  10.531  0.1755  0.1307  0.0737
  180SLPC   C2120557   3.144   7.385  10.553  0.6281  0.6180  0.3899
  180SLPC   O2220558   3.155   7.441  10.662  0.1743  0.3373  0.1956
  180SLPC   C2220559   3.072   7.439  10.432 -0.4043  0.4300 -0.0951
  180SLPC   H2R20560   2.991   7.368  10.403 -0.6724  0.2913  0.9750
  180SLPC   H2S20561   3.018   7.534  10.449 -1.0989 -0.0347  0.3529
  180SLPC    C320562   3.401   7.161  10.629 -0.4271 -0.0281  0.3366
  180SLPC    HX20563   3.442   7.107  10.717 -1.7911  0.3997  1.2560
  180SLPC    HY20564   3.456   7.256  10.620  2.2200 -1.5660 -0.2315
  180SLPC   O3120565   3.429   7.069  10.521 -0.1304 -0.4937 -0.1028
  180SLPC   C3120566   3.460   7.123  10.408  0.3949 -0.0540  0.4315
  180SLPC   O3220567   3.473   7.242  10.380 -0.3750 -0.5424 -0.2970
  180SLPC   C3220568   3.457   7.011  10.308 -0.1137 -0.8531  0.0748
  180SLPC   H2X20569   3.372   6.941  10.327 -0.1595 -0.6573  0.6033
  180SLPC   H2Y20570   3.555   6.959  10.311  1.3615  1.8065 -0.6638
  180SLPC   C2320571   3.177   7.457  10.319 -0.0374  0.2304 -0.0924
  180SLPC   H3R20572   3.248   7.372  10.307 -0.1404 -0.7088  5.0936
  180SLPC   H3S20573   3.246   7.536  10.356 -0.0968 -0.1696  0.8876
  180SLPC   C2420574   3.116   7.498  10.180 -0.3747 -0.5111  0.1922
  180SLPC   H4R20575   3.053   7.589  10.193 -0.4533 -0.7682  1.6942
  180SLPC   H4S20576   3.049   7.419  10.139  0.9056  0.0610 -3.1428
  180SLPC   C2520577   3.240   7.520  10.090  0.7385 -0.2617  0.7345
  180SLPC   H5R20578   3.319   7.570  10.150  1.1316 -0.4309  0.3658
  180SLPC   H5S20579   3.228   7.596  10.010 -2.3004 -0.4132  0.9977
  180SLPC   C2620580   3.293   7.398  10.009 -0.4658 -0.0223 -0.0843
  180SLPC   H6R20581   3.224   7.391   9.922  0.0102  0.6248 -0.5199
  180SLPC   H6S20582   3.285   7.306  10.071 -1.3257  1.3127  1.8463
  180SLPC   C2720583   3.435   7.406   9.945 -0.1728 -0.5922  0.7013
  180SLPC   H7R20584   3.460   7.310   9.896 -1.8890 -1.4557  1.4727
  180SLPC   H7S20585   3.505   7.435  10.026 -2.1026  0.4495  2.0122
  180SLPC   C2820586   3.461   7.527   9.855  0.1422 -0.5294 -0.2844
  180SLPC   H8R20587   3.564   7.538   9.815 -0.2672  1.8525 -0.7586
  180SLPC   H8S20588   3.449   7.619   9.915 -1.5622 -0.6501 -0.4287
  180SLPC   C2920589   3.363   7.529   9.735  0.1871 -0.3801 -0.2995
  180SLPC   H9R20590   3.256   7.521   9.758  0.2619 -0.3507  0.0526
  180SLPC  C21020591   3.396   7.535   9.604  0.0250  0.9086 -0.8197
  180SLPC  H10R20592   3.310   7.545   9.536 -2.1630  2.5820  2.0446
  180SLPC  C21120593   3.531   7.541   9.541  0.0310  0.6515  0.1559
  180SLPC  H11R20594   3.535   7.467   9.459 -0.0746 -0.0420  0.7766
  180SLPC  H11S20595   3.606   7.502   9.613  0.9149  0.8506 -0.6407
  180SLPC  C21220596   3.571   7.679   9.494  0.1992  0.0099 -0.2144
  180SLPC  H12R20597   3.529   7.762   9.553 -0.5739  0.6582 -1.6481
  180SLPC  C21320598   3.655   7.702   9.392  0.1357 -0.9002 -0.0479
  180SLPC  H13R20599   3.681   7.803   9.359 -0.1913  0.2103  2.9627
  180SLPC  C21420600   3.729   7.590   9.318  0.4992  0.1088 -1.2589
  180SLPC  H14R20601   3.686   7.586   9.216  1.4744 -1.4554 -1.6187
  180SLPC  H14S20602   3.721   7.498   9.380 -0.8657  0.1719 -1.3316
  180SLPC  C21520603   3.879   7.630   9.314 -0.4664  0.8082 -0.8390
  180SLPC  H15R20604   3.912   7.635   9.420 -1.2099 -0.6329 -0.5203
  180SLPC  H15S20605   3.879   7.736   9.282 -0.7819  1.1646  0.3276
  180SLPC  C21620606   3.983   7.544   9.235  0.2511  0.5558 -0.5292
  180SLPC  H16R20607   3.954   7.555   9.129  0.0598 -0.0813 -0.5479
  180SLPC  H16S20608   3.972   7.441   9.275  0.6697 -0.3052 -2.5812
  180SLPC  C21720609   4.128   7.574   9.256  0.0161  0.1647  0.2133
  180SLPC  H17R20610   4.188   7.485   9.227  0.0313 -0.1833  1.2748
  180SLPC  H17S20611   4.146   7.598   9.363  0.5007 -2.5529  0.7686
  180SLPC  C21820612   4.186   7.685   9.167 -0.4917 -0.6964  0.0101
  180SLPC  H18R20613   4.296   7.676   9.152 -0.3462 -2.6762  2.0154
  180SLPC  H18S20614   4.161   7.786   9.207  0.4631  0.5001 -2.3185
  180SLPC  H18T20615   4.141   7.681   9.065 -0.1039 -0.0921 -0.1866
  180SLPC   C3320616   3.448   7.073  10.166  0.4903  0.1521 -0.2225
  180SLPC   H3X20617   3.488   7.176  10.155  1.5504 -0.3520 -1.1493
  180SLPC   H3Y20618   3.338   7.080  10.156  0.0656  2.5293  4.4856
  180SLPC   C3420619   3.503   6.990  10.049 -0.1731 -0.7073 -0.5850
  180SLPC   H4X20620   3.522   6.883  10.073  0.1560 -0.9684 -1.9865
  180SLPC   H4Y20621   3.601   7.038  10.030 -0.7892 -0.0483 -2.2481
  180SLPC   C3520622   3.414   6.994   9.924 -0.8018  0.6797  0.7353
  180SLPC   H5X20623   3.402   7.094   9.876 -0.4080  0.6719  0.6165
  180SLPC   H5Y20624   3.310   6.957   9.935 -0.4995 -1.0708 -1.9127
  180SLPC   C3620625   3.469   6.895   9.814 -0.4398  0.5122 -0.4233
  180SLPC   H6X20626   3.473   6.794   9.861 -2.3764  0.2214 -0.8356
  180SLPC   H6Y20627   3.565   6.945   9.795 -1.0424  2.5885  1.7370
  180SLPC   C3720628   3.383   6.893   9.682 -0.0441  0.4053  0.6321
  180SLPC   H7X20629   3.362   6.997   9.648  0.2043  0.1586 -0.2982
  180SLPC   H7Y20630   3.279   6.863   9.706 -0.1765 -0.4504 -0.9391
  180SLPC   C3820631   3.439   6.789   9.573 -0.4498 -0.5464 -0.4278
  180SLPC   H8X20632   3.453   6.690   9.620 -0.3532 -0.1157  0.4759
  180SLPC   H8Y20633   3.526   6.821   9.512 -0.8711  2.0621  0.2612
  180SLPC   C3920634   3.325   6.769   9.469 -0.5038 -0.0635 -0.3815
  180SLPC   H9X20635   3.276   6.868   9.459 -0.1198  0.0739 -0.8793
  180SLPC   H9Y20636   3.247   6.700   9.509 -0.1902  0.0284  0.3886
  180SLPC  C31020637   3.380   6.719   9.333 -0.0680 -0.0035 -0.7961
  180SLPC  H10X20638   3.422   6.616   9.342 -0.6994 -0.1279  0.8226
  180SLPC  H10Y20639   3.456   6.791   9.296 -0.4669  0.7479 -0.1470
  180SLPC  C31120640   3.274   6.750   9.228  0.2893  0.2991  0.5243
  180SLPC  H11X20641   3.234   6.853   9.214 -0.1227  0.1915  0.8954
  180SLPC  H11Y20642   3.181   6.693   9.245  0.2033  0.5159  0.7792
  180SLPC  C31220643   3.343   6.712   9.091  0.0778 -0.2799  0.1365
  180SLPC  H12X20644   3.395   6.614   9.089 -0.7013 -0.6794 -0.9385
  180SLPC  H12Y20645   3.424   6.785   9.072 -0.9891  0.8238 -0.2458
  180SLPC  C31320646   3.225   6.701   8.983 -0.1932 -0.3690 -0.0094
  180SLPC  H13X20647   3.149   6.780   8.999 -2.2223 -1.9122 -1.7990
  180SLPC  H13Y20648   3.174   6.603   8.996  1.1923 -1.0518  0.3576
  180SLPC  C31420649   3.289   6.711   8.847 -0.0428  0.5509  0.3400
  180SLPC  H14X20650   3.205   6.687   8.778  2.0526  0.0703 -2.1308
  180SLPC  H14Y20651   3.358   6.625   8.833  0.2687  1.0791 -1.5004
  180SLPC  C31520652   3.356   6.846   8.808 -0.2196  0.5030 -0.2852
  180SLPC  H15X20653   3.424   6.825   8.723 -1.0810 -2.5574 -0.2768
  180SLPC  H15Y20654   3.426   6.870   8.891 -1.1440  2.0923  0.0576
  180SLPC  C31620655   3.258   6.956   8.766  0.0857  0.1496 -0.0570
  180SLPC  H16X20656   3.313   7.052   8.772  0.9226 -0.3506  0.4376
  180SLPC  H16Y20657   3.161   6.953   8.821  0.0982 -1.0364 -0.0722
  180SLPC  C31720658   3.226   6.938   8.624 -0.4480 -0.4455 -0.2139
  180SLPC  H17X20659   3.174   6.841   8.615  1.0817 -1.3700  0.7404
  180SLPC  H17Y20660   3.318   6.941   8.562  1.4370 -0.8688  2.4437
  180SLPC  C31820661   3.128   7.041   8.571  0.4511  0.6498  1.2123
  180SLPC  H18X20662   3.105   7.020   8.464  0.0893  0.4083  1.3380
  180SLPC  H18Y20663   3.172   7.142   8.586 -0.7381  1.6442 -1.5812
  180SLPC  H18Z20664   3.030   7.032   8.622  0.1557 -1.3874  0.3302
  181SLPC     N20665   0.032   5.016  11.025 -0.0267 -0.7711  0.4875
  181SLPC   C1320666   0.005   4.879  10.973 -0.1482  0.0318 -0.2057
  181SLPC  H13A20667  -0.099   4.864  10.945 -0.3408  2.1577 -0.6793
  181SLPC  H13B20668   0.071   4.845  10.894 -1.2937 -0.2966 -1.0395
  181SLPC  H13C20669   0.025   4.814  11.057  0.9493  1.7990  0.9078
  181SLPC   C1420670   0.164   5.006  11.091  0.0948  0.2436 -0.3105
  181SLPC  H14A20671   0.242   4.970  11.027  0.6813  2.4722 -0.8966
  181SLPC  H14B20672   0.198   5.099  11.135 -1.3305  0.1644  1.0030
  181SLPC  H14C20673   0.155   4.948  11.181 -0.3345  0.1437 -0.4165
  181SLPC   C1520674  -0.073   5.064  11.108  0.2533  0.3687  0.1607
  181SLPC  H15A20675  -0.056   5.163  11.146 -0.2546  0.5554 -0.0969
  181SLPC  H15B20676  -0.162   5.060  11.048 -0.7776 -2.3295  1.7713
  181SLPC  H15C20677  -0.083   5.002  11.195  0.3053  1.0065  0.6242
  181SLPC   C1220678   0.054   5.109  10.905  0.9434 -0.0803  0.2659
  181SLPC  H12A20679   0.129   5.068  10.839  0.5168 -0.8455  0.2573
  181SLPC  H12B20680   0.085   5.206  10.942  0.5303 -0.5171  1.7913
  181SLPC   C1120681  -0.070   5.147  10.816 -0.7991  0.8105  0.0837
  181SLPC  H11A20682  -0.123   5.052  10.795 -0.8150  1.1070 -1.2531
  181SLPC  H11B20683  -0.038   5.190  10.719  0.4174 -0.0871  0.0732
  181SLPC     P20684  -0.124   5.389  10.888 -0.0628 -0.2811  0.2288
  181SLPC   O1320685  -0.248   5.460  10.924 -0.2709  0.7971  0.0413
  181SLPC   O1420686  -0.008   5.413  10.976  0.1205 -0.6919  0.3683
  181SLPC   O1220687  -0.151   5.236  10.886  0.2432 -0.1482 -0.9704
  181SLPC   O1120688  -0.087   5.427  10.741 -0.0523  1.0729 -0.3818
  181SLPC    C120689  -0.176   5.403  10.637  0.8616  0.6018 -0.5894
  181SLPC    HA20690  -0.127   5.325  10.575  0.9635 -0.6805  1.1038
  181SLPC    HB20691  -0.268   5.351  10.671  0.3275  0.8194 -1.6576
  181SLPC    C220692  -0.208   5.533  10.561  0.6014  0.5609  0.8575
  181SLPC    HS20693  -0.242   5.608  10.635 -0.5157 -0.4560  1.3971
  181SLPC   O2120694  -0.308   5.498  10.464 -0.0362  0.0482  0.1777
  181SLPC   C2120695  -0.382   5.589  10.421 -0.2539 -0.4717  0.3508
  181SLPC   O2220696  -0.377   5.709  10.442  0.0007 -0.0688  0.4105
  181SLPC   C2220697  -0.487   5.519  10.332  0.2841 -0.8777 -0.6023
  181SLPC   H2R20698  -0.454   5.414  10.319  0.0732 -1.2707  1.9220
  181SLPC   H2S20699  -0.584   5.514  10.386  0.5134 -0.4629 -0.1472
  181SLPC    C320700  -0.084   5.595  10.489  0.3849  0.3623 -0.4981
  181SLPC    HX20701  -0.040   5.506  10.440  2.3329  0.5437  0.8556
  181SLPC    HY20702  -0.000   5.620  10.558  0.1882  0.3949 -0.2709
  181SLPC   O3120703  -0.119   5.689  10.385 -0.1961  0.2159  0.0679
  181SLPC   C3120704  -0.105   5.817  10.418  0.1034 -0.2502  0.2826
  181SLPC   O3220705  -0.052   5.866  10.518 -0.4014  0.0878  0.4843
  181SLPC   C3220706  -0.133   5.902  10.300 -0.2811 -0.5966 -0.2723
  181SLPC   H2X20707  -0.080   5.999  10.316  0.8931 -1.4014  0.8177
  181SLPC   H2Y20708  -0.239   5.933  10.288 -0.4035  0.6925  3.4433
  181SLPC   C2320709  -0.485   5.587  10.187  0.7053 -0.2187  0.2634
  181SLPC   H3R20710  -0.536   5.520  10.115  2.1034  0.7437 -1.6324
  181SLPC   H3S20711  -0.379   5.604  10.160  0.2601  2.2659 -0.1019
  181SLPC   C2420712  -0.554   5.726  10.178  0.3623  0.5484  0.3554
  181SLPC   H4R20713  -0.489   5.800  10.231 -0.1941 -0.4067  2.4543
  181SLPC   H4S20714  -0.653   5.723  10.227 -0.3924 -1.1768 -1.2525
  181SLPC   C2520715  -0.582   5.774  10.036 -0.1389  0.3256 -0.3613
  181SLPC   H5R20716  -0.652   5.699   9.992  0.2553 -0.2171 -0.0679
  181SLPC   H5S20717  -0.489   5.762   9.976  0.0877  1.2503 -0.2030
  181SLPC   C2620718  -0.631   5.915  10.024 -0.2167  0.2794 -0.5548
  181SLPC   H6R20719  -0.557   5.971  10.085 -0.8794  0.3530  0.1976
  181SLPC   H6S20720  -0.728   5.919  10.079 -0.7809 -0.0038 -1.5107
  181SLPC   C2720721  -0.652   5.969   9.885  0.3512 -0.7856 -0.1724
  181SLPC   H7R20722  -0.549   5.988   9.849 -0.0593 -0.0874 -0.9969
  181SLPC   H7S20723  -0.687   6.074   9.900  3.1007  0.0105  1.1239
  181SLPC   C2820724  -0.733   5.877   9.791  0.9935 -0.3856  0.2188
  181SLPC   H8R20725  -0.679   5.780   9.794  0.9395 -0.3779  1.6717
  181SLPC   H8S20726  -0.718   5.924   9.691 -2.6722  0.4552  0.0062
  181SLPC   C2920727  -0.877   5.866   9.820  0.0773 -0.1340 -0.7661
  181SLPC   H9R20728  -0.894   5.854   9.928  1.0882 -0.1447 -0.6084
  181SLPC  C21020729  -0.974   5.899   9.729  0.3548 -0.7271  1.0563
  181SLPC  H10R20730  -1.077   5.880   9.762 -0.1533  0.9250  0.4775
  181SLPC  C21120731  -0.958   5.947   9.585 -0.2357 -0.1996 -0.4591
  181SLPC  H11R20732  -0.852   5.978   9.570  0.3572 -0.8783  2.0024
  181SLPC  H11S20733  -1.011   6.044   9.579  1.5517  0.8688  0.3730
  181SLPC  C21220734  -0.998   5.849   9.487  0.2548  0.4928 -0.5776
  181SLPC  H12R20735  -1.057   5.766   9.529  1.6158  0.2204  0.8408
  181SLPC  C21320736  -0.971   5.858   9.354  0.7025  0.1181 -0.3180
  181SLPC  H13R20737  -1.020   5.785   9.287  1.0910  1.9140 -2.5876
  181SLPC  C21420738  -0.883   5.959   9.282  1.1816  0.6507 -0.2955
  181SLPC  H14R20739  -0.792   5.983   9.341  2.1122 -1.7731 -0.6925
  181SLPC  H14S20740  -0.936   6.054   9.263  3.4492  1.7604 -1.2821
  181SLPC  C21520741  -0.843   5.891   9.145 -0.7110 -0.5492  0.3388
  181SLPC  H15R20742  -0.817   5.783   9.150  0.2674 -0.2754  1.8260
  181SLPC  H15S20743  -0.754   5.946   9.107 -1.0051  0.5995  1.2518
  181SLPC  C21620744  -0.945   5.915   9.026  0.0107  0.0047 -0.4314
  181SLPC  H16R20745  -1.048   5.898   9.064 -0.4659  1.4897 -1.0255
  181SLPC  H16S20746  -0.916   5.853   8.938  1.8906  0.6888 -0.3206
  181SLPC  C21720747  -0.940   6.061   8.982  0.1665 -0.1363  0.4609
  181SLPC  H17R20748  -0.836   6.073   8.944  0.1229 -1.3929 -0.0636
  181SLPC  H17S20749  -0.950   6.130   9.069  3.0693  1.7850 -0.6476
  181SLPC  C21820750  -1.031   6.089   8.869  0.8203 -0.2587  0.4752
  181SLPC  H18R20751  -1.004   6.019   8.787 -1.7822  0.0188 -0.6502
  181SLPC  H18S20752  -1.037   6.197   8.843 -0.4587 -0.9528 -2.3101
  181SLPC  H18T20753  -1.135   6.064   8.899 -0.4422  2.2501 -1.5857
  181SLPC   C3320754  -0.078   5.844  10.173 -0.3454 -0.2464  0.7469
  181SLPC   H3X20755  -0.118   5.742  10.154  1.9952 -1.1562  0.5138
  181SLPC   H3Y20756   0.031   5.834  10.192 -0.1615  2.2341  1.1840
  181SLPC   C3420757  -0.096   5.932  10.042  0.4265 -0.0694  0.3341
  181SLPC   H4X20758  -0.013   5.906   9.973  1.6548  0.1678  1.6752
  181SLPC   H4Y20759  -0.075   6.040  10.062  2.6468 -0.6161  1.0697
  181SLPC   C3520760  -0.237   5.914   9.985 -0.1464 -0.6469 -0.2036
  181SLPC   H5X20761  -0.323   5.919  10.056  1.1757 -1.0631  1.4769
  181SLPC   H5Y20762  -0.227   5.807   9.956  0.0809 -0.3985 -1.0347
  181SLPC   C3620763  -0.253   6.001   9.854  0.3333 -0.8368  0.3946
  181SLPC   H6X20764  -0.263   6.108   9.879  2.6630 -0.8593  1.5020
  181SLPC   H6Y20765  -0.356   5.978   9.819  1.1868 -1.9042 -1.5124
  181SLPC   C3720766  -0.139   5.981   9.753  0.3345  0.2056  0.5836
  181SLPC   H7X20767  -0.142   5.878   9.712  1.6865  0.4039 -0.0296
  181SLPC   H7Y20768  -0.040   6.006   9.797  1.8812 -0.2341 -2.5176
  181SLPC   C3820769  -0.154   6.075   9.632 -0.1104 -0.1317 -0.0338
  181SLPC   H8X20770  -0.058   6.079   9.577  0.3494 -1.9226  0.6287
  181SLPC   H8Y20771  -0.154   6.175   9.681 -2.1690 -1.1101  2.1030
  181SLPC   C3920772  -0.275   6.055   9.543  0.2507  0.5379  0.8442
  181SLPC   H9X20773  -0.367   6.057   9.603  0.7971 -3.7322  1.9802
  181SLPC   H9Y20774  -0.264   5.951   9.506  1.1630  1.1459 -0.6706
  181SLPC  C31020775  -0.292   6.161   9.431  0.3789 -0.2786  0.1946
  181SLPC  H10X20776  -0.204   6.165   9.363 -0.5316  0.1908 -0.9811
  181SLPC  H10Y20777  -0.292   6.261   9.480 -1.1634  0.1675 -0.6802
  181SLPC  C31120778  -0.411   6.147   9.333 -0.1582 -0.3717  0.1168
  181SLPC  H11X20779  -0.499   6.149   9.400 -1.6490  0.6881 -1.7807
  181SLPC  H11Y20780  -0.413   6.053   9.275  1.3354 -0.5208  0.3078
  181SLPC  C31220781  -0.415   6.265   9.236  0.3196 -0.7546  0.5594
  181SLPC  H12X20782  -0.316   6.302   9.202 -0.1748  0.7471  0.6943
  181SLPC  H12Y20783  -0.453   6.357   9.287 -0.9574 -1.7550  1.4501
  181SLPC  C31320784  -0.513   6.249   9.115  0.6473 -0.1444 -0.2811
  181SLPC  H13X20785  -0.530   6.352   9.077 -0.9976  0.6242  2.3805
  181SLPC  H13Y20786  -0.609   6.207   9.153  0.6476 -0.2823 -0.4299
  181SLPC  C31420787  -0.451   6.155   9.007 -0.2506  0.1427  0.1102
  181SLPC  H14X20788  -0.405   6.063   9.049 -0.3803 -0.7609 -1.6992
  181SLPC  H14Y20789  -0.379   6.214   8.946 -0.8415  0.3842 -0.3583
  181SLPC  C31520790  -0.563   6.097   8.918  0.6817  0.0796 -0.1962
  181SLPC  H15X20791  -0.637   6.175   8.889 -1.7471 -1.3310  1.8834
  181SLPC  H15Y20792  -0.631   6.045   8.990  4.3770 -2.2855  1.7579
  181SLPC  C31620793  -0.507   6.004   8.808  0.2365 -0.4020  0.2580
  181SLPC  H16X20794  -0.462   5.913   8.854  0.3639  0.2329  1.4065
  181SLPC  H16Y20795  -0.443   6.058   8.735  0.4246  0.0707  0.7686
  181SLPC  C31720796  -0.622   5.940   8.719 -0.4035  0.6088  0.1336
  181SLPC  H17X20797  -0.656   6.016   8.646 -0.2189 -2.2263 -2.9999
  181SLPC  H17Y20798  -0.710   5.910   8.781 -0.5825 -2.7898 -1.6562
  181SLPC  C31820799  -0.570   5.821   8.637  0.1340  0.4020 -0.7682
  181SLPC  H18X20800  -0.513   5.863   8.551  3.0213  0.6563  1.2132
  181SLPC  H18Y20801  -0.656   5.768   8.591 -1.1212  0.5497  1.3636
  181SLPC  H18Z20802  -0.518   5.750   8.705 -0.4669  0.6561 -0.0295
  182SLPC     N20803   5.313   6.249  10.983  0.8252  0.1035 -0.4880
  182SLPC   C1320804   5.349   6.112  11.051  0.4996  0.3596  0.8774
  182SLPC  H13A20805   5.410   6.052  10.985 -1.4242  1.5930 -2.0930
  182SLPC  H13B20806   5.401   6.131  11.144  0.2052  0.3878  1.0356
  182SLPC  H13C20807   5.252   6.065  11.062  0.4702  0.0190 -0.7169
  182SLPC   C1420808   5.449   6.316  10.952  0.6549 -0.3086  0.0492
  182SLPC  H14A20809   5.497   6.266  10.869 -0.9695 -1.3625 -0.2924
  182SLPC  H14B20810   5.433   6.416  10.915  1.4046 -0.0321  0.4758
  182SLPC  H14C20811   5.518   6.318  11.035 -0.1804  1.7506  0.7226
  182SLPC   C1520812   5.229   6.331  11.077 -0.0966  0.9666 -0.2214
  182SLPC  H15A20813   5.300   6.367  11.150  1.6497  2.9590 -2.8383
  182SLPC  H15B20814   5.181   6.416  11.030  0.5990  2.0230  0.9269
  182SLPC  H15C20815   5.151   6.273  11.124  0.2257 -2.5800 -3.8915
  182SLPC   C1220816   5.241   6.214  10.852 -0.4586  0.2378  0.0871
  182SLPC  H12A20817   5.149   6.164  10.877  0.7293 -2.9706 -1.6991
  182SLPC  H12B20818   5.295   6.140  10.794 -0.4019  1.0061 -0.8482
  182SLPC   C1120819   5.201   6.333  10.761  0.6385 -0.8664 -0.7099
  182SLPC  H11A20820   5.176   6.295  10.660  1.7241 -3.8616  0.0802
  182SLPC  H11B20821   5.291   6.399  10.755  1.4290 -1.8314  0.2984
  182SLPC     P20822   4.949   6.350  10.822 -0.5966  0.1966 -0.3034
  182SLPC   O1320823   4.953   6.204  10.836  0.0966  0.3647 -0.1780
  182SLPC   O1420824   4.863   6.423  10.922  0.9707 -0.3390  0.1681
  182SLPC   O1220825   5.096   6.406  10.819 -0.2064  0.1099  0.0187
  182SLPC   O1120826   4.900   6.397  10.680  0.0886 -0.4913 -0.2036
  182SLPC    C120827   4.956   6.519  10.621  0.5017 -0.1924 -0.3482
  182SLPC    HA20828   4.983   6.593  10.699 -0.1790 -0.0862 -0.2134
  182SLPC    HB20829   5.045   6.498  10.558  0.3091  0.3547 -0.8089
  182SLPC    C220830   4.861   6.595  10.522 -0.1062  0.8777 -0.7280
  182SLPC    HS20831   4.772   6.632  10.577 -1.2918  0.0309 -2.0642
  182SLPC   O2120832   4.812   6.507  10.417  0.0874  0.2764 -0.1123
  182SLPC   C2120833   4.678   6.506  10.394  0.4243 -0.0213  0.4700
  182SLPC   O2220834   4.593   6.578  10.438 -0.0126  0.4807  0.1632
  182SLPC   C2220835   4.659   6.405  10.280  0.1129  0.6082 -0.3866
  182SLPC   H2R20836   4.729   6.320  10.295 -0.5188  0.0196 -0.7026
  182SLPC   H2S20837   4.557   6.364  10.295 -0.0653  1.7900  1.8401
  182SLPC    C320838   4.939   6.716  10.469 -0.2089 -0.1487  0.1780
  182SLPC    HX20839   5.024   6.678  10.410 -0.2956 -0.9843  0.5864
  182SLPC    HY20840   4.981   6.771  10.557  0.1379 -0.1638  0.0209
  182SLPC   O3120841   4.856   6.802  10.384 -0.3362 -0.3371  0.4877
  182SLPC   C3120842   4.936   6.889  10.322 -0.7326  0.1047 -0.9875
  182SLPC   O3220843   5.058   6.896  10.333  0.3857  0.3485 -0.0485
  182SLPC   C3220844   4.851   6.978  10.237 -0.0237 -0.5688  0.2895
  182SLPC   H2X20845   4.878   7.083  10.261 -1.8535  0.4728 -1.9528
  182SLPC   H2Y20846   4.744   6.966  10.265 -0.4795  1.7057 -0.3387
  182SLPC   C2320847   4.681   6.458  10.142  0.4860 -0.0999  0.4595
  182SLPC   H3R20848   4.790   6.477  10.129  0.1764  2.3905  1.1296
  182SLPC   H3S20849   4.633   6.557  10.123  0.6416 -0.5424 -2.4467
  182SLPC   C2420850   4.623   6.357  10.037 -0.5436  0.0781 -1.3488
  182SLPC   H4R20851   4.512   6.354  10.034 -0.7476  2.6601  1.6039
  182SLPC   H4S20852   4.660   6.253  10.046  2.5079  1.3495  1.7683
  182SLPC   C2520853   4.650   6.392   9.890  0.3863  0.4158 -0.4642
  182SLPC   H5R20854   4.758   6.408   9.871  0.4746  0.4197  0.0282
  182SLPC   H5S20855   4.601   6.486   9.858  0.4764  0.7210  0.2965
  182SLPC   C2620856   4.603   6.279   9.791  0.6253 -0.2939 -0.1096
  182SLPC   H6R20857   4.500   6.241   9.803  1.1669 -1.4607  0.9470
  182SLPC   H6S20858   4.669   6.192   9.813  0.8790  0.4578  2.3197
  182SLPC   C2720859   4.615   6.300   9.638  0.1456 -0.6614 -0.2320
  182SLPC   H7R20860   4.718   6.335   9.619 -0.6456  2.4177  0.8876
  182SLPC   H7S20861   4.554   6.384   9.600 -0.4784 -1.1308 -0.2829
  182SLPC   C2820862   4.593   6.181   9.542  0.0497  0.9700 -0.3694
  182SLPC   H8R20863   4.496   6.136   9.572 -0.1954  1.2649 -0.7014
  182SLPC   H8S20864   4.672   6.107   9.565  0.8883  2.5516  2.0453
  182SLPC   C2920865   4.594   6.227   9.401  0.4787 -0.2124  0.1692
  182SLPC   H9R20866   4.564   6.332   9.387 -0.3347 -0.6571 -1.6668
  182SLPC  C21020867   4.638   6.159   9.287  0.0069 -0.5312 -0.1327
  182SLPC  H10R20868   4.634   6.218   9.194  0.3012 -0.9722 -0.4244
  182SLPC  C21120869   4.706   6.022   9.281  0.2340  0.2340 -0.2091
  182SLPC  H11R20870   4.718   5.968   9.377 -0.7833  1.5189  0.6675
  182SLPC  H11S20871   4.808   6.023   9.237  0.2559 -0.5730 -0.1724
  182SLPC  C21220872   4.622   5.933   9.192 -0.7356 -0.2009 -0.3065
  182SLPC  H12R20873   4.526   5.909   9.238  0.5893 -1.0565  2.0688
  182SLPC  C21320874   4.641   5.905   9.063  0.4135 -0.1370 -0.2887
  182SLPC  H13R20875   4.570   5.834   9.019 -0.2783  1.0850 -1.1915
  182SLPC  C21420876   4.755   5.947   8.966 -0.3357  0.0826 -0.5107
  182SLPC  H14R20877   4.832   5.867   8.970 -1.3132 -0.9697 -2.0163
  182SLPC  H14S20878   4.791   6.047   8.999 -0.1163 -0.2986  0.4217
  182SLPC  C21520879   4.727   5.966   8.819 -0.1737 -0.4689  0.0857
  182SLPC  H15R20880   4.670   6.059   8.796 -1.1746 -0.4122  2.6860
  182SLPC  H15S20881   4.672   5.879   8.779  1.2614 -1.3662  0.0046
  182SLPC  C21620882   4.864   5.986   8.745 -0.8822 -0.2229  0.5895
  182SLPC  H16R20883   4.859   5.963   8.636 -1.1252 -2.1627  0.9870
  182SLPC  H16S20884   4.937   5.923   8.800 -0.6854 -1.3424 -0.9302
  182SLPC  C21720885   4.924   6.123   8.759 -0.4549 -0.2454  0.0305
  182SLPC  H17R20886   5.022   6.121   8.707  0.4048  3.0673  1.3760
  182SLPC  H17S20887   4.942   6.126   8.868  3.0299  0.7558 -0.5351
  182SLPC  C21820888   4.858   6.260   8.722  0.0400  0.2490  0.7938
  182SLPC  H18R20889   4.754   6.271   8.761 -0.2835  0.7860 -0.2153
  182SLPC  H18S20890   4.851   6.263   8.612  0.1142  0.4102  0.7934
  182SLPC  H18T20891   4.929   6.343   8.742 -0.1510  0.8581 -1.0149
  182SLPC   C3320892   4.878   6.952  10.096 -0.6666  0.2938 -0.0912
  182SLPC   H3X20893   4.981   6.980  10.067 -0.3696 -0.4778  0.2104
  182SLPC   H3Y20894   4.819   7.034  10.050  0.8012  1.8940  0.8296
  182SLPC   C3420895   4.831   6.821  10.042 -1.1800  0.9889  0.2381
  182SLPC   H4X20896   4.729   6.791  10.075 -1.7801  0.4079 -2.0528
  182SLPC   H4Y20897   4.904   6.744  10.073 -1.2833  0.4205 -0.8968
  182SLPC   C3520898   4.804   6.818   9.885 -0.0447 -0.7422  0.3185
  182SLPC   H5X20899   4.854   6.727   9.846 -4.3861 -2.9453 -0.4965
  182SLPC   H5Y20900   4.849   6.909   9.839  1.1068 -1.5977 -0.2489
  182SLPC   C3620901   4.661   6.786   9.855 -0.4666 -0.0862 -0.1245
  182SLPC   H6X20902   4.612   6.881   9.886 -1.6442 -0.6614 -0.2037
  182SLPC   H6Y20903   4.623   6.701   9.916  0.8573  0.1893  1.1185
  182SLPC   C3720904   4.645   6.757   9.703 -0.7673  0.0867 -0.0343
  182SLPC   H7X20905   4.697   6.661   9.682  0.9938  0.9451  0.2952
  182SLPC   H7Y20906   4.696   6.823   9.629 -0.5245  1.3913  1.2855
  182SLPC   C3820907   4.496   6.763   9.660 -0.3444 -0.4060  0.2160
  182SLPC   H8X20908   4.466   6.869   9.656 -1.4335 -0.7434 -0.5609
  182SLPC   H8Y20909   4.424   6.702   9.718 -0.2360  1.2103  2.1059
  182SLPC   C3920910   4.487   6.718   9.508  0.0509 -0.8476 -0.7154
  182SLPC   H9X20911   4.546   6.625   9.501  1.7383 -0.0331  2.0661
  182SLPC   H9Y20912   4.552   6.785   9.447 -0.9431  1.2469  0.4639
  182SLPC  C31020913   4.342   6.707   9.459  0.3270 -0.2732  0.4693
  182SLPC  H10X20914   4.302   6.810   9.459  2.0689  0.4511 -1.7081
  182SLPC  H10Y20915   4.281   6.642   9.524 -1.5042 -0.0750 -1.0059
  182SLPC  C31120916   4.319   6.634   9.319 -0.2273  0.1226  0.7202
  182SLPC  H11X20917   4.210   6.618   9.304  0.2511 -3.1561  0.5652
  182SLPC  H11Y20918   4.374   6.538   9.321 -2.1818 -1.0403 -0.1196
  182SLPC  C31220919   4.375   6.714   9.199 -0.1026  0.0648  0.1188
  182SLPC  H12X20920   4.485   6.715   9.220 -0.3102  0.8868  1.2242
  182SLPC  H12Y20921   4.332   6.816   9.202 -0.6650 -0.0692 -2.4409
  182SLPC  C31320922   4.355   6.651   9.063  0.4215 -0.4078  0.8382
  182SLPC  H13X20923   4.245   6.635   9.052  0.6373 -1.0169 -0.5244
  182SLPC  H13Y20924   4.405   6.552   9.067 -0.8836 -1.2035 -1.1632
  182SLPC  C31420925   4.409   6.741   8.950  0.4642 -0.6865 -0.0941
  182SLPC  H14X20926   4.520   6.741   8.946  0.4840  2.1092 -0.7130
  182SLPC  H14Y20927   4.389   6.846   8.979 -0.0826 -0.3979 -1.4552
  182SLPC  C31520928   4.340   6.711   8.814 -0.2926 -0.6751 -0.2480
  182SLPC  H15X20929   4.386   6.777   8.738  0.1887 -1.0478 -0.2885
  182SLPC  H15Y20930   4.230   6.723   8.812 -0.2272  0.0742  0.5073
  182SLPC  C31620931   4.376   6.573   8.755  0.5866  0.0877  0.5121
  182SLPC  H16X20932   4.358   6.488   8.824 -0.6786 -0.8263 -0.9133
  182SLPC  H16Y20933   4.479   6.554   8.718  0.1992 -1.2394  0.0791
  182SLPC  C31720934   4.283   6.537   8.634  0.0543  0.0747  0.7417
  182SLPC  H17X20935   4.183   6.516   8.677 -0.3626  1.1027  0.3052
  182SLPC  H17Y20936   4.320   6.441   8.592 -1.7235  0.2028 -1.2211
  182SLPC  C31820937   4.277   6.638   8.521 -0.2035  0.1315  0.2976
  182SLPC  H18X20938   4.376   6.631   8.472  0.3687  1.9104  1.1830
  182SLPC  H18Y20939   4.258   6.740   8.562  0.8749  0.6409 -0.4419
  182SLPC  H18Z20940   4.199   6.609   8.448  1.1161 -3.7366  0.2923
  183SLPC     N20941   5.154   1.380  10.753  0.1417 -0.2996  0.1154
  183SLPC   C1320942   5.094   1.460  10.867  0.1715 -0.5461  0.0693
  183SLPC  H13A20943   5.109   1.566  10.853 -0.0044 -0.6197 -0.7142
  183SLPC  H13B20944   4.986   1.450  10.863  0.0770  0.1534  0.7046
  183SLPC  H13C20945   5.139   1.435  10.962 -2.1529  0.6221  1.5287
  183SLPC   C1420946   5.099   1.448  10.634 -0.3006 -0.0070  0.7106
  183SLPC  H14A20947   5.142   1.400  10.548 -0.4406 -0.6208  0.9824
  183SLPC  H14B20948   4.993   1.433  10.627 -0.5077  1.6849  0.0055
  183SLPC  H14C20949   5.122   1.553  10.620  0.7881 -0.3661 -0.3252
  183SLPC   C1520950   5.093   1.245  10.763  0.1874 -0.0620  0.0644
  183SLPC  H15A20951   5.135   1.190  10.680 -0.2830  0.1407 -0.3126
  183SLPC  H15B20952   5.125   1.187  10.849 -0.3040  0.9184  0.9184
  183SLPC  H15C20953   4.986   1.253  10.746 -0.0795 -0.7432  1.3195
  183SLPC   C1220954   5.304   1.382  10.755  0.1489 -0.4884  0.6414
  183SLPC  H12A20955   5.352   1.350  10.847  1.9681 -0.7549 -0.3754
  183SLPC  H12B20956   5.346   1.481  10.748 -0.8444 -0.0695  0.6133
  183SLPC   C1120957   5.359   1.301  10.628  0.0001 -0.6589  0.0208
  183SLPC  H11A20958   5.464   1.333  10.609  1.0343 -2.2130  2.8130
  183SLPC  H11B20959   5.305   1.341  10.539  0.3803  0.8666  0.4648
  183SLPC     P20960   5.452   1.083  10.734 -0.3024 -0.1542 -0.2333
  183SLPC   O1320961   5.483   1.164  10.854  0.4075  0.2184  0.5431
  183SLPC   O1420962   5.408   0.948  10.748 -0.2789  0.0157 -0.0909
  183SLPC   O1220963   5.344   1.157  10.646 -0.4049 -0.3662  0.5674
  183SLPC   O1120964   5.576   1.091  10.643  0.2674  0.2080  0.3301
  183SLPC    C120965   5.634   0.971  10.582 -0.0277 -0.8448  0.0406
  183SLPC    HA20966   5.737   1.005  10.555 -0.4670  0.2664 -0.2658
  183SLPC    HB20967   5.651   0.889  10.655  2.4704 -0.0828  0.3690
  183SLPC    C220968   5.567   0.914  10.450  0.5998 -0.6501  0.2555
  183SLPC    HS20969   5.465   0.885  10.484  0.8362 -0.5859  1.0179
  183SLPC   O2120970   5.646   0.802  10.397  0.3490  0.2488  0.1772
  183SLPC   C2120971   5.574   0.705  10.342 -0.2780 -1.0589 -0.1785
  183SLPC   O2220972   5.452   0.707  10.337 -0.3359  0.1270  0.0415
  183SLPC   C2220973   5.658   0.590  10.297 -0.0889  0.5940  0.9113
  183SLPC   H2R20974   5.767   0.607  10.311  0.3596 -1.4510  0.0967
  183SLPC   H2S20975   5.626   0.497  10.348  2.7595 -1.8312 -1.5435
  183SLPC    C320976   5.568   1.030  10.344  0.5627  0.2405 -0.2391
  183SLPC    HX20977   5.674   1.057  10.327  1.0364 -0.8013  1.0108
  183SLPC    HY20978   5.525   1.122  10.389 -0.7325 -0.1283 -0.6860
  183SLPC   O3120979   5.517   0.982  10.221 -0.5416  0.2332 -0.5890
  183SLPC   C3120980   5.385   0.980  10.208 -0.3644  0.6329 -0.2226
  183SLPC   O3220981   5.310   1.021  10.294 -0.3805  0.2715  0.0923
  183SLPC   C3220982   5.348   0.908  10.075  0.1145 -0.3783 -0.7700
  183SLPC   H2X20983   5.368   0.800  10.089 -0.7399 -0.7059 -2.0240
  183SLPC   H2Y20984   5.418   0.934   9.992  0.0068 -1.4146 -1.1948
  183SLPC   C2320985   5.641   0.571  10.142 -0.4532 -0.0091  0.6424
  183SLPC   H3R20986   5.534   0.556  10.113  0.0660  0.0923 -1.3990
  183SLPC   H3S20987   5.698   0.480  10.113  2.6949  1.7261  1.2396
  183SLPC   C2420988   5.688   0.698  10.065  0.6192  0.1287  0.2355
  183SLPC   H4R20989   5.773   0.738  10.126 -0.9138 -0.6243  2.9563
  183SLPC   H4S20990   5.620   0.784  10.077  0.7764  0.1690  0.8559
  183SLPC   C2520991   5.738   0.665   9.918 -0.9506 -0.9200  0.5030
  183SLPC   H5R20992   5.836   0.615   9.934  0.2760  1.4370  0.5560
  183SLPC   H5S20993   5.758   0.755   9.856 -1.4054  0.3125  2.0802
  183SLPC   C2620994   5.653   0.580   9.831 -0.3584 -0.4185 -0.6223
  183SLPC   H6R20995   5.609   0.498   9.892  2.6147 -1.3850  0.3303
  183SLPC   H6S20996   5.713   0.546   9.744 -0.8375 -0.1613 -1.0588
  183SLPC   C2720997   5.528   0.651   9.772  0.0814 -0.8538  0.1612
  183SLPC   H7R20998   5.487   0.713   9.855  1.6122  0.7406 -0.2486
  183SLPC   H7S20999   5.446   0.579   9.751  0.0512 -1.2990  1.7473
  183SLPC   C2821000   5.557   0.749   9.653  0.3466 -0.2125 -0.7173
  183SLPC   H8R21001   5.595   0.699   9.562  2.6466  0.8022 -0.3458
  183SLPC   H8S21002   5.645   0.808   9.685  0.6281 -1.0111  0.0107
  183SLPC   C2921003   5.442   0.838   9.625  0.4382 -0.8317  0.0800
  183SLPC   H9R21004   5.422   0.904   9.711  0.0346 -0.4085 -0.3326
  183SLPC  C21021005   5.360   0.839   9.513 -0.4155 -0.4898 -0.6075
  183SLPC  H10R21006   5.291   0.921   9.492 -2.9342 -2.1362  0.8741
  183SLPC  C21121007   5.375   0.757   9.390 -0.1532 -0.4441  0.3827
  183SLPC  H11R21008   5.274   0.735   9.350  1.0622 -2.5358 -1.6338
  183SLPC  H11S21009   5.431   0.663   9.409  1.7684  0.4783 -0.5543
  183SLPC  C21221010   5.450   0.847   9.289 -0.2477  0.5454  0.2768
  183SLPC  H12R21011   5.499   0.940   9.320  1.1653 -0.1586  0.1706
  183SLPC  C21321012   5.450   0.830   9.157  0.2736 -0.5434 -0.3916
  183SLPC  H13R21013   5.503   0.898   9.088  0.5065 -0.1137  0.2067
  183SLPC  C21421014   5.382   0.720   9.085 -0.5259  0.1192 -0.5954
  183SLPC  H14R21015   5.390   0.630   9.149 -0.4086  0.8328  0.3942
  183SLPC  H14S21016   5.443   0.688   8.998 -1.0822  1.8248 -1.6443
  183SLPC  C21521017   5.230   0.754   9.048 -0.2067 -0.3019 -0.4313
  183SLPC  H15R21018   5.220   0.856   9.003  0.1754 -0.2702 -0.4440
  183SLPC  H15S21019   5.162   0.759   9.136  0.9177 -2.3365  0.5835
  183SLPC  C21621020   5.169   0.647   8.947  0.5108 -0.3164  0.1274
  183SLPC  H16R21021   5.225   0.640   8.852 -0.4431  0.4820 -0.4967
  183SLPC  H16S21022   5.069   0.681   8.912 -0.1800 -0.3166  2.0115
  183SLPC  C21721023   5.167   0.506   9.016 -0.8594  0.3687 -0.3554
  183SLPC  H17R21024   5.271   0.468   9.024  0.6106  4.0740 -0.5713
  183SLPC  H17S21025   5.112   0.437   8.949  2.2771 -1.0975 -1.5348
  183SLPC  C21821026   5.088   0.500   9.146 -1.2294 -0.4527  0.3318
  183SLPC  H18R21027   5.140   0.545   9.233  0.4221 -1.6002 -0.0646
  183SLPC  H18S21028   5.082   0.391   9.165 -0.8488 -0.7615 -1.2683
  183SLPC  H18T21029   4.985   0.544   9.146 -0.6364  0.9712 -0.1873
  183SLPC   C3321030   5.201   0.940  10.044 -0.7302  0.3012 -0.6121
  183SLPC   H3X21031   5.209   1.048  10.018 -3.1472  0.9519  1.0642
  183SLPC   H3Y21032   5.147   0.924  10.140  2.4547 -1.7167  0.8955
  183SLPC   C3421033   5.152   0.858   9.924  0.5504  0.0460  0.5844
  183SLPC   H4X21034   5.158   0.751   9.955  0.3874 -0.1520 -0.0549
  183SLPC   H4Y21035   5.223   0.877   9.840  0.7879 -1.7091  0.3572
  183SLPC   C3521036   5.006   0.882   9.889 -1.1729  0.5399  0.5357
  183SLPC   H5X21037   4.971   0.980   9.927 -0.7541  1.6198 -1.7446
  183SLPC   H5Y21038   4.937   0.806   9.932 -1.9055  0.4682 -0.7383
  183SLPC   C3621039   4.975   0.864   9.742  0.4805  0.4221  0.2311
  183SLPC   H6X21040   4.865   0.866   9.723  0.2005  1.6965  1.8595
  183SLPC   H6Y21041   5.006   0.766   9.700 -0.1223  0.9177 -1.3853
  183SLPC   C3721042   5.034   0.964   9.652  1.0362  0.4387  0.5362
  183SLPC   H7X21043   5.144   0.957   9.666  1.2160  2.1279  0.0660
  183SLPC   H7Y21044   4.990   1.056   9.695  1.7401  0.6017  0.9268
  183SLPC   C3821045   5.007   0.941   9.504  0.0978  0.5532 -0.2589
  183SLPC   H8X21046   4.896   0.932   9.503  0.1995 -0.9654  0.8395
  183SLPC   H8Y21047   5.049   0.847   9.463 -1.7702 -0.4943  0.1481
  183SLPC   C3921048   5.037   1.055   9.413  0.0749  0.3044  0.5174
  183SLPC   H9X21049   5.146   1.056   9.390 -0.1987  2.0629 -0.8570
  183SLPC   H9Y21050   5.010   1.152   9.460 -2.6318  0.1829 -0.7288
  183SLPC  C31021051   4.963   1.048   9.276  0.6698  0.5663  0.1106
  183SLPC  H10X21052   4.854   1.065   9.290  0.7181  0.6691  0.3500
  183SLPC  H10Y21053   4.970   0.943   9.239  2.0710  0.7541 -0.1685
  183SLPC  C31121054   5.025   1.143   9.178 -0.1421 -0.3523 -0.0878
  183SLPC  H11X21055   5.134   1.126   9.187 -0.1670 -0.7280 -0.4661
  183SLPC  H11Y21056   5.003   1.248   9.205  2.2919  0.3169 -0.5944
  183SLPC  C31221057   4.995   1.110   9.031 -0.0659  0.1609 -0.8417
  183SLPC  H12X21058   5.016   1.002   9.016 -2.0538 -0.4539  0.5949
  183SLPC  H12Y21059   5.051   1.179   8.964 -2.4092  1.1537 -1.8550
  183SLPC  C31321060   4.853   1.142   8.991 -0.0112  0.5581 -0.0831
  183SLPC  H13X21061   4.820   1.245   9.017 -0.3511  0.2916  0.5686
  183SLPC  H13Y21062   4.787   1.077   9.052  4.1155 -2.3075  1.5648
  183SLPC  C31421063   4.833   1.106   8.843 -0.2806  0.1598  0.1232
  183SLPC  H14X21064   4.839   0.997   8.822  2.0998  0.4209 -0.7450
  183SLPC  H14Y21065   4.913   1.140   8.774 -0.9988  0.2138 -0.6890
  183SLPC  C31521066   4.696   1.154   8.798  0.0036 -0.3452  0.2153
  183SLPC  H15X21067   4.682   1.264   8.796  1.3994 -0.1744 -0.6060
  183SLPC  H15Y21068   4.616   1.113   8.864  0.5033 -0.5793  0.6898
  183SLPC  C31621069   4.663   1.105   8.658  1.2573 -0.1568  0.2325
  183SLPC  H16X21070   4.567   1.155   8.633  2.4202  1.4479 -1.0997
  183SLPC  H16Y21071   4.651   0.995   8.656  1.0122 -0.1203 -0.3699
  183SLPC  C31721072   4.768   1.143   8.549  0.4823  0.2743 -0.1118
  183SLPC  H17X21073   4.869   1.110   8.582  0.4810 -2.1966 -2.4692
  183SLPC  H17Y21074   4.752   1.252   8.538 -0.4436  0.1287 -0.2573
  183SLPC  C31821075   4.732   1.086   8.406  0.0089  0.6481  0.3680
  183SLPC  H18X21076   4.755   0.978   8.416 -0.2863  0.6049  0.5876
  183SLPC  H18Y21077   4.815   1.124   8.343 -1.2613  1.6336 -0.7282
  183SLPC  H18Z21078   4.636   1.130   8.371  1.5277  1.6391 -2.6510
  184SLPC     N21079   1.498   4.101  10.727 -0.1363  0.0912 -0.0431
  184SLPC   C1321080   1.415   3.972  10.706 -0.5038 -0.1111 -0.1352
  184SLPC  H13A21081   1.469   3.901  10.644 -0.5620  3.6321 -4.7683
  184SLPC  H13B21082   1.418   3.909  10.794 -0.7700  1.1086  0.7624
  184SLPC  H13C21083   1.314   3.979  10.670 -0.4402  2.9735  0.2015
  184SLPC   C1421084   1.638   4.069  10.785 -0.3041  0.3216 -0.0994
  184SLPC  H14A21085   1.633   4.031  10.887  0.6597 -0.5104 -0.3550
  184SLPC  H14B21086   1.679   3.995  10.718 -0.4391  0.1411  0.0163
  184SLPC  H14C21087   1.706   4.152  10.790  0.2662  0.1016 -3.4374
  184SLPC   C1521088   1.422   4.183  10.827  0.2811  0.1469 -0.1004
  184SLPC  H15A21089   1.406   4.126  10.917 -3.0812  1.7017  0.3684
  184SLPC  H15B21090   1.466   4.277  10.855 -1.2357  0.9276 -0.2857
  184SLPC  H15C21091   1.325   4.211  10.789 -0.6797  1.5539  3.2737
  184SLPC   C1221092   1.516   4.171  10.587 -0.3386  0.0467 -0.2679
  184SLPC  H12A21093   1.413   4.183  10.556 -0.5622 -1.6003 -0.2013
  184SLPC  H12B21094   1.554   4.096  10.519 -0.0010 -1.7690  1.8632
  184SLPC   C1121095   1.618   4.287  10.570  0.0000 -0.5205 -0.1548
  184SLPC  H11A21096   1.581   4.377  10.625  0.2720 -0.2383 -0.4297
  184SLPC  H11B21097   1.607   4.309  10.462  0.2101 -0.8361 -0.2395
  184SLPC     P21098   1.840   4.169  10.504  0.0436 -0.0559 -0.1466
  184SLPC   O1321099   1.974   4.161  10.564  0.0483  0.0676 -0.2917
  184SLPC   O1421100   1.776   4.040  10.482  0.1814  0.0637  0.0261
  184SLPC   O1221101   1.757   4.264  10.600 -0.1509 -0.4807  0.2904
  184SLPC   O1121102   1.838   4.241  10.368 -0.3726  0.3499  0.1338
  184SLPC    C121103   1.869   4.380  10.348  0.1433  0.5575  0.2398
  184SLPC    HA21104   1.833   4.452  10.424 -0.2212 -1.2203  1.7864
  184SLPC    HB21105   1.979   4.395  10.356  0.1577  0.9600 -0.6507
  184SLPC    C221106   1.808   4.419  10.212 -0.0870  0.6311  0.1424
  184SLPC    HS21107   1.845   4.523  10.212 -0.4494  0.7628  0.1587
  184SLPC   O2121108   1.664   4.407  10.205 -0.2566 -0.3153  0.3458
  184SLPC   C2121109   1.599   4.513  10.242 -0.3366 -1.3966  0.3776
  184SLPC   O2221110   1.650   4.623  10.275  0.2055  0.5739  0.1297
  184SLPC   C2221111   1.454   4.470  10.258 -0.6559  0.2217  0.1377
  184SLPC   H2R21112   1.446   4.363  10.227  1.6929 -0.6630  2.3469
  184SLPC   H2S21113   1.433   4.474  10.367 -2.4177 -0.5782 -0.1483
  184SLPC    C321114   1.870   4.331  10.105 -0.5734  0.5026 -0.2359
  184SLPC    HX21115   1.849   4.223  10.121  0.7434  0.1046 -1.0774
  184SLPC    HY21116   1.978   4.339  10.131 -0.6475 -0.8126  0.5633
  184SLPC   O3121117   1.851   4.373   9.968 -0.1129 -0.5353  0.0326
  184SLPC   C3121118   1.732   4.326   9.909 -0.0306  0.0208  0.5516
  184SLPC   O3221119   1.652   4.255   9.959 -0.0038  0.2563 -0.6602
  184SLPC   C3221120   1.720   4.392   9.770  0.5709 -0.1792  0.1307
  184SLPC   H2X21121   1.795   4.349   9.700 -1.4892 -2.6357 -0.6426
  184SLPC   H2Y21122   1.746   4.500   9.779  0.3357 -0.0371 -0.8245
  184SLPC   C2321123   1.359   4.560  10.171  0.1238  0.8190  0.2227
  184SLPC   H3R21124   1.388   4.666  10.183  0.4898  0.7838 -0.3296
  184SLPC   H3S21125   1.258   4.544  10.215  0.6853 -0.1537  1.2018
  184SLPC   C2421126   1.369   4.526  10.026 -0.0091 -0.2287 -0.0068
  184SLPC   H4R21127   1.335   4.422  10.009  3.3730 -1.2341 -0.9454
  184SLPC   H4S21128   1.470   4.544   9.985  0.3533 -0.8930  0.5982
  184SLPC   C2521129   1.276   4.616   9.937  0.6077  0.0897 -0.2144
  184SLPC   H5R21130   1.311   4.606   9.832  2.1194 -0.4024  0.3264
  184SLPC   H5S21131   1.287   4.721   9.971  0.9166  0.3821 -1.2228
  184SLPC   C2621132   1.122   4.576   9.942 -0.4210 -0.3483  0.3542
  184SLPC   H6R21133   1.078   4.652   9.874  1.5232  0.5359  0.0531
  184SLPC   H6S21134   1.084   4.588  10.046 -1.2734  2.9051 -0.2800
  184SLPC   C2721135   1.080   4.442   9.884  0.5550 -0.2803 -0.4099
  184SLPC   H7R21136   1.094   4.362   9.960 -1.3927 -0.8513 -0.6088
  184SLPC   H7S21137   1.125   4.415   9.786  1.5673  0.5825 -0.1821
  184SLPC   C2821138   0.931   4.448   9.861 -0.2062 -0.0699 -0.2974
  184SLPC   H8R21139   0.926   4.517   9.773 -0.5617  0.5778  0.2303
  184SLPC   H8S21140   0.868   4.494   9.940 -0.5010 -1.3730  0.2291
  184SLPC   C2921141   0.877   4.308   9.823  0.2701 -0.1174 -0.4516
  184SLPC   H9R21142   0.884   4.223   9.893 -2.3704  0.5270  0.6806
  184SLPC  C21021143   0.843   4.260   9.701  0.6118  0.0509 -0.2408
  184SLPC  H10R21144   0.808   4.157   9.690 -0.6601  0.3509  0.8465
  184SLPC  C21121145   0.835   4.337   9.567  0.3080  0.3683 -0.1146
  184SLPC  H11R21146   0.821   4.446   9.582  3.5354  0.4462  2.7456
  184SLPC  H11S21147   0.752   4.289   9.510  1.4771 -1.0850 -0.6230
  184SLPC  C21221148   0.972   4.317   9.495 -0.3084  0.2470 -0.5297
  184SLPC  H12R21149   1.056   4.378   9.532  0.5442 -1.1379 -0.1356
  184SLPC  C21321150   0.996   4.219   9.402 -0.7433  0.1542 -0.3385
  184SLPC  H13R21151   1.098   4.212   9.362 -0.8910 -1.1638 -0.5003
  184SLPC  C21421152   0.899   4.117   9.352  1.2072  0.6826  0.3345
  184SLPC  H14R21153   0.844   4.062   9.432 -0.7153  2.0623 -0.0080
  184SLPC  H14S21154   0.950   4.034   9.299 -0.8090  0.0807 -0.7349
  184SLPC  C21521155   0.790   4.166   9.255 -0.3854 -0.2259  0.6066
  184SLPC  H15R21156   0.840   4.229   9.179 -3.1786  1.2301 -0.0745
  184SLPC  H15S21157   0.723   4.242   9.301  0.2514  1.4553 -1.2008
  184SLPC  C21621158   0.715   4.063   9.174  0.1526 -0.3018 -0.9389
  184SLPC  H16R21159   0.640   4.120   9.115  1.8323  1.0411 -1.7977
  184SLPC  H16S21160   0.663   3.989   9.239  0.6343 -0.6780 -0.9745
  184SLPC  C21721161   0.793   4.002   9.054 -0.4439  0.5228 -0.2911
  184SLPC  H17R21162   0.876   3.935   9.087  0.2950  1.0376 -1.0573
  184SLPC  H17S21163   0.838   4.086   8.997  1.0430 -1.8785 -2.8110
  184SLPC  C21821164   0.696   3.931   8.965  0.8579  0.3228  0.2874
  184SLPC  H18R21165   0.751   3.867   8.893 -1.3579  0.0163 -1.1892
  184SLPC  H18S21166   0.625   3.998   8.913  1.0948  0.9606  0.7716
  184SLPC  H18T21167   0.640   3.865   9.034  0.2290 -0.8107 -1.2758
  184SLPC   C3321168   1.563   4.387   9.717  0.1787 -0.3641 -0.4129
  184SLPC   H3X21169   1.495   4.418   9.799  2.2795 -0.2975  1.3447
  184SLPC   H3Y21170   1.542   4.279   9.701 -1.9888  0.2194 -1.7044
  184SLPC   C3421171   1.540   4.463   9.585  0.8027 -0.3888  0.1368
  184SLPC   H4X21172   1.627   4.450   9.516  1.0661  0.3345  0.3301
  184SLPC   H4Y21173   1.541   4.569   9.617 -0.2273  0.4279 -2.3743
  184SLPC   C3521174   1.406   4.428   9.521  0.1593 -0.7005  0.3530
  184SLPC   H5X21175   1.319   4.462   9.581  1.3724 -1.5424  2.6168
  184SLPC   H5Y21176   1.392   4.317   9.515  0.5647 -0.8373  1.9010
  184SLPC   C3621177   1.388   4.495   9.380 -0.2360  0.1784  0.3803
  184SLPC   H6X21178   1.468   4.468   9.307 -0.2779 -1.5890  0.9565
  184SLPC   H6Y21179   1.396   4.604   9.395  2.4751  0.0253  0.2499
  184SLPC   C3721180   1.254   4.473   9.324 -0.8109  0.0802  0.1941
  184SLPC   H7X21181   1.172   4.504   9.392 -0.2354 -2.0749  1.9382
  184SLPC   H7Y21182   1.240   4.363   9.325 -1.5410  0.1665  0.1256
  184SLPC   C3821183   1.226   4.501   9.182  0.3464 -0.7271  0.2426
  184SLPC   H8X21184   1.319   4.481   9.125  0.3309 -0.2052  0.0367
  184SLPC   H8Y21185   1.193   4.607   9.176 -2.4974 -1.3754  3.0455
  184SLPC   C3921186   1.113   4.424   9.113  0.2940 -0.0507 -0.5498
  184SLPC   H9X21187   1.028   4.460   9.174  0.2136 -1.5784  0.2544
  184SLPC   H9Y21188   1.122   4.314   9.119 -2.5709 -0.3456 -0.8923
  184SLPC  C31021189   1.098   4.464   8.970 -0.7171 -0.3328 -0.4666
  184SLPC  H10X21190   1.173   4.411   8.906 -1.5157 -0.5318 -1.2590
  184SLPC  H10Y21191   1.109   4.574   8.962  0.1763 -0.1161  3.1946
  184SLPC  C31121192   0.956   4.417   8.918 -0.2807 -0.0082 -0.3676
  184SLPC  H11X21193   0.878   4.458   8.986  0.8485 -1.2605  1.7369
  184SLPC  H11Y21194   0.959   4.306   8.914  0.9094 -0.0643  1.4236
  184SLPC  C31221195   0.931   4.455   8.772 -0.4586  0.1330  0.6223
  184SLPC  H12X21196   1.022   4.447   8.709  0.9502 -1.5087  2.7670
  184SLPC  H12Y21197   0.903   4.562   8.768 -0.6845  0.0759  0.6191
  184SLPC  C31321198   0.812   4.371   8.719  0.0770 -0.0770  0.5865
  184SLPC  H13X21199   0.725   4.384   8.787 -0.6882  2.5980 -0.8299
  184SLPC  H13Y21200   0.837   4.265   8.699 -1.2881 -0.4392  0.7905
  184SLPC  C31421201   0.764   4.431   8.592 -0.3954  0.0405  0.6594
  184SLPC  H14X21202   0.848   4.449   8.521  0.4131 -1.0355  1.3192
  184SLPC  H14Y21203   0.728   4.533   8.619 -0.5807  0.2086 -0.2247
  184SLPC  C31521204   0.655   4.348   8.520  0.6199 -0.3034  1.1317
  184SLPC  H15X21205   0.685   4.247   8.485  1.1928  0.4967 -0.7677
  184SLPC  H15Y21206   0.641   4.400   8.423  1.0374 -0.5845  0.9183
  184SLPC  C31621207   0.519   4.361   8.586  0.7483  0.7734 -0.4536
  184SLPC  H16X21208   0.448   4.332   8.505 -0.8917  0.7552  0.9609
  184SLPC  H16Y21209   0.491   4.467   8.606  2.5614  1.2606 -0.4698
  184SLPC  C31721210   0.488   4.265   8.694 -0.3600 -0.7001 -0.7726
  184SLPC  H17X21211   0.379   4.271   8.712  0.1522  1.2187  2.1664
  184SLPC  H17Y21212   0.535   4.279   8.794 -0.3743 -1.2874 -0.6839
  184SLPC  C31821213   0.511   4.118   8.651 -0.9759 -0.3428  0.6498
  184SLPC  H18X21214   0.622   4.112   8.656 -0.7646  0.1876 -2.5518
  184SLPC  H18Y21215   0.480   4.090   8.548 -2.8453  1.8559  0.5820
  184SLPC  H18Z21216   0.458   4.049   8.720 -1.5621  0.0492  0.5907
  185SLPC     N21217   5.591   1.884   6.464  0.3320 -0.3494 -0.2140
  185SLPC   C1321218   5.484   1.885   6.569  0.5353 -0.1352 -0.1208
  185SLPC  H13A21219   5.467   1.788   6.614  1.1965  0.0754  0.5965
  185SLPC  H13B21220   5.494   1.965   6.641  3.1943 -1.0912  0.6157
  185SLPC  H13C21221   5.388   1.901   6.522 -0.4240 -1.8621  1.1953
  185SLPC   C1421222   5.592   2.027   6.418  0.3599 -0.7090  0.1261
  185SLPC  H14A21223   5.642   2.037   6.323  0.4897 -1.8317  0.0685
  185SLPC  H14B21224   5.497   2.078   6.410  0.4243 -0.8981 -2.1447
  185SLPC  H14C21225   5.653   2.081   6.488  0.4686 -0.2232 -0.3456
  185SLPC   C1521226   5.560   1.802   6.341 -0.2819  0.1960 -0.5531
  185SLPC  H15A21227   5.629   1.811   6.258  1.5833  0.5144  1.0052
  185SLPC  H15B21228   5.563   1.697   6.368 -0.1315  0.3516  0.0352
  185SLPC  H15C21229   5.463   1.827   6.302 -1.2219  0.2887  1.8134
  185SLPC   C1221230   5.728   1.842   6.523 -0.7099  0.2129  0.3855
  185SLPC  H12A21231   5.801   1.821   6.447 -2.5873 -1.0418 -1.1224
  185SLPC  H12B21232   5.721   1.744   6.567  0.7505 -0.7004 -1.3805
  185SLPC   C1121233   5.780   1.924   6.642  0.8866 -0.3998  0.3592
  185SLPC  H11A21234   5.869   1.865   6.673  2.0327  1.5282  0.8516
  185SLPC  H11B21235   5.719   1.914   6.734 -0.2317 -1.7328 -0.5190
  185SLPC     P21236   5.965   2.076   6.554  0.2285 -0.0458 -0.2254
  185SLPC   O1321237   5.960   2.006   6.428  0.4001  0.1341  0.1693
  185SLPC   O1421238   5.999   2.219   6.554  0.1945 -0.5014 -0.5722
  185SLPC   O1221239   5.819   2.055   6.612 -0.1692 -0.0482  0.3525
  185SLPC   O1121240   6.063   2.004   6.652 -0.1225  0.4496  0.1469
  185SLPC    C121241   6.153   2.067   6.744 -0.4091 -0.9434  1.1025
  185SLPC    HA21242   6.229   1.989   6.765  0.9729 -0.2243 -0.9649
  185SLPC    HB21243   6.202   2.155   6.697  0.9851  0.1175  4.3885
  185SLPC    C221244   6.087   2.101   6.874 -0.1512 -1.0428 -0.7513
  185SLPC    HS21245   6.157   2.116   6.958 -0.0609  3.4744 -1.4701
  185SLPC   O2121246   5.983   2.004   6.909 -0.1061 -0.4635  0.2037
  185SLPC   C2121247   6.033   1.899   6.963  0.1988 -1.2352  0.4374
  185SLPC   O2221248   6.150   1.886   7.004  0.2633 -0.4432  0.7383
  185SLPC   C2221249   5.926   1.791   6.982  0.4545 -0.5556 -0.6877
  185SLPC   H2R21250   5.894   1.749   6.884 -0.0499  0.6949 -1.0697
  185SLPC   H2S21251   5.979   1.707   7.032  0.0437 -0.1583  0.4414
  185SLPC    C321252   6.007   2.244   6.866 -0.7750 -0.1508  0.0530
  185SLPC    HX21253   5.911   2.225   6.814 -2.0072  2.4053  1.2937
  185SLPC    HY21254   6.063   2.303   6.790 -0.7694  0.4192  0.4929
  185SLPC   O3121255   5.984   2.302   6.994 -0.5016  0.1885  0.4532
  185SLPC   C3121256   6.081   2.381   7.047  0.3204 -0.3778 -0.3060
  185SLPC   O3221257   6.198   2.396   7.008  0.7694  0.3309 -0.4968
  185SLPC   C3221258   6.013   2.455   7.163  0.1485  0.1796 -0.7394
  185SLPC   H2X21259   5.912   2.408   7.166  1.4317 -2.6372  0.0887
  185SLPC   H2Y21260   5.999   2.561   7.136 -0.4197  0.2937 -0.0225
  185SLPC   C2321261   5.799   1.830   7.066  0.4046  0.9888 -0.1573
  185SLPC   H3R21262   5.718   1.759   7.037  1.7476 -0.8107  0.3577
  185SLPC   H3S21263   5.770   1.928   7.023  0.2283  0.5961 -0.9354
  185SLPC   C2421264   5.823   1.831   7.215  1.0909  0.1137  0.6372
  185SLPC   H4R21265   5.875   1.739   7.251 -0.2523 -0.0655  2.1428
  185SLPC   H4S21266   5.718   1.825   7.249  1.3425  0.4826  1.4862
  185SLPC   C2521267   5.884   1.955   7.268 -0.0388 -0.3483  0.0592
  185SLPC   H5R21268   5.825   2.044   7.238 -1.4934 -1.3275 -0.0292
  185SLPC   H5S21269   5.980   1.968   7.215  1.2893  0.6523  2.6325
  185SLPC   C2621270   5.916   1.959   7.420  0.2814  0.6584 -0.6720
  185SLPC   H6R21271   5.926   2.064   7.455 -0.4910  2.0239 -4.2925
  185SLPC   H6S21272   6.008   1.900   7.442 -0.9776 -0.1028  2.8923
  185SLPC   C2721273   5.797   1.908   7.504 -0.8418  0.3119  0.2017
  185SLPC   H7R21274   5.801   1.798   7.489  0.6300  0.4164 -0.1901
  185SLPC   H7S21275   5.698   1.932   7.459 -1.5740  0.4738  1.8687
  185SLPC   C2821276   5.797   1.943   7.648 -0.5384 -0.1982 -0.3117
  185SLPC   H8R21277   5.806   2.053   7.654  1.1971 -0.4048  1.8948
  185SLPC   H8S21278   5.892   1.906   7.694  0.1585  2.4499  0.4287
  185SLPC   C2921279   5.683   1.894   7.732  0.5987 -0.1020  0.3416
  185SLPC   H9R21280   5.594   1.878   7.669  0.0707 -0.3064  1.1333
  185SLPC  C21021281   5.685   1.855   7.858  0.2055 -0.4808  0.4096
  185SLPC  H10R21282   5.600   1.801   7.903 -0.0970 -0.2881  0.0702
  185SLPC  C21121283   5.795   1.866   7.969 -0.4736 -0.0527  0.7661
  185SLPC  H11R21284   5.883   1.919   7.926 -0.8080 -0.2901 -0.2275
  185SLPC  H11S21285   5.841   1.766   7.983  1.9392  0.6239 -1.7683
  185SLPC  C21221286   5.755   1.910   8.105 -1.5569  0.4561  0.6356
  185SLPC  H12R21287   5.774   1.843   8.190 -0.9020  1.2651  1.1327
  185SLPC  C21321288   5.716   2.032   8.140 -0.1164  0.1220  0.6005
  185SLPC  H13R21289   5.693   2.047   8.246 -0.2192 -0.6189  0.6878
  185SLPC  C21421290   5.701   2.153   8.051  0.1038 -0.0251 -0.5733
  185SLPC  H14R21291   5.719   2.135   7.943 -1.4143  2.9774 -1.3909
  185SLPC  H14S21292   5.766   2.241   8.071 -0.5633  0.5353 -0.8421
  185SLPC  C21521293   5.549   2.191   8.064 -0.1034 -0.8885 -0.1482
  185SLPC  H15R21294   5.473   2.110   8.067  0.5122 -1.4716 -0.2112
  185SLPC  H15S21295   5.519   2.265   7.986 -0.3833  2.1376  2.7359
  185SLPC  C21621296   5.515   2.261   8.201 -0.4345  0.0766  0.1848
  185SLPC  H16R21297   5.544   2.208   8.295  1.9317 -2.2816 -1.7712
  185SLPC  H16S21298   5.404   2.266   8.194 -0.4049 -0.6314 -0.9464
  185SLPC  C21721299   5.562   2.408   8.214 -0.2957  0.0717  0.2694
  185SLPC  H17R21300   5.536   2.468   8.124 -0.6347  1.7887  1.4740
  185SLPC  H17S21301   5.672   2.414   8.224 -0.2211 -0.4651 -0.2429
  185SLPC  C21821302   5.503   2.483   8.324 -0.3702 -0.0461 -0.4437
  185SLPC  H18R21303   5.573   2.563   8.357  0.3072 -0.7574 -0.1377
  185SLPC  H18S21304   5.463   2.423   8.409 -0.9559 -1.1920 -1.5139
  185SLPC  H18T21305   5.417   2.541   8.284 -0.8208  1.1566  2.1215
  185SLPC   C3321306   6.086   2.438   7.297  0.6574 -0.3351  1.0395
  185SLPC   H3X21307   6.031   2.498   7.372 -2.2632 -2.5771  0.7845
  185SLPC   H3Y21308   6.197   2.444   7.301  0.7011  1.8247 -1.6254
  185SLPC   C3421309   6.059   2.304   7.364  0.1510  0.0884  0.2879
  185SLPC   H4X21310   6.134   2.229   7.331 -3.7085 -3.1462 -1.5219
  185SLPC   H4Y21311   5.956   2.269   7.339 -0.1886 -0.2686  2.1104
  185SLPC   C3521312   6.066   2.316   7.516 -0.1650  0.0511 -0.0977
  185SLPC   H5X21313   6.041   2.219   7.565  0.7720 -0.1247  0.0337
  185SLPC   H5Y21314   5.990   2.387   7.554  3.0648  3.7219 -0.2844
  185SLPC   C3621315   6.188   2.385   7.574  0.2159 -0.4074 -0.1487
  185SLPC   H6X21316   6.183   2.490   7.536 -3.0862 -0.9066 -1.2757
  185SLPC   H6Y21317   6.277   2.330   7.536 -0.1738 -0.6054 -0.7804
  185SLPC   C3721318   6.197   2.375   7.722 -0.0942  0.5718  0.5319
  185SLPC   H7X21319   6.100   2.402   7.770  0.1731  0.0247  1.3710
  185SLPC   H7Y21320   6.263   2.453   7.767 -0.7670  1.3887  0.1256
  185SLPC   C3821321   6.266   2.250   7.784 -0.2575  0.2409 -0.0455
  185SLPC   H8X21322   6.366   2.211   7.755  0.0481  1.0063 -0.0293
  185SLPC   H8Y21323   6.185   2.176   7.768  0.3949 -0.5909  0.4993
  185SLPC   C3921324   6.269   2.262   7.941 -0.4862 -0.4850 -0.2261
  185SLPC   H9X21325   6.301   2.364   7.972 -2.9158 -0.0583  1.0227
  185SLPC   H9Y21326   6.339   2.195   7.994  1.3702  0.8897 -0.8970
  185SLPC  C31021327   6.137   2.212   8.004 -0.6261 -0.2984  0.6311
  185SLPC  H10X21328   6.115   2.106   7.976 -1.1613  0.2104 -0.8992
  185SLPC  H10Y21329   6.049   2.272   7.974  0.0412  1.2570  1.6952
  185SLPC  C31121330   6.128   2.243   8.145  0.2050 -0.0333 -0.9061
  185SLPC  H11X21331   6.134   2.353   8.163  1.7267 -0.6554  2.6541
  185SLPC  H11Y21332   6.215   2.205   8.202  0.2025 -0.5273 -1.2259
  185SLPC  C31221333   6.005   2.196   8.225  0.0410 -0.8758  0.6048
  185SLPC  H12X21334   5.985   2.098   8.176  1.4237 -0.4837 -0.7720
  185SLPC  H12Y21335   5.922   2.269   8.211  1.1871  0.8631  2.5676
  185SLPC  C31321336   6.023   2.195   8.378 -0.5152 -0.4387 -0.2888
  185SLPC  H13X21337   6.047   2.290   8.431  1.6710 -1.8875  1.3831
  185SLPC  H13Y21338   6.106   2.121   8.386  0.3259  0.2549 -2.3786
  185SLPC  C31421339   5.897   2.137   8.456 -0.2869  0.0605 -0.0169
  185SLPC  H14X21340   5.815   2.177   8.394 -1.0505 -0.4611  0.6503
  185SLPC  H14Y21341   5.885   2.175   8.560 -0.1990 -1.3048  0.5005
  185SLPC  C31521342   5.894   1.982   8.457  0.2497  1.3556  0.4789
  185SLPC  H15X21343   5.911   1.957   8.350  0.6680 -0.9838  1.0879
  185SLPC  H15Y21344   5.791   1.946   8.476  0.8189 -1.1256 -0.8929
  185SLPC  C31621345   6.000   1.910   8.542 -0.1227 -1.2928 -0.2260
  185SLPC  H16X21346   6.090   1.975   8.546 -2.1916  1.7185 -1.0577
  185SLPC  H16Y21347   6.037   1.817   8.493 -0.1426 -1.2873 -0.2515
  185SLPC  C31721348   5.968   1.890   8.689  0.1217  0.2114 -0.0942
  185SLPC  H17X21349   5.868   1.843   8.703 -0.2855  0.4783 -1.9942
  185SLPC  H17Y21350   5.957   1.989   8.737 -3.2652  0.8241 -1.9347
  185SLPC  C31821351   6.075   1.811   8.744 -0.5407  0.1274 -0.4131
  185SLPC  H18X21352   6.169   1.869   8.735  0.3545 -1.2117  0.1055
  185SLPC  H18Y21353   6.100   1.711   8.700  0.8841  0.2391  0.1236
  185SLPC  H18Z21354   6.057   1.790   8.851  0.7503 -0.3414 -0.2736
  186SLPC     N21355   6.715   5.424   5.918 -0.3971 -0.1277 -0.1862
  186SLPC   C1321356   6.723   5.456   5.775 -0.4069  0.3606  0.1975
  186SLPC  H13A21357   6.679   5.552   5.754 -2.3037 -0.5673 -0.2840
  186SLPC  H13B21358   6.823   5.473   5.738 -0.5223  0.5736 -0.0181
  186SLPC  H13C21359   6.664   5.381   5.723 -2.6388  1.5661  0.9319
  186SLPC   C1421360   6.578   5.374   5.949 -0.2121 -0.6894  0.1013
  186SLPC  H14A21361   6.547   5.294   5.884 -0.0986 -0.7716  0.1497
  186SLPC  H14B21362   6.568   5.339   6.051  0.1316 -2.2367 -0.3843
  186SLPC  H14C21363   6.511   5.459   5.953 -0.1628 -0.7423  2.9345
  186SLPC   C1521364   6.727   5.549   6.000 -0.5711 -0.3209 -0.4858
  186SLPC  H15A21365   6.736   5.507   6.099 -0.5926  1.8829  0.4839
  186SLPC  H15B21366   6.808   5.618   5.977 -2.0934  1.1688 -1.5627
  186SLPC  H15C21367   6.640   5.613   5.991  0.0233  0.5486 -0.1089
  186SLPC   C1221368   6.815   5.321   5.966 -0.4091  0.8152  0.0472
  186SLPC  H12A21369   6.917   5.348   5.942  0.7636 -1.5095  2.2106
  186SLPC  H12B21370   6.798   5.230   5.910  2.2091  0.6566 -0.5784
  186SLPC   C1121371   6.822   5.290   6.118  0.2073  0.4027  0.2202
  186SLPC  H11A21372   6.719   5.252   6.139  0.1312  0.7503  0.4955
  186SLPC  H11B21373   6.836   5.382   6.179  0.9085  0.7278 -0.4280
  186SLPC     P21374   7.067   5.220   6.140 -0.0441 -0.1496  0.0089
  186SLPC   O1321375   7.158   5.102   6.121  0.2728 -0.3241 -0.1208
  186SLPC   O1421376   7.084   5.336   6.048 -0.0779 -0.1625 -0.4803
  186SLPC   O1221377   6.920   5.183   6.134  0.3093 -0.1753 -0.4152
  186SLPC   O1121378   7.072   5.262   6.287 -0.0451  0.2907 -0.0826
  186SLPC    C121379   7.085   5.171   6.394 -1.1378  0.4106 -0.1938
  186SLPC    HA21380   7.082   5.228   6.490  0.6512  1.3869 -0.6965
  186SLPC    HB21381   7.003   5.096   6.396  0.7389 -1.7145  0.2743
  186SLPC    C221382   7.224   5.099   6.424  0.4813 -0.3432  0.1725
  186SLPC    HS21383   7.250   5.044   6.330 -0.3433  1.9285 -1.4366
  186SLPC   O2121384   7.226   5.008   6.539 -0.3005  0.7540  0.3855
  186SLPC   C2121385   7.150   4.905   6.529  0.5134 -0.2971 -0.9345
  186SLPC   O2221386   7.075   4.883   6.435 -0.6422  0.2648  0.2082
  186SLPC   C2221387   7.165   4.808   6.647  0.0040  0.0844 -1.1430
  186SLPC   H2R21388   7.085   4.731   6.646  2.1388 -2.2207 -1.4051
  186SLPC   H2S21389   7.263   4.756   6.637 -0.4925 -1.4130  1.2996
  186SLPC    C321390   7.332   5.208   6.445 -0.1844 -0.0488 -0.1361
  186SLPC    HX21391   7.369   5.233   6.343 -1.7650  0.5906 -0.5713
  186SLPC    HY21392   7.420   5.163   6.495 -0.3153  1.0534  1.1300
  186SLPC   O3121393   7.292   5.330   6.519  0.1257  0.5045 -0.0626
  186SLPC   C3121394   7.316   5.338   6.651  0.2049 -0.1682  0.3321
  186SLPC   O3221395   7.381   5.253   6.711  0.5117  0.5491 -0.0358
  186SLPC   C3221396   7.249   5.460   6.713 -0.3484 -0.0227 -0.1198
  186SLPC   H2X21397   7.158   5.489   6.657 -0.9474 -0.4554  0.6217
  186SLPC   H2Y21398   7.327   5.539   6.712  0.6458 -0.9748  0.2675
  186SLPC   C2321399   7.169   4.880   6.788  0.6084 -0.3327 -0.1871
  186SLPC   H3R21400   7.062   4.909   6.799  0.0292 -2.3476 -0.3752
  186SLPC   H3S21401   7.229   4.974   6.791  0.5071 -0.2532 -0.6381
  186SLPC   C2421402   7.197   4.783   6.904  0.3668 -0.0842 -0.2404
  186SLPC   H4R21403   7.304   4.754   6.906  0.2585 -0.4155  0.8714
  186SLPC   H4S21404   7.139   4.691   6.878  0.4388 -0.2922  0.3419
  186SLPC   C2521405   7.166   4.835   7.050 -0.0222 -0.0332  0.1798
  186SLPC   H5R21406   7.071   4.892   7.049  1.5274  2.6802 -3.7008
  186SLPC   H5S21407   7.249   4.900   7.083 -0.7434  1.0276 -0.0859
  186SLPC   C2621408   7.163   4.728   7.155  0.2663 -0.2831  0.0009
  186SLPC   H6R21409   7.261   4.676   7.164  0.4999 -0.2360 -2.1311
  186SLPC   H6S21410   7.085   4.653   7.127 -1.7680  1.4420  0.8857
  186SLPC   C2721411   7.120   4.779   7.293  0.4611  0.0940  0.1968
  186SLPC   H7R21412   7.077   4.692   7.346  2.0707 -0.3104  0.8567
  186SLPC   H7S21413   7.044   4.857   7.271  1.1343  0.8414  0.4838
  186SLPC   C2821414   7.235   4.833   7.386  0.0887  0.2303  0.0938
  186SLPC   H8R21415   7.180   4.882   7.469 -2.0820  1.2788 -1.9078
  186SLPC   H8S21416   7.281   4.919   7.332 -3.6942  2.5486  0.4239
  186SLPC   C2921417   7.346   4.742   7.435  0.2507 -0.4197  0.5710
  186SLPC   H9R21418   7.432   4.726   7.368  1.3530 -0.6651  2.0187
  186SLPC  C21021419   7.349   4.678   7.553  0.2654  0.2718 -0.2104
  186SLPC  H10R21420   7.428   4.605   7.579 -0.0732 -0.5888 -1.5385
  186SLPC  C21121421   7.234   4.684   7.653 -0.3252 -0.0820  0.5887
  186SLPC  H11R21422   7.137   4.714   7.608  0.1383  0.5409 -0.0177
  186SLPC  H11S21423   7.250   4.770   7.722  0.3494 -0.6506  1.1455
  186SLPC  C21221424   7.224   4.558   7.727 -0.1505 -0.4621  0.1527
  186SLPC  H12R21425   7.154   4.481   7.690 -2.2627 -0.3906  3.8097
  186SLPC  C21321426   7.299   4.529   7.833 -0.2557 -0.0891  0.0803
  186SLPC  H13R21427   7.280   4.430   7.876  1.3428 -0.0066  1.0177
  186SLPC  C21421428   7.399   4.624   7.899  0.3543  0.3211 -0.2480
  186SLPC  H14R21429   7.366   4.651   8.002 -1.2219 -1.5682 -0.2205
  186SLPC  H14S21430   7.410   4.719   7.843  0.4814 -1.1132 -2.7379
  186SLPC  C21521431   7.544   4.564   7.918  0.7632 -0.3662 -0.0716
  186SLPC  H15R21432   7.602   4.653   7.952 -1.1264  1.0294 -0.4161
  186SLPC  H15S21433   7.589   4.533   7.822 -1.6455 -1.8020 -0.7769
  186SLPC  C21621434   7.543   4.437   8.013 -0.1274 -0.7213  0.1779
  186SLPC  H16R21435   7.512   4.356   7.943  0.1577 -0.1601 -0.6048
  186SLPC  H16S21436   7.466   4.460   8.090 -1.0816  1.1223 -1.2989
  186SLPC  C21721437   7.678   4.419   8.085 -0.0795 -0.1446 -0.2861
  186SLPC  H17R21438   7.722   4.505   8.140 -0.2856 -0.5330  0.5076
  186SLPC  H17S21439   7.748   4.409   8.000  1.4274  0.8813  0.8010
  186SLPC  C21821440   7.681   4.292   8.180 -0.3660 -0.5512  0.3967
  186SLPC  H18R21441   7.662   4.201   8.119  2.1484 -0.5256 -0.4988
  186SLPC  H18S21442   7.604   4.286   8.260  0.4090 -1.4883  1.0881
  186SLPC  H18T21443   7.784   4.270   8.217 -1.2111 -0.6086  2.8239
  186SLPC   C3321444   7.217   5.427   6.862  0.4429  0.4932 -0.2770
  186SLPC   H3X21445   7.190   5.522   6.912 -1.5600  0.1144 -0.5961
  186SLPC   H3Y21446   7.306   5.384   6.913  0.2967 -1.7673 -1.8338
  186SLPC   C3421447   7.090   5.339   6.868  0.3298 -0.1544  0.4295
  186SLPC   H4X21448   7.116   5.236   6.836 -0.1729 -0.1504 -0.0102
  186SLPC   H4Y21449   7.012   5.368   6.794  1.4499 -0.0369 -0.7224
  186SLPC   C3521450   7.034   5.340   7.013  0.6204 -0.4032 -0.3233
  186SLPC   H5X21451   6.957   5.263   7.030 -0.8967  0.6758 -2.1615
  186SLPC   H5Y21452   6.995   5.444   7.022 -1.2525 -0.9619 -1.9392
  186SLPC   C3621453   7.135   5.299   7.124 -0.1937 -0.1492  0.1182
  186SLPC   H6X21454   7.212   5.378   7.136  0.5226 -0.9614  0.9319
  186SLPC   H6Y21455   7.190   5.207   7.095 -2.7792 -1.6612 -0.1770
  186SLPC   C3721456   7.074   5.261   7.255  0.3639  0.0508 -0.4104
  186SLPC   H7X21457   7.002   5.177   7.247 -1.1413  1.1713  1.0001
  186SLPC   H7Y21458   7.015   5.349   7.290  0.9312 -0.2541  1.3433
  186SLPC   C3821459   7.173   5.231   7.363 -0.2065  0.2191  0.2881
  186SLPC   H8X21460   7.216   5.326   7.402  2.5162 -1.7793  2.3778
  186SLPC   H8Y21461   7.265   5.184   7.323 -0.3929  1.1119 -1.2539
  186SLPC   C3921462   7.115   5.156   7.482 -0.1634 -0.0178 -0.3617
  186SLPC   H9X21463   7.075   5.059   7.448 -0.8671  1.2332 -3.3054
  186SLPC   H9Y21464   7.031   5.225   7.507  0.2131 -0.3769  1.9562
  186SLPC  C31021465   7.201   5.163   7.607 -0.1726 -0.0828  0.3519
  186SLPC  H10X21466   7.237   5.268   7.618 -2.2240  0.8043 -1.2269
  186SLPC  H10Y21467   7.292   5.102   7.587 -1.0009 -0.3045 -2.9902
  186SLPC  C31121468   7.124   5.100   7.723  1.3005 -0.2511 -0.3170
  186SLPC  H11X21469   7.081   5.003   7.690  0.5643 -0.4816  1.2240
  186SLPC  H11Y21470   7.035   5.164   7.744  1.7793  0.6388 -1.0180
  186SLPC  C31221471   7.205   5.081   7.853 -0.6915 -0.2434  0.6175
  186SLPC  H12X21472   7.236   5.179   7.895 -0.6115  0.1306 -0.3062
  186SLPC  H12Y21473   7.300   5.033   7.822 -1.0159 -0.0206 -0.7943
  186SLPC  C31321474   7.142   4.989   7.954  0.2742  0.5303 -0.8521
  186SLPC  H13X21475   7.113   4.890   7.913  0.5850  0.0755  0.0113
  186SLPC  H13Y21476   7.049   5.042   7.983 -1.0508 -1.3611 -1.5824
  186SLPC  C31421477   7.230   4.967   8.077  0.7123 -0.5567  0.1009
  186SLPC  H14X21478   7.269   5.064   8.114 -0.8405 -0.9005  2.8310
  186SLPC  H14Y21479   7.316   4.905   8.046  1.8043  1.2126 -0.4635
  186SLPC  C31521480   7.150   4.906   8.193  0.2435 -0.5098 -0.1385
  186SLPC  H15X21481   7.103   4.812   8.156 -0.0466  0.1704 -1.5235
  186SLPC  H15Y21482   7.064   4.974   8.208 -0.6508 -1.2776 -1.6752
  186SLPC  C31621483   7.231   4.871   8.311  0.1873 -0.2133 -0.4603
  186SLPC  H16X21484   7.163   4.843   8.395  2.0884  0.6521  1.4261
  186SLPC  H16Y21485   7.298   4.955   8.339  0.6058 -0.6765 -0.0509
  186SLPC  C31721486   7.314   4.744   8.303  0.1371  0.9390  0.0865
  186SLPC  H17X21487   7.403   4.742   8.237  2.3713 -0.1128  3.0164
  186SLPC  H17Y21488   7.248   4.659   8.274  1.4576 -0.1533  0.2675
  186SLPC  C31821489   7.370   4.701   8.437  0.8588  0.0242 -0.5064
  186SLPC  H18X21490   7.465   4.757   8.449  2.5888 -2.7426 -0.9452
  186SLPC  H18Y21491   7.402   4.595   8.445 -0.3142 -0.1076  3.2918
  186SLPC  H18Z21492   7.300   4.724   8.520  1.1737  0.0124 -0.2393
  187SLPC     N21493   0.550   1.063   6.124 -0.9714  0.0553  0.1266
  187SLPC   C1321494   0.515   1.113   5.981 -0.1484 -0.3582 -0.1240
  187SLPC  H13A21495   0.560   1.044   5.911  1.7717  2.2434 -1.5118
  187SLPC  H13B21496   0.407   1.111   5.970  0.1403 -2.8460 -3.3139
  187SLPC  H13C21497   0.542   1.217   5.973  1.4990 -0.7161  0.6761
  187SLPC   C1421498   0.696   1.066   6.137 -1.1772 -0.5153 -0.1697
  187SLPC  H14A21499   0.731   0.983   6.076 -0.8129 -0.9521  0.6348
  187SLPC  H14B21500   0.742   1.156   6.099 -1.7414  0.4421  1.4091
  187SLPC  H14C21501   0.726   1.043   6.238 -1.7279  2.4009  0.6929
  187SLPC   C1521502   0.496   0.927   6.131 -0.5603  0.1096 -0.3325
  187SLPC  H15A21503   0.517   0.888   6.229 -0.3005 -0.2042 -0.5124
  187SLPC  H15B21504   0.391   0.913   6.115 -0.8730  0.6475  1.2077
  187SLPC  H15C21505   0.547   0.868   6.056 -3.5984 -0.6804 -1.8398
  187SLPC   C1221506   0.487   1.163   6.225  0.0672  0.6533 -0.1882
  187SLPC  H12A21507   0.382   1.171   6.199 -0.5263 -3.6179  0.5528
  187SLPC  H12B21508   0.538   1.258   6.218  0.3911  0.5020  0.1305
  187SLPC   C1121509   0.491   1.124   6.374 -0.1352 -0.4533 -0.5127
  187SLPC  H11A21510   0.437   1.031   6.399  1.1081 -0.7014  1.3614
  187SLPC  H11B21511   0.433   1.206   6.423 -0.5902 -1.7482  1.1535
  187SLPC     P21512   0.719   1.239   6.437  0.1071  0.0148  0.0311
  187SLPC   O1321513   0.864   1.211   6.437  0.3343  0.6024  0.7271
  187SLPC   O1421514   0.680   1.341   6.334  0.2315 -0.1360  0.1337
  187SLPC   O1221515   0.623   1.117   6.431 -0.2154 -0.1956 -0.0477
  187SLPC   O1121516   0.677   1.304   6.574 -0.1099 -0.0377  0.1878
  187SLPC    C121517   0.553   1.306   6.643  0.3755  1.0695 -0.2930
  187SLPC    HA21518   0.488   1.363   6.573 -0.5049 -2.2380 -2.2696
  187SLPC    HB21519   0.519   1.200   6.633  0.1295  1.2041 -0.9329
  187SLPC    C221520   0.581   1.342   6.789 -0.4617  0.1582 -0.2978
  187SLPC    HS21521   0.492   1.325   6.853 -0.9620  2.3491 -0.3997
  187SLPC   O2121522   0.614   1.477   6.802 -0.5916 -0.1975  0.5849
  187SLPC   C2121523   0.525   1.574   6.761 -0.3152  0.3623 -0.4703
  187SLPC   O2221524   0.413   1.552   6.718 -0.4303 -0.2172 -0.0071
  187SLPC   C2221525   0.594   1.705   6.767 -0.6796 -0.3327  0.6875
  187SLPC   H2R21526   0.640   1.721   6.667  1.4061 -4.3503  0.8606
  187SLPC   H2S21527   0.527   1.789   6.795  0.9618  0.9217  0.9216
  187SLPC    C321528   0.696   1.254   6.847 -1.0072 -0.0891  0.0227
  187SLPC    HX21529   0.783   1.282   6.784 -1.4075 -0.2420 -0.5983
  187SLPC    HY21530   0.662   1.150   6.825  0.1056 -0.7100  1.1328
  187SLPC   O3121531   0.717   1.272   6.991 -0.1213  0.8213 -0.0102
  187SLPC   C3121532   0.831   1.219   7.037  0.1656  0.3492  0.5543
  187SLPC   O3221533   0.891   1.133   6.972  0.1720  0.4846 -0.2913
  187SLPC   C3221534   0.860   1.267   7.170 -0.4131  0.4156 -0.0415
  187SLPC   H2X21535   0.944   1.214   7.220 -2.5494 -1.7216  1.4013
  187SLPC   H2Y21536   0.768   1.247   7.230 -0.6112 -0.9549 -0.7750
  187SLPC   C2321537   0.714   1.711   6.870  0.3648 -0.4214 -0.6251
  187SLPC   H3R21538   0.778   1.801   6.859  0.2074 -0.2697 -0.3038
  187SLPC   H3S21539   0.778   1.623   6.849  0.8042 -0.1750 -0.3006
  187SLPC   C2421540   0.673   1.695   7.018 -0.7307 -0.5754  0.0026
  187SLPC   H4R21541   0.765   1.676   7.077  0.4887  1.0051 -1.3751
  187SLPC   H4S21542   0.602   1.609   7.020  1.5460 -2.5589 -1.1498
  187SLPC   C2521543   0.592   1.805   7.088 -0.5089  0.4103 -0.1148
  187SLPC   H5R21544   0.491   1.811   7.043 -1.2327 -1.3318  1.2496
  187SLPC   H5S21545   0.644   1.902   7.068  0.2195  0.0959  0.2294
  187SLPC   C2621546   0.573   1.814   7.241 -0.5800  0.5032 -0.3259
  187SLPC   H6R21547   0.550   1.716   7.286  1.3160 -1.1249 -2.7618
  187SLPC   H6S21548   0.489   1.883   7.262 -1.4581 -0.7827  0.4284
  187SLPC   C2721549   0.695   1.880   7.314  0.5452 -0.4516  0.6051
  187SLPC   H7R21550   0.712   1.982   7.275 -1.1835 -0.1221  0.6841
  187SLPC   H7S21551   0.772   1.800   7.308  0.0297 -0.9198  0.0525
  187SLPC   C2821552   0.655   1.903   7.466  0.4225  0.0609 -0.6306
  187SLPC   H8R21553   0.600   1.817   7.510 -0.0857  0.3763 -0.6534
  187SLPC   H8S21554   0.586   1.989   7.480 -1.5896 -0.6272 -5.3240
  187SLPC   C2921555   0.789   1.922   7.540  0.3924  0.2437 -0.2834
  187SLPC   H9R21556   0.869   1.981   7.493  1.0684  0.9111  1.6704
  187SLPC  C21021557   0.802   1.888   7.672 -0.4407 -0.4827 -0.1402
  187SLPC  H10R21558   0.889   1.932   7.722 -0.2884 -1.4332  0.4391
  187SLPC  C21121559   0.702   1.821   7.767  0.1225  0.0097  0.8154
  187SLPC  H11R21560   0.738   1.728   7.817 -0.3085  0.2664  1.6153
  187SLPC  H11S21561   0.627   1.776   7.699  0.5169 -0.3115  0.5834
  187SLPC  C21221562   0.631   1.911   7.861  0.1903  0.8077 -0.0626
  187SLPC  H12R21563   0.597   2.007   7.818 -0.8376  0.1724 -0.7018
  187SLPC  C21321564   0.612   1.897   7.992 -0.3527  0.1026 -0.2734
  187SLPC  H13R21565   0.545   1.974   8.034  0.1353 -0.2050  1.0990
  187SLPC  C21421566   0.652   1.773   8.071 -0.0290 -0.0295  0.2018
  187SLPC  H14R21567   0.716   1.800   8.157 -1.1881  0.0534  1.0573
  187SLPC  H14S21568   0.708   1.700   8.010 -0.4691 -0.1544 -0.0576
  187SLPC  C21521569   0.525   1.691   8.124  0.7917 -0.7770  0.4743
  187SLPC  H15R21570   0.562   1.594   8.164  0.9113 -1.7046 -1.8144
  187SLPC  H15S21571   0.465   1.677   8.032 -0.6881 -0.6814  1.4168
  187SLPC  C21621572   0.424   1.751   8.216 -0.2282 -0.2638 -0.1946
  187SLPC  H16R21573   0.330   1.692   8.220  0.4437 -1.2454  2.8741
  187SLPC  H16S21574   0.396   1.852   8.180  0.0996  0.4488  1.5022
  187SLPC  C21721575   0.476   1.754   8.359 -0.1446 -0.4222  0.7800
  187SLPC  H17R21576   0.564   1.821   8.360 -0.9459  0.6807 -0.5000
  187SLPC  H17S21577   0.513   1.653   8.387  1.1575 -0.4292 -0.8893
  187SLPC  C21821578   0.380   1.808   8.467 -0.2733 -0.0667  0.7278
  187SLPC  H18R21579   0.346   1.910   8.438  3.8709  1.2631  0.1534
  187SLPC  H18S21580   0.423   1.801   8.570  0.9315 -1.2447  0.1617
  187SLPC  H18T21581   0.285   1.751   8.462 -0.5657  0.6306 -2.9348
  187SLPC   C3321582   0.893   1.411   7.184  0.3310  0.3415 -0.5546
  187SLPC   H3X21583   0.808   1.471   7.146  0.2245 -0.0308 -0.9111
  187SLPC   H3Y21584   0.983   1.441   7.125  0.4910  1.8225  0.4465
  187SLPC   C3421585   0.918   1.444   7.336  0.5294 -0.8877  0.7549
  187SLPC   H4X21586   0.987   1.531   7.345  0.5871 -0.7697 -0.6546
  187SLPC   H4Y21587   0.973   1.360   7.383  0.8810 -0.6392  0.7982
  187SLPC   C3521588   0.788   1.492   7.400  0.1745  0.1951  0.2860
  187SLPC   H5X21589   0.710   1.415   7.379 -1.1430  1.9791 -1.5772
  187SLPC   H5Y21590   0.750   1.583   7.348  2.4259  0.8391 -0.2913
  187SLPC   C3621591   0.800   1.525   7.553 -0.3161 -0.0264  0.6951
  187SLPC   H6X21592   0.713   1.587   7.583 -0.4968  1.4919 -2.8442
  187SLPC   H6Y21593   0.887   1.593   7.563 -0.9636  0.9881 -0.5840
  187SLPC   C3721594   0.832   1.398   7.631 -0.1175 -0.4323  0.1528
  187SLPC   H7X21595   0.768   1.313   7.599 -0.1468 -0.9733  1.6043
  187SLPC   H7Y21596   0.940   1.377   7.616  0.2482 -0.3763  2.5252
  187SLPC   C3821597   0.828   1.419   7.776  0.2782  0.3271  0.4442
  187SLPC   H8X21598   0.725   1.452   7.802  0.0618 -1.9378  2.7203
  187SLPC   H8Y21599   0.904   1.492   7.812  1.6611 -0.7455 -0.2089
  187SLPC   C3921600   0.844   1.279   7.835 -0.0969 -0.1726 -0.2177
  187SLPC   H9X21601   0.943   1.236   7.809 -0.0970 -0.6305  0.5288
  187SLPC   H9Y21602   0.758   1.216   7.802 -0.8053 -0.0124  1.2664
  187SLPC  C31021603   0.846   1.293   7.989 -0.3742 -0.3775  0.2026
  187SLPC  H10X21604   0.917   1.374   8.017  0.1671 -0.6170 -0.4651
  187SLPC  H10Y21605   0.890   1.204   8.038  1.2203  0.0070 -0.4960
  187SLPC  C31121606   0.715   1.310   8.057 -0.1579  0.5367  0.2644
  187SLPC  H11X21607   0.641   1.234   8.024  1.0858 -1.1102  1.1586
  187SLPC  H11Y21608   0.674   1.410   8.030 -1.1838 -0.1327 -0.6888
  187SLPC  C31221609   0.721   1.314   8.213  0.5575 -0.2016 -0.8961
  187SLPC  H12X21610   0.749   1.211   8.246  2.5658  0.8510  0.7624
  187SLPC  H12Y21611   0.614   1.332   8.238  0.3503 -0.0310 -1.9056
  187SLPC  C31321612   0.800   1.427   8.278 -0.3994  0.1913 -0.6632
  187SLPC  H13X21613   0.780   1.518   8.218 -2.4769 -0.7325 -1.4382
  187SLPC  H13Y21614   0.909   1.404   8.270 -0.3527  0.8951 -2.1846
  187SLPC  C31421615   0.763   1.434   8.424 -0.0668 -0.0327 -0.3463
  187SLPC  H14X21616   0.830   1.359   8.469 -1.2324 -1.4107 -0.8756
  187SLPC  H14Y21617   0.654   1.419   8.434 -0.4040  2.1175 -0.3903
  187SLPC  C31521618   0.814   1.567   8.492 -0.0703  0.0815  0.3001
  187SLPC  H15X21619   0.758   1.656   8.457  1.0919  0.2571 -1.1431
  187SLPC  H15Y21620   0.920   1.588   8.466 -0.6547 -0.5293 -2.7391
  187SLPC  C31621621   0.796   1.559   8.641  0.4190 -0.2210 -0.4191
  187SLPC  H16X21622   0.855   1.641   8.686  1.8277 -0.3731 -1.9666
  187SLPC  H16Y21623   0.839   1.469   8.691  0.9357 -0.5471 -1.4335
  187SLPC  C31721624   0.649   1.567   8.691 -0.3760  0.3683  0.7184
  187SLPC  H17X21625   0.599   1.468   8.692  0.8494 -0.2464  1.7368
  187SLPC  H17Y21626   0.593   1.624   8.614 -0.2212  0.9706  1.0523
  187SLPC  C31821627   0.642   1.636   8.827 -0.4668  0.4917 -0.2248
  187SLPC  H18X21628   0.538   1.664   8.853 -0.6506 -2.2176  2.2178
  187SLPC  H18Y21629   0.705   1.727   8.833  1.7566 -1.1211  1.8209
  187SLPC  H18Z21630   0.684   1.565   8.902  1.2510  0.6032 -1.0565
  188SLPC     N21631   2.243   2.954   6.155  0.5305  0.5429  0.1374
  188SLPC   C1321632   2.357   2.931   6.063 -0.1840 -0.1614  0.0144
  188SLPC  H13A21633   2.351   3.011   5.991 -1.5301  1.0277  1.4130
  188SLPC  H13B21634   2.454   2.943   6.109 -0.9516  3.2507  0.8480
  188SLPC  H13C21635   2.353   2.835   6.015  0.3379 -2.1701  3.7416
  188SLPC   C1421636   2.248   2.854   6.267  0.4280  0.3540 -1.0397
  188SLPC  H14A21637   2.254   2.749   6.243  0.8024 -0.3427  1.9151
  188SLPC  H14B21638   2.330   2.887   6.329  0.0148 -2.3013  0.9951
  188SLPC  H14C21639   2.161   2.862   6.330  1.4565  2.0100  0.2226
  188SLPC   C1521640   2.125   2.919   6.071 -0.0940  0.1253  0.1004
  188SLPC  H15A21641   2.030   2.947   6.114  0.0964  0.2569  0.4266
  188SLPC  H15B21642   2.145   2.970   5.978  0.9046 -0.6037 -0.0965
  188SLPC  H15C21643   2.124   2.814   6.044 -1.2077  0.3252 -0.6868
  188SLPC   C1221644   2.240   3.099   6.204  0.2917  0.6553  0.4504
  188SLPC  H12A21645   2.242   3.156   6.113  0.3770 -1.3142 -0.8063
  188SLPC  H12B21646   2.332   3.119   6.258  0.2968 -1.3895  1.2659
  188SLPC   C1121647   2.123   3.142   6.294  0.4644 -0.1372  0.5968
  188SLPC  H11A21648   2.027   3.140   6.239  2.4317 -1.5193 -2.9415
  188SLPC  H11B21649   2.145   3.248   6.318  3.3570 -0.7602  0.8544
  188SLPC     P21650   1.988   3.028   6.480  0.3412  0.1516 -0.4025
  188SLPC   O1321651   1.874   3.119   6.441 -0.3264  0.3148 -0.1036
  188SLPC   O1421652   1.965   2.880   6.473 -0.2581 -0.4405  0.2910
  188SLPC   O1221653   2.121   3.064   6.416  0.2560 -0.3648  0.7959
  188SLPC   O1121654   2.032   3.053   6.627  0.3307 -0.3860  0.1814
  188SLPC    C121655   2.020   3.171   6.705  0.0303  0.1233 -0.0358
  188SLPC    HA21656   2.119   3.176   6.755  0.8627 -0.8382 -1.5390
  188SLPC    HB21657   2.026   3.259   6.638  1.4151 -1.5804 -2.2298
  188SLPC    C221658   1.903   3.166   6.807 -0.5622  0.3167 -0.4284
  188SLPC    HS21659   1.822   3.231   6.769 -0.7315  0.2795 -0.1286
  188SLPC   O2121660   1.945   3.208   6.946 -0.1398  0.1434  0.0021
  188SLPC   C2121661   1.982   3.337   6.956 -0.2834  0.2252  1.0460
  188SLPC   O2221662   1.981   3.414   6.865  0.3453 -0.0650  0.1561
  188SLPC   C2221663   2.004   3.367   7.102 -0.3634 -0.0830 -0.5817
  188SLPC   H2R21664   1.914   3.328   7.153 -0.4919 -1.0839 -1.5378
  188SLPC   H2S21665   2.097   3.309   7.122  0.1965  1.3396  1.1073
  188SLPC    C321666   1.834   3.025   6.815  1.2134  0.7805 -0.1481
  188SLPC    HX21667   1.911   2.946   6.812 -0.2273 -0.6979  0.7973
  188SLPC    HY21668   1.774   3.013   6.722 -0.4024  1.4386  0.7902
  188SLPC   O3121669   1.771   3.010   6.946  0.1885  0.1028 -0.3315
  188SLPC   C3121670   1.650   3.058   6.954 -0.7300 -0.1223  0.2220
  188SLPC   O3221671   1.590   3.104   6.861 -0.1837 -0.0453 -0.6695
  188SLPC   C3221672   1.614   3.043   7.105  0.1650 -0.8219  0.5400
  188SLPC   H2X21673   1.631   3.142   7.153 -0.7262  0.8066 -2.4093
  188SLPC   H2Y21674   1.682   2.965   7.146  0.7890 -0.7702 -0.3836
  188SLPC   C2321675   2.023   3.516   7.133 -0.0269  0.0703 -0.2408
  188SLPC   H3R21676   1.933   3.569   7.095 -0.5489 -0.6028  0.0567
  188SLPC   H3S21677   2.108   3.567   7.082  0.6334 -0.5680  0.2196
  188SLPC   C2421678   2.013   3.552   7.285  0.8008 -0.4694  0.5307
  188SLPC   H4R21679   2.097   3.509   7.345  2.1261  0.8578 -0.3448
  188SLPC   H4S21680   1.920   3.507   7.326  1.4092 -2.0208  0.2376
  188SLPC   C2521681   2.008   3.700   7.311  0.1137  0.1009  0.4229
  188SLPC   H5R21682   1.914   3.746   7.276  0.8731  0.4283 -1.2378
  188SLPC   H5S21683   2.093   3.745   7.255 -0.8093  1.3756  0.0220
  188SLPC   C2621684   2.026   3.741   7.457 -0.3271 -0.2758 -0.5093
  188SLPC   H6R21685   2.061   3.845   7.444  0.3151 -0.5582 -1.0769
  188SLPC   H6S21686   2.119   3.698   7.501  1.2360  1.4070 -2.0754
  188SLPC   C2721687   1.906   3.706   7.547  0.5805  0.1096 -0.7453
  188SLPC   H7R21688   1.879   3.598   7.545 -1.6978  0.6015  0.7802
  188SLPC   H7S21689   1.809   3.746   7.511  0.3871  1.4978  1.1990
  188SLPC   C2821690   1.926   3.757   7.695 -0.8243 -0.1789  0.3744
  188SLPC   H8R21691   1.953   3.864   7.705 -1.2912 -0.0819  0.5759
  188SLPC   H8S21692   2.014   3.699   7.730  0.2362  0.8746 -0.5044
  188SLPC   C2921693   1.806   3.734   7.787  0.3746 -0.1291 -0.1648
  188SLPC   H9R21694   1.801   3.627   7.810 -0.7769 -0.1045 -0.2695
  188SLPC  C21021695   1.734   3.829   7.851 -0.1227 -0.3493 -0.1892
  188SLPC  H10R21696   1.656   3.805   7.924 -0.5468 -1.6288 -1.0300
  188SLPC  C21121697   1.767   3.975   7.836 -0.1067 -0.2171  0.4816
  188SLPC  H11R21698   1.794   3.997   7.730  0.8322  0.8079  0.9263
  188SLPC  H11S21699   1.860   3.996   7.893 -1.1177  1.3669  1.5606
  188SLPC  C21221700   1.651   4.054   7.901 -0.0868 -0.3397 -0.0892
  188SLPC  H12R21701   1.569   4.000   7.950 -0.4325  0.9219  0.7317
  188SLPC  C21321702   1.629   4.185   7.885 -0.8408 -0.6041  0.5729
  188SLPC  H13R21703   1.546   4.230   7.942  0.1174 -0.5057  1.8879
  188SLPC  C21421704   1.718   4.283   7.803  0.0601  0.0517 -0.5345
  188SLPC  H14R21705   1.822   4.244   7.795  0.6303  1.6748 -1.1434
  188SLPC  H14S21706   1.733   4.381   7.854 -1.3149 -0.2683  0.5358
  188SLPC  C21521707   1.674   4.318   7.665  0.1865 -0.0063  0.1812
  188SLPC  H15R21708   1.567   4.346   7.662  0.3687  0.6690 -0.1723
  188SLPC  H15S21709   1.690   4.230   7.600  0.2235 -0.0044  0.1875
  188SLPC  C21621710   1.750   4.446   7.603  0.4895 -0.2783  0.3346
  188SLPC  H16R21711   1.856   4.414   7.611 -0.0794 -1.9071  2.0644
  188SLPC  H16S21712   1.730   4.532   7.671  0.6789  0.5172 -0.6127
  188SLPC  C21721713   1.705   4.483   7.458 -0.5001 -0.3277  0.5117
  188SLPC  H17R21714   1.596   4.504   7.451 -0.6923 -1.7533 -1.2315
  188SLPC  H17S21715   1.725   4.388   7.403  0.4548 -0.9621  1.8973
  188SLPC  C21821716   1.778   4.602   7.388 -0.8337 -0.0087  0.0857
  188SLPC  H18R21717   1.887   4.584   7.401 -0.9609 -0.5643  0.3940
  188SLPC  H18S21718   1.741   4.696   7.434 -1.9488 -1.2254  1.7526
  188SLPC  H18T21719   1.749   4.604   7.281 -1.2204 -3.8988  0.0609
  188SLPC   C3321720   1.465   3.011   7.124  0.3382  0.1554  0.1517
  188SLPC   H3X21721   1.434   2.943   7.042 -0.1302  0.9106 -0.2921
  188SLPC   H3Y21722   1.411   3.103   7.095 -1.8447 -0.7639  1.1854
  188SLPC   C3421723   1.420   2.968   7.264 -0.0345 -0.5279 -0.0586
  188SLPC   H4X21724   1.434   3.056   7.331 -0.1388  0.9379 -1.8911
  188SLPC   H4Y21725   1.481   2.881   7.295  1.0252 -0.1641 -1.0816
  188SLPC   C3521726   1.270   2.927   7.268 -0.9324 -0.1688  0.0738
  188SLPC   H5X21727   1.260   2.829   7.215 -0.5025  0.3266 -0.9445
  188SLPC   H5Y21728   1.211   3.001   7.210  0.2108 -0.6205 -1.7049
  188SLPC   C3621729   1.203   2.923   7.406  0.2778 -0.2176  0.0142
  188SLPC   H6X21730   1.097   2.891   7.395 -0.2354  0.4285  2.7118
  188SLPC   H6Y21731   1.218   3.024   7.448 -1.3730  0.7030 -1.5635
  188SLPC   C3721732   1.261   2.812   7.502 -1.5426 -0.0835  0.0136
  188SLPC   H7X21733   1.358   2.852   7.537 -2.0321  1.3412 -0.2277
  188SLPC   H7Y21734   1.277   2.722   7.439 -1.2074 -0.5069  0.6969
  188SLPC   C3821735   1.170   2.795   7.633  0.1245 -0.0406  0.2987
  188SLPC   H8X21736   1.071   2.749   7.612  0.3561 -0.4199  0.0394
  188SLPC   H8Y21737   1.146   2.895   7.676 -1.5212  0.6863 -2.2018
  188SLPC   C3921738   1.241   2.725   7.742  0.2033  0.2630 -0.7802
  188SLPC   H9X21739   1.336   2.781   7.755 -0.4349  0.4772  3.8607
  188SLPC   H9Y21740   1.275   2.626   7.705  0.7926  0.4484 -0.7450
  188SLPC  C31021741   1.159   2.732   7.878  0.5386 -0.5911  0.4284
  188SLPC  H10X21742   1.067   2.677   7.846  1.1470 -0.3998 -1.7226
  188SLPC  H10Y21743   1.134   2.838   7.900 -0.2974 -0.6196 -0.3195
  188SLPC  C31121744   1.221   2.663   7.994  0.1837  0.2169 -0.2098
  188SLPC  H11X21745   1.318   2.713   8.016 -0.5261  1.1706  0.7853
  188SLPC  H11Y21746   1.229   2.559   7.957  0.8191 -0.3587  1.4843
  188SLPC  C31221747   1.132   2.632   8.118  0.4096 -0.3180  0.0240
  188SLPC  H12X21748   1.193   2.559   8.175 -0.7281  0.5281  2.3918
  188SLPC  H12Y21749   1.038   2.574   8.105 -1.6383  2.1448  2.7213
  188SLPC  C31321750   1.088   2.753   8.206  0.0546 -0.3989 -0.5439
  188SLPC  H13X21751   1.044   2.833   8.142  1.2497  0.1124 -0.7295
  188SLPC  H13Y21752   1.173   2.789   8.267 -0.4285  0.2873 -0.2618
  188SLPC  C31421753   0.977   2.728   8.307 -0.4522 -0.3440  0.3975
  188SLPC  H14X21754   0.881   2.688   8.269 -0.5552  0.3646 -0.0942
  188SLPC  H14Y21755   0.953   2.832   8.340 -0.0831 -0.8067  2.1734
  188SLPC  C31521756   1.017   2.634   8.416  0.3663 -0.0859 -0.5154
  188SLPC  H15X21757   1.091   2.680   8.486  1.6279  2.4220 -3.3945
  188SLPC  H15Y21758   1.059   2.539   8.376  1.6589 -0.0716  0.7436
  188SLPC  C31621759   0.902   2.597   8.517 -0.2408 -0.5015 -0.2303
  188SLPC  H16X21760   0.816   2.573   8.451  1.1957 -0.4398 -2.1735
  188SLPC  H16Y21761   0.872   2.686   8.576  0.9768  1.0220 -1.8485
  188SLPC  C31721762   0.926   2.477   8.604 -0.0051 -0.4065  0.5023
  188SLPC  H17X21763   0.942   2.395   8.531  0.1820 -2.3941  2.7046
  188SLPC  H17Y21764   0.832   2.442   8.652 -0.8573  0.4853 -0.5229
  188SLPC  C31821765   1.048   2.501   8.694  1.0705  0.6003 -0.5311
  188SLPC  H18X21766   1.059   2.420   8.768 -1.7500 -0.1018 -0.8254
  188SLPC  H18Y21767   1.049   2.602   8.741 -0.1749  0.2987  0.1632
  188SLPC  H18Z21768   1.137   2.509   8.627  0.7383  0.9406 -0.9404
  189SLPC     N21769   3.871   5.530   6.262 -0.7814 -0.2707 -0.1297
  189SLPC   C1321770   3.797   5.650   6.299 -0.4551 -0.4419 -0.0852
  189SLPC  H13A21771   3.700   5.632   6.255  0.5373 -0.2148 -2.4280
  189SLPC  H13B21772   3.781   5.645   6.406 -1.0485 -4.4526 -0.2854
  189SLPC  H13C21773   3.828   5.745   6.258 -3.1871  1.0351  1.1639
  189SLPC   C1421774   3.991   5.518   6.351 -0.8295  0.3251  0.0812
  189SLPC  H14A21775   3.965   5.512   6.455  0.8374  1.9346  0.6275
  189SLPC  H14B21776   4.041   5.424   6.331  1.2383  1.7119 -1.4980
  189SLPC  H14C21777   4.073   5.587   6.336  1.2010 -1.4846  2.2708
  189SLPC   C1521778   3.919   5.532   6.120 -0.3759  0.4474  0.1366
  189SLPC  H15A21779   4.008   5.591   6.104 -1.4102  1.7302 -1.0358
  189SLPC  H15B21780   3.948   5.433   6.090 -0.9080  0.2133  0.3883
  189SLPC  H15C21781   3.845   5.566   6.050  0.4443  0.6983 -0.6158
  189SLPC   C1221782   3.789   5.400   6.284 -0.7175 -0.7160  0.0315
  189SLPC  H12A21783   3.689   5.407   6.244 -0.5802 -3.6267 -0.8794
  189SLPC  H12B21784   3.777   5.402   6.391  0.1878  1.4254  0.1257
  189SLPC   C1121785   3.853   5.267   6.234 -0.9971  0.3446  0.4863
  189SLPC  H11A21786   3.872   5.270   6.125  0.2049  0.1087  0.6889
  189SLPC  H11B21787   3.779   5.184   6.246 -1.3101  0.6423  0.6320
  189SLPC     P21788   4.056   5.103   6.285 -0.1269 -0.1499 -0.0311
  189SLPC   O1321789   3.966   4.990   6.246  0.3045 -0.3873  0.7877
  189SLPC   O1421790   4.172   5.115   6.194 -0.8625 -0.0363  0.0653
  189SLPC   O1221791   3.982   5.239   6.300 -0.2243 -0.0776  0.0334
  189SLPC   O1121792   4.107   5.083   6.432  0.7196 -0.0334  0.1431
  189SLPC    C121793   4.012   5.082   6.540 -0.2770 -0.8542 -0.8213
  189SLPC    HA21794   3.918   5.032   6.509 -1.3064  1.2558 -1.1844
  189SLPC    HB21795   4.052   5.031   6.630 -1.8537  0.3000  0.5640
  189SLPC    C221796   3.972   5.217   6.597  0.4579  0.5610  0.1634
  189SLPC    HS21797   3.927   5.290   6.526 -0.3303 -0.3300 -0.2639
  189SLPC   O2121798   4.091   5.274   6.662  0.4229 -0.1303 -0.2562
  189SLPC   C2121799   4.057   5.383   6.723 -0.5250  0.8638  0.2830
  189SLPC   O2221800   3.969   5.461   6.691  0.4064  0.2536  0.3722
  189SLPC   C2221801   4.156   5.397   6.838 -0.1188  0.1590 -0.5137
  189SLPC   H2R21802   4.259   5.361   6.817 -0.4558 -1.2762  0.2409
  189SLPC   H2S21803   4.159   5.507   6.850  0.2329  0.1203 -0.2766
  189SLPC    C321804   3.848   5.201   6.690  0.5384 -0.3858  0.1259
  189SLPC    HX21805   3.771   5.159   6.621 -0.1301  0.9507  0.0312
  189SLPC    HY21806   3.802   5.294   6.731  1.0238 -0.8163  1.6868
  189SLPC   O3121807   3.890   5.119   6.799 -0.2276 -0.5622 -0.2017
  189SLPC   C3121808   3.810   5.038   6.854 -0.1383 -0.0887  0.0479
  189SLPC   O3221809   3.691   5.028   6.824 -0.2381 -0.4530 -0.1311
  189SLPC   C3221810   3.876   4.978   6.975  0.0610  0.5319  0.0285
  189SLPC   H2X21811   3.984   5.004   6.972  0.6399 -1.5399  2.0465
  189SLPC   H2Y21812   3.868   4.868   6.973 -0.5584  0.5790 -2.0907
  189SLPC   C2321813   4.114   5.318   6.960  0.3192  0.3315 -1.1194
  189SLPC   H3R21814   4.142   5.212   6.947 -0.9311 -0.0226 -1.0008
  189SLPC   H3S21815   4.004   5.310   6.978  0.7762 -2.0323  0.8094
  189SLPC   C2421816   4.187   5.360   7.097  1.1854  0.2091 -0.1164
  189SLPC   H4R21817   4.139   5.454   7.133 -3.1431 -2.7157  2.1764
  189SLPC   H4S21818   4.296   5.372   7.075  1.2644 -1.6016 -0.7753
  189SLPC   C2521819   4.167   5.258   7.215 -0.0352 -0.4509  0.2008
  189SLPC   H5R21820   4.211   5.158   7.198 -2.8431 -2.1894  2.9108
  189SLPC   H5S21821   4.056   5.250   7.221 -0.0274 -0.1370  0.7309
  189SLPC   C2621822   4.215   5.325   7.347 -0.1378 -0.2869 -0.1506
  189SLPC   H6R21823   4.168   5.424   7.362  0.1969 -0.3030  0.9875
  189SLPC   H6S21824   4.325   5.330   7.332 -0.4345  1.8755 -1.9956
  189SLPC   C2721825   4.187   5.239   7.466 -0.0989 -0.6747 -0.6410
  189SLPC   H7R21826   4.239   5.141   7.461  1.4183 -0.1998  3.4427
  189SLPC   H7S21827   4.077   5.225   7.475 -0.0213 -1.3574 -0.6716
  189SLPC   C2821828   4.246   5.311   7.594  1.0094 -0.0556  0.2634
  189SLPC   H8R21829   4.198   5.410   7.609  0.2908 -0.8840  3.7919
  189SLPC   H8S21830   4.355   5.319   7.576  1.0898 -1.0937  0.2557
  189SLPC   C2921831   4.209   5.229   7.716  0.7315  0.5274 -0.0978
  189SLPC   H9R21832   4.126   5.159   7.700 -0.3213  2.1418 -2.0558
  189SLPC  C21021833   4.279   5.242   7.831  0.4326  0.2804  0.4883
  189SLPC  H10R21834   4.244   5.179   7.915  0.5600 -0.6633 -0.1518
  189SLPC  C21121835   4.396   5.340   7.849 -0.0252  0.6252 -1.4405
  189SLPC  H11R21836   4.441   5.366   7.751 -0.6231  1.7078 -1.4350
  189SLPC  H11S21837   4.470   5.281   7.907 -3.7220 -4.8422 -1.9598
  189SLPC  C21221838   4.347   5.470   7.918  0.8175  0.2988 -0.6388
  189SLPC  H12R21839   4.248   5.501   7.881 -0.0909 -0.8600  0.7852
  189SLPC  C21321840   4.414   5.541   8.009 -0.2959  0.5235  0.5264
  189SLPC  H13R21841   4.371   5.641   8.027 -0.5567  0.2785  1.2881
  189SLPC  C21421842   4.552   5.528   8.064  0.2870 -0.3753  0.5209
  189SLPC  H14R21843   4.600   5.445   8.008  0.1065 -0.0850 -0.0718
  189SLPC  H14S21844   4.554   5.490   8.169  1.4201 -1.9887 -0.0583
  189SLPC  C21521845   4.622   5.666   8.054 -0.0406  0.0629 -0.1297
  189SLPC  H15R21846   4.584   5.720   7.965  0.9743 -0.4276 -0.8770
  189SLPC  H15S21847   4.731   5.645   8.044 -0.2641 -2.1029  1.5761
  189SLPC  C21621848   4.599   5.753   8.173  0.6041 -0.2398  0.2710
  189SLPC  H16R21849   4.492   5.778   8.190  0.7549  1.0534 -0.6136
  189SLPC  H16S21850   4.652   5.848   8.150  1.2341  0.2577  3.5332
  189SLPC  C21721851   4.659   5.709   8.308 -0.1931 -0.2225  0.6365
  189SLPC  H17R21852   4.769   5.719   8.310 -0.1318 -0.4098 -1.2070
  189SLPC  H17S21853   4.634   5.601   8.318 -0.8875 -0.1742 -0.5098
  189SLPC  C21821854   4.608   5.779   8.430  0.2977  0.0342 -0.7630
  189SLPC  H18R21855   4.654   5.880   8.441 -1.1742  1.1970 -4.3071
  189SLPC  H18S21856   4.630   5.728   8.526 -0.3027  0.2539 -0.5029
  189SLPC  H18T21857   4.498   5.792   8.445  0.8022  0.6482  2.8942
  189SLPC   C3321858   3.826   5.023   7.111 -0.7275  0.7741 -0.4607
  189SLPC   H3X21859   3.716   5.012   7.125 -0.9723  1.5022 -1.7559
  189SLPC   H3Y21860   3.840   5.133   7.118 -1.1267  0.8296 -0.5303
  189SLPC   C3421861   3.899   4.954   7.233 -0.3238  0.0418 -0.1966
  189SLPC   H4X21862   4.008   4.962   7.212 -0.3279 -0.8215 -0.5639
  189SLPC   H4Y21863   3.870   4.848   7.247 -0.8938  0.2116 -0.0898
  189SLPC   C3521864   3.871   5.026   7.363  0.3434  0.2019  0.4606
  189SLPC   H5X21865   3.760   5.035   7.364  0.2959  0.4250 -2.0067
  189SLPC   H5Y21866   3.903   5.132   7.369 -0.5604  0.8108 -3.8561
  189SLPC   C3621867   3.900   4.939   7.476  0.3944 -0.0768  0.2576
  189SLPC   H6X21868   4.008   4.916   7.477  0.4323  0.0814 -0.2124
  189SLPC   H6Y21869   3.851   4.840   7.463  1.9609 -0.3926 -3.8506
  189SLPC   C3721870   3.864   5.003   7.611 -0.2903 -0.0794 -0.0267
  189SLPC   H7X21871   3.755   5.022   7.626  0.3257  3.0779  0.8612
  189SLPC   H7Y21872   3.894   5.110   7.610  0.7094 -0.3507 -2.5009
  189SLPC   C3821873   3.911   4.934   7.731 -0.0253  0.2444 -0.8111
  189SLPC   H8X21874   4.018   4.910   7.715  0.2502  1.3959 -0.7299
  189SLPC   H8Y21875   3.858   4.837   7.742 -1.0985  0.5840 -2.6720
  189SLPC   C3921876   3.907   5.008   7.868 -0.0900 -0.4000  0.2539
  189SLPC   H9X21877   3.804   5.049   7.874 -0.5951 -1.5596 -0.3534
  189SLPC   H9Y21878   3.974   5.097   7.865  1.3042 -1.4394 -0.5399
  189SLPC  C31021879   3.932   4.912   7.983 -0.1680 -0.5728 -0.3280
  189SLPC  H10X21880   3.990   4.823   7.953 -0.7567 -1.4624  1.1624
  189SLPC  H10Y21881   3.832   4.868   8.005 -0.4287  0.0716 -0.2113
  189SLPC  C31121882   3.965   4.976   8.122 -0.2701  0.7091 -0.1115
  189SLPC  H11X21883   3.966   4.883   8.184  1.2565  1.6540  1.3160
  189SLPC  H11Y21884   3.879   5.036   8.158 -0.9820 -1.9946  2.9308
  189SLPC  C31221885   4.099   5.054   8.120 -0.0856  0.0197 -0.8041
  189SLPC  H12X21886   4.083   5.149   8.065 -0.2486  0.5541  0.1586
  189SLPC  H12Y21887   4.172   4.991   8.064 -0.1810 -1.4581  0.6883
  189SLPC  C31321888   4.147   5.074   8.267  0.6046 -0.7928 -0.5382
  189SLPC  H13X21889   4.084   5.144   8.326  2.6084  2.2991 -1.9354
  189SLPC  H13Y21890   4.247   5.122   8.262 -0.1258  0.6679 -1.2243
  189SLPC  C31421891   4.170   4.938   8.343 -0.4632 -0.3916  0.0278
  189SLPC  H14X21892   4.252   4.879   8.297  0.7930 -1.0404  2.9869
  189SLPC  H14Y21893   4.084   4.868   8.347  0.1300 -1.0122  2.5818
  189SLPC  C31521894   4.195   4.949   8.498  0.1283  0.0342  0.9167
  189SLPC  H15X21895   4.283   5.007   8.531  0.9117 -2.1923  2.9131
  189SLPC  H15Y21896   4.219   4.845   8.529 -0.1485  0.0036  1.0277
  189SLPC  C31621897   4.073   4.986   8.591 -0.5764  0.1326  0.5193
  189SLPC  H16X21898   3.983   4.933   8.552  0.6221 -0.6295 -1.3029
  189SLPC  H16Y21899   4.054   5.095   8.599  1.6549  0.5613  0.2007
  189SLPC  C31721900   4.081   4.939   8.733 -0.6960  0.2228  0.1572
  189SLPC  H17X21901   4.118   4.835   8.719 -0.8311  0.1015  0.6812
  189SLPC  H17Y21902   3.976   4.937   8.770 -0.3488 -2.9436  1.1319
  189SLPC  C31821903   4.167   5.028   8.821 -0.0366 -0.1752  1.0234
  189SLPC  H18X21904   4.118   5.126   8.837  2.2530  1.0664  0.7330
  189SLPC  H18Y21905   4.260   5.054   8.765 -0.2109 -0.2186  0.7138
  189SLPC  H18Z21906   4.177   4.974   8.917  0.5291 -1.8337  0.0634
  190SLPC     N21907   4.417   4.743   6.315  0.8043 -0.4524 -0.4034
  190SLPC   C1321908   4.471   4.675   6.193  0.4640 -0.5394 -0.1679
  190SLPC  H13A21909   4.559   4.727   6.158  0.8011  0.4739  2.0859
  190SLPC  H13B21910   4.513   4.582   6.226  1.8031 -0.5806 -1.8808
  190SLPC  H13C21911   4.393   4.663   6.119  0.4942  0.4949 -0.3765
  190SLPC   C1421912   4.293   4.679   6.364 -0.8129  0.2154  0.0507
  190SLPC  H14A21913   4.307   4.573   6.374 -0.8132  0.2707  0.6504
  190SLPC  H14B21914   4.261   4.728   6.455 -0.3755  0.1357  0.2467
  190SLPC  H14C21915   4.225   4.677   6.280 -0.4107 -2.3243 -0.2379
  190SLPC   C1521916   4.373   4.879   6.268  0.0952 -0.2154  0.8156
  190SLPC  H15A21917   4.452   4.944   6.234 -2.5537  2.7577  0.1407
  190SLPC  H15B21918   4.292   4.865   6.199 -0.1438 -2.1485  1.4384
  190SLPC  H15C21919   4.324   4.930   6.350  0.2194  0.4629  0.4640
  190SLPC   C1221920   4.533   4.767   6.422  0.1328  0.6857  0.1243
  190SLPC  H12A21921   4.476   4.813   6.502 -0.2690  0.7464 -0.1955
  190SLPC  H12B21922   4.614   4.829   6.388  1.1529 -0.8783 -0.3443
  190SLPC   C1121923   4.596   4.654   6.506 -0.5248  0.1335  1.0601
  190SLPC  H11A21924   4.534   4.646   6.598 -1.6833 -0.4114  0.2438
  190SLPC  H11B21925   4.695   4.693   6.538 -0.6994  1.3611  0.1500
  190SLPC     P21926   4.537   4.400   6.477  0.2262 -0.1620  0.2385
  190SLPC   O1321927   4.406   4.442   6.531  0.3300 -0.0509  0.0969
  190SLPC   O1421928   4.531   4.303   6.368 -0.1081  0.0174  0.3480
  190SLPC   O1221929   4.619   4.527   6.435  0.1808  0.1382 -0.0904
  190SLPC   O1121930   4.629   4.345   6.591  0.2401  0.0500  0.1082
  190SLPC    C121931   4.606   4.363   6.732  0.5911  0.7650 -0.0787
  190SLPC    HA21932   4.707   4.366   6.779  1.9561  5.1673 -2.9347
  190SLPC    HB21933   4.548   4.455   6.756 -0.0177 -0.0877  1.7750
  190SLPC    C221934   4.521   4.247   6.789 -0.3591 -0.0464  0.1224
  190SLPC    HS21935   4.419   4.251   6.746  0.6942 -2.0777 -2.7268
  190SLPC   O2121936   4.518   4.257   6.931  0.0516  0.6646  0.2770
  190SLPC   C2121937   4.410   4.320   6.985  0.4716  0.2344 -0.2835
  190SLPC   O2221938   4.333   4.393   6.926  0.4356 -0.6972 -0.1037
  190SLPC   C2221939   4.414   4.308   7.141  0.4257 -0.6924  0.8904
  190SLPC   H2R21940   4.500   4.371   7.171  0.7561 -0.4458 -0.5626
  190SLPC   H2S21941   4.320   4.351   7.182  0.2116  0.6068 -0.9144
  190SLPC    C321942   4.571   4.102   6.768  0.2830 -0.0726  0.4255
  190SLPC    HX21943   4.657   4.083   6.836  0.9480  1.1160 -0.0703
  190SLPC    HY21944   4.616   4.091   6.667 -1.0555  0.2089 -0.2090
  190SLPC   O3121945   4.467   4.006   6.794  0.2934 -0.5493  0.0495
  190SLPC   C3121946   4.373   4.013   6.695  0.0447  1.5795  0.0558
  190SLPC   O3221947   4.376   4.079   6.591 -0.1680  0.2495  0.0155
  190SLPC   C3221948   4.269   3.900   6.737 -0.6819  0.3702  0.3252
  190SLPC   H2X21949   4.285   3.878   6.844 -0.8645 -1.4103  0.0040
  190SLPC   H2Y21950   4.286   3.813   6.670  0.1957  1.2272 -0.5971
  190SLPC   C2321951   4.407   4.158   7.186 -0.3554 -0.1108  0.0585
  190SLPC   H3R21952   4.483   4.097   7.132 -1.0143 -0.2917 -0.6647
  190SLPC   H3S21953   4.302   4.126   7.171 -0.8601  1.1307  0.8954
  190SLPC   C2421954   4.430   4.152   7.332 -0.0886 -0.2122  0.4818
  190SLPC   H4R21955   4.531   4.194   7.352  0.3006 -1.3797  0.9948
  190SLPC   H4S21956   4.438   4.046   7.363  0.8337 -0.0191  0.9226
  190SLPC   C2521957   4.329   4.221   7.419 -0.1632 -0.0990  0.7471
  190SLPC   H5R21958   4.231   4.170   7.414  0.1751 -0.7626  0.9142
  190SLPC   H5S21959   4.310   4.326   7.387 -0.6902 -0.1314  0.9499
  190SLPC   C2621960   4.367   4.223   7.569 -0.2239 -0.3087  0.0621
  190SLPC   H6R21961   4.437   4.308   7.583  1.2805 -1.3774 -0.8245
  190SLPC   H6S21962   4.416   4.126   7.593  1.1321 -0.0247 -1.5036
  190SLPC   C2721963   4.247   4.240   7.668  0.1611  0.4422  0.8489
  190SLPC   H7R21964   4.167   4.164   7.652 -1.0434  1.7891  0.4719
  190SLPC   H7S21965   4.218   4.341   7.633  2.6397  1.2501  1.0151
  190SLPC   C2821966   4.298   4.262   7.810  0.6230 -0.0827 -0.0731
  190SLPC   H8R21967   4.388   4.326   7.825 -0.8680  1.9928  0.1349
  190SLPC   H8S21968   4.323   4.165   7.859  0.7687 -0.2930 -0.5560
  190SLPC   C2921969   4.178   4.318   7.883 -0.7093 -0.6801  0.0319
  190SLPC   H9R21970   4.118   4.392   7.828  0.3811 -0.8155 -1.3615
  190SLPC  C21021971   4.134   4.279   8.005 -0.0334 -0.3435  0.8525
  190SLPC  H10R21972   4.049   4.333   8.049 -1.1345  0.6002 -2.2506
  190SLPC  C21121973   4.198   4.167   8.080  0.4972  0.1175 -0.6666
  190SLPC  H11R21974   4.301   4.139   8.049  0.5270 -0.6557  0.1185
  190SLPC  H11S21975   4.126   4.085   8.059 -0.0691  0.2695  0.6516
  190SLPC  C21221976   4.185   4.197   8.225  0.0317 -0.3677 -0.8045
  190SLPC  H12R21977   4.159   4.300   8.252 -0.9715 -0.5204 -1.1626
  190SLPC  C21321978   4.183   4.101   8.320 -0.4688  0.5108 -0.0772
  190SLPC  H13R21979   4.176   4.140   8.422  1.5600  0.4767  0.1077
  190SLPC  C21421980   4.206   3.958   8.288 -0.2794  1.1546 -0.9905
  190SLPC  H14R21981   4.253   3.944   8.189  2.7503 -0.9570  0.6608
  190SLPC  H14S21982   4.110   3.902   8.290 -0.7728  1.9822 -1.2875
  190SLPC  C21521983   4.287   3.888   8.398  0.2739  0.4245  0.1541
  190SLPC  H15R21984   4.232   3.881   8.495 -0.1287  2.4700  0.0786
  190SLPC  H15S21985   4.382   3.943   8.414  0.9147 -0.7082  0.3613
  190SLPC  C21621986   4.328   3.738   8.369  0.2256 -0.8461  0.2139
  190SLPC  H16R21987   4.363   3.722   8.265 -0.1158  0.4237 -0.0981
  190SLPC  H16S21988   4.244   3.667   8.383 -0.2819 -0.3602 -0.3184
  190SLPC  C21721989   4.431   3.691   8.469 -0.3420 -0.1521 -0.7551
  190SLPC  H17R21990   4.435   3.583   8.444 -4.4210 -0.2724 -1.2760
  190SLPC  H17S21991   4.403   3.697   8.577  0.3545 -0.7357 -0.5392
  190SLPC  C21821992   4.569   3.742   8.439  0.8941 -0.3312 -0.0832
  190SLPC  H18R21993   4.569   3.744   8.328 -1.1007 -0.6983 -0.1139
  190SLPC  H18S21994   4.631   3.652   8.461 -0.1353 -0.8185  0.9301
  190SLPC  H18T21995   4.594   3.835   8.494 -2.7366  0.4888  0.3207
  190SLPC   C3321996   4.129   3.948   6.710  0.2820 -0.4192 -0.8306
  190SLPC   H3X21997   4.107   3.917   6.605  0.2467 -1.7591 -0.4313
  190SLPC   H3Y21998   4.131   4.059   6.704  0.3518 -0.3275  0.8226
  190SLPC   C3421999   4.018   3.915   6.811 -1.4554  0.1034  0.1555
  190SLPC   H4X22000   4.027   3.815   6.858 -0.3470  0.5986  1.0251
  190SLPC   H4Y22001   3.917   3.926   6.766 -1.4294 -1.1942 -0.2434
  190SLPC   C3522002   4.030   3.994   6.941 -0.5820  0.1597 -0.3575
  190SLPC   H5X22003   4.047   4.102   6.924  2.0993  0.0129  1.1270
  190SLPC   H5Y22004   4.123   3.963   6.995 -0.8993  0.1383  0.1863
  190SLPC   C3622005   3.907   3.982   7.040 -0.1260 -0.6734  0.1727
  190SLPC   H6X22006   3.893   3.872   7.037 -3.6163 -0.2864 -0.4281
  190SLPC   H6Y22007   3.815   4.025   6.996  0.7311  0.0472 -0.9371
  190SLPC   C3722008   3.937   4.029   7.181 -0.3234  0.0160  0.1376
  190SLPC   H7X22009   3.964   4.137   7.187 -1.0950  0.2730 -0.6995
  190SLPC   H7Y22010   4.024   3.970   7.215  0.7402  1.1140 -0.6380
  190SLPC   C3822011   3.821   3.997   7.270  0.4342  0.0684 -0.4889
  190SLPC   H8X22012   3.795   3.890   7.260  0.6218 -0.3806  3.1684
  190SLPC   H8Y22013   3.730   4.057   7.248 -1.5144 -1.9296  1.7735
  190SLPC   C3922014   3.866   4.025   7.412  0.1651  0.1292  0.2539
  190SLPC   H9X22015   3.909   4.128   7.418  1.0662 -0.2708  0.7269
  190SLPC   H9Y22016   3.949   3.954   7.433  0.9031  0.0837 -2.6379
  190SLPC  C31022017   3.755   4.016   7.517  0.0535  0.1878 -0.4112
  190SLPC  H10X22018   3.709   3.916   7.509  1.6821 -0.4140 -2.8320
  190SLPC  H10Y22019   3.682   4.100   7.510 -1.5977 -1.0946  1.1415
  190SLPC  C31122020   3.821   4.032   7.648 -0.2426 -0.2511 -0.4299
  190SLPC  H11X22021   3.884   4.124   7.644 -2.7071  1.4834 -1.2287
  190SLPC  H11Y22022   3.891   3.948   7.666 -0.0417  0.4680  2.3867
  190SLPC  C31222023   3.732   4.046   7.770  0.1384 -0.1954 -0.2759
  190SLPC  H12X22024   3.658   3.963   7.772  0.1311 -0.2598 -2.4224
  190SLPC  H12Y22025   3.684   4.147   7.767 -0.4972 -0.5312 -1.7168
  190SLPC  C31322026   3.823   4.041   7.901  0.9967 -0.1031  0.4017
  190SLPC  H13X22027   3.882   4.135   7.898  2.7251 -1.1491  1.1136
  190SLPC  H13Y22028   3.887   3.952   7.886  0.5790 -0.7062  2.1468
  190SLPC  C31422029   3.731   4.033   8.024  0.5695  0.4639  0.3785
  190SLPC  H14X22030   3.659   3.953   7.994  1.0455  0.2394 -0.1688
  190SLPC  H14Y22031   3.671   4.124   8.040 -2.0431 -1.5011  2.1787
  190SLPC  C31522032   3.813   3.994   8.148  0.7936 -0.2724 -0.5538
  190SLPC  H15X22033   3.853   4.093   8.181 -0.0341 -0.1063 -0.0241
  190SLPC  H15Y22034   3.898   3.926   8.127  0.9841  0.1156 -1.0611
  190SLPC  C31622035   3.723   3.945   8.269  0.4465  0.0259  0.3592
  190SLPC  H16X22036   3.649   4.024   8.292  1.4061  0.9598  0.2874
  190SLPC  H16Y22037   3.798   3.946   8.351  1.5451  0.1805 -0.6250
  190SLPC  C31722038   3.649   3.805   8.255 -0.6310 -0.3285  0.5769
  190SLPC  H17X22039   3.556   3.798   8.194  0.5615 -0.5896 -1.2533
  190SLPC  H17Y22040   3.605   3.786   8.355 -1.7126  1.5492  0.4883
  190SLPC  C31822041   3.736   3.691   8.209  0.2020  0.5156  0.1140
  190SLPC  H18X22042   3.746   3.701   8.098  1.4120  3.5495  0.4400
  190SLPC  H18Y22043   3.683   3.600   8.241  0.7271  0.2991  0.3808
  190SLPC  H18Z22044   3.841   3.694   8.247 -0.0253 -2.2362  1.0337
  191SLPC     N22045   3.293   6.157   5.390  0.1953 -0.2897  0.1025
  191SLPC   C1322046   3.257   6.298   5.347 -0.1256 -0.2419  0.0968
  191SLPC  H13A22047   3.344   6.346   5.305 -0.6757 -0.3736 -1.2403
  191SLPC  H13B22048   3.192   6.297   5.260 -0.2554 -0.5401  0.1982
  191SLPC  H13C22049   3.209   6.351   5.428 -2.1543 -2.1204  0.1801
  191SLPC   C1422050   3.380   6.092   5.288  0.2453 -0.4911 -0.4484
  191SLPC  H14A22051   3.447   6.165   5.247 -0.4085  0.2321 -0.2366
  191SLPC  H14B22052   3.437   6.014   5.337 -0.3358  0.6791  2.1648
  191SLPC  H14C22053   3.335   6.033   5.209 -2.1976  0.3691  0.2407
  191SLPC   C1522054   3.169   6.079   5.400  0.1051 -0.1086 -0.1705
  191SLPC  H15A22055   3.117   6.075   5.305 -0.4375  0.4620  0.0939
  191SLPC  H15B22056   3.188   5.976   5.423  0.2389 -0.2293 -0.8191
  191SLPC  H15C22057   3.106   6.120   5.478  0.6681  0.0876  0.1802
  191SLPC   C1222058   3.365   6.156   5.519 -0.2577 -0.5056  0.3678
  191SLPC  H12A22059   3.455   6.212   5.502 -0.2660 -1.0624 -1.6967
  191SLPC  H12B22060   3.404   6.061   5.552  3.0912  1.1363  1.3390
  191SLPC   C1122061   3.305   6.230   5.637  1.0325  1.2037 -0.6002
  191SLPC  H11A22062   3.319   6.339   5.622  1.2076  0.8835 -2.9378
  191SLPC  H11B22063   3.358   6.208   5.732 -1.9843  1.7855  1.3065
  191SLPC     P22064   3.061   6.318   5.690  0.1003  0.5829  0.3462
  191SLPC   O1322065   3.115   6.451   5.659  0.0746 -0.1215 -0.3157
  191SLPC   O1422066   2.938   6.289   5.609 -0.0353  0.7739  0.3688
  191SLPC   O1222067   3.166   6.202   5.660  0.0483 -0.2144 -0.7190
  191SLPC   O1122068   3.020   6.305   5.840  0.7395 -0.4964 -0.1302
  191SLPC    C122069   3.083   6.207   5.928 -0.0761 -0.0816 -0.3762
  191SLPC    HA22070   3.047   6.105   5.902 -0.6037  0.4607 -1.8166
  191SLPC    HB22071   3.190   6.197   5.904  0.2191 -1.6669  1.4475
  191SLPC    C222072   3.071   6.245   6.077 -0.0880  0.4253 -0.1866
  191SLPC    HS22073   2.966   6.226   6.109  0.4606 -0.2412  1.2871
  191SLPC   O2122074   3.115   6.380   6.099  0.0758  0.4376  0.2583
  191SLPC   C2122075   3.017   6.466   6.089  0.0735 -0.5389 -0.2158
  191SLPC   O2222076   2.901   6.444   6.078 -0.5321  0.4135 -0.0435
  191SLPC   C2222077   3.079   6.612   6.094  0.1863 -0.4045  0.3620
  191SLPC   H2R22078   3.106   6.632   5.988 -1.0825  0.0268  0.1184
  191SLPC   H2S22079   2.999   6.685   6.118 -0.5659 -1.1187  0.0553
  191SLPC    C322080   3.159   6.148   6.155  0.9879 -0.4470 -0.0862
  191SLPC    HX22081   3.265   6.149   6.121  0.8866 -0.3863 -0.4079
  191SLPC    HY22082   3.114   6.047   6.144 -2.0015  0.7045  1.0292
  191SLPC   O3122083   3.147   6.182   6.290 -0.1275  0.3082  0.4262
  191SLPC   C3122084   3.239   6.269   6.333  0.0917 -0.2558 -0.0390
  191SLPC   O3222085   3.341   6.300   6.270 -0.1955 -0.7005  0.3119
  191SLPC   C3222086   3.197   6.313   6.472  0.7002 -0.6034 -0.2915
  191SLPC   H2X22087   3.176   6.227   6.540  2.3084 -0.2090  0.7352
  191SLPC   H2Y22088   3.108   6.372   6.445  0.1743 -1.6731 -0.9375
  191SLPC   C2322089   3.209   6.637   6.178  0.9267 -0.6879  0.0977
  191SLPC   H3R22090   3.258   6.718   6.120  0.0397 -0.6147 -0.5543
  191SLPC   H3S22091   3.284   6.555   6.185  1.2166 -0.3951  0.4540
  191SLPC   C2422092   3.176   6.695   6.319 -0.1920 -0.2583 -0.7708
  191SLPC   H4R22093   3.130   6.621   6.388  2.3157 -0.2066  1.0252
  191SLPC   H4S22094   3.101   6.776   6.307 -1.8721 -1.3761  1.7876
  191SLPC   C2522095   3.300   6.748   6.400 -0.7848  0.5217 -0.3480
  191SLPC   H5R22096   3.340   6.829   6.336 -0.1280  0.5405  0.0886
  191SLPC   H5S22097   3.366   6.658   6.398 -0.1826  0.9769 -1.0420
  191SLPC   C2622098   3.267   6.778   6.542 -0.3952 -0.7966 -0.4151
  191SLPC   H6R22099   3.233   6.684   6.590 -4.0630  0.0984 -1.0707
  191SLPC   H6S22100   3.173   6.838   6.539  0.5131  0.6019 -1.1193
  191SLPC   C2722101   3.378   6.852   6.618  0.1567  0.0279 -0.3201
  191SLPC   H7R22102   3.402   6.946   6.563  1.4757  0.1915  0.5095
  191SLPC   H7S22103   3.462   6.781   6.631 -0.8372 -0.5828  3.5372
  191SLPC   C2822104   3.326   6.883   6.760  0.2151  0.6701  0.9603
  191SLPC   H8R22105   3.272   6.795   6.802 -0.8341  1.2541  0.8528
  191SLPC   H8S22106   3.246   6.959   6.745  1.4408  1.3411 -2.6518
  191SLPC   C2922107   3.423   6.922   6.868 -0.6940 -0.0234 -0.1952
  191SLPC   H9R22108   3.488   7.009   6.848 -0.7693  0.0269 -0.2234
  191SLPC  C21022109   3.437   6.865   6.989  0.7450  0.5557 -0.1508
  191SLPC  H10R22110   3.526   6.894   7.046 -0.3230  3.7199  0.0036
  191SLPC  C21122111   3.372   6.742   7.044 -0.1884 -0.6443 -0.9410
  191SLPC  H11R22112   3.354   6.662   6.969 -3.2039 -0.4731 -0.4823
  191SLPC  H11S22113   3.268   6.767   7.077  0.0995 -0.0139 -0.4968
  191SLPC  C21222114   3.439   6.673   7.162  0.2600  0.1751  0.3486
  191SLPC  H12R22115   3.475   6.569   7.149 -1.3759 -0.6631  2.1959
  191SLPC  C21322116   3.427   6.713   7.291 -0.5160 -0.2742  0.0388
  191SLPC  H13R22117   3.475   6.656   7.372 -0.7773  1.1446  1.2137
  191SLPC  C21422118   3.356   6.844   7.334 -0.2475  0.2786 -0.1962
  191SLPC  H14R22119   3.299   6.890   7.250  0.3543 -2.7711 -2.3642
  191SLPC  H14S22120   3.432   6.920   7.362 -1.1387  1.2529 -0.4066
  191SLPC  C21522121   3.253   6.829   7.460  1.1562 -0.4219 -0.5712
  191SLPC  H15R22122   3.178   6.750   7.442 -0.3578  0.8904 -0.1601
  191SLPC  H15S22123   3.204   6.929   7.457  0.2636 -0.8193  0.4301
  191SLPC  C21622124   3.327   6.800   7.600 -0.2127  0.2123  0.1038
  191SLPC  H16R22125   3.423   6.853   7.619 -0.2175 -0.0347  0.8094
  191SLPC  H16S22126   3.349   6.692   7.590 -0.8259 -0.0994  2.0437
  191SLPC  C21722127   3.236   6.809   7.719  0.2083  0.0979 -0.2482
  191SLPC  H17R22128   3.149   6.747   7.687  1.0713  0.0918 -2.7214
  191SLPC  H17S22129   3.220   6.918   7.736 -0.6163  0.3240 -2.2908
  191SLPC  C21822130   3.302   6.736   7.841  0.4843 -0.3344 -0.3661
  191SLPC  H18R22131   3.348   6.642   7.802 -1.2287 -0.7542 -1.4341
  191SLPC  H18S22132   3.232   6.689   7.914 -0.1433  0.6823 -0.2944
  191SLPC  H18T22133   3.370   6.811   7.887  0.8980  0.1374 -1.7321
  191SLPC   C3322134   3.302   6.400   6.541 -0.4723 -0.5943 -0.2867
  191SLPC   H3X22135   3.253   6.448   6.629 -1.9540  1.4851 -2.1942
  191SLPC   H3Y22136   3.323   6.484   6.471 -0.1660 -0.0523  0.4461
  191SLPC   C3422137   3.430   6.335   6.588  0.0603  0.2967 -0.3789
  191SLPC   H4X22138   3.477   6.302   6.493 -1.8001  0.1181 -1.2430
  191SLPC   H4Y22139   3.399   6.261   6.665  1.5987 -0.9213 -0.9037
  191SLPC   C3522140   3.511   6.440   6.641 -0.2206 -0.5626  0.3734
  191SLPC   H5X22141   3.449   6.499   6.712  0.4239 -0.7602  1.1029
  191SLPC   H5Y22142   3.550   6.514   6.568  1.6857 -1.2352  0.6740
  191SLPC   C3622143   3.635   6.392   6.731  0.0901 -0.0355  0.0029
  191SLPC   H6X22144   3.723   6.363   6.669  0.3298  1.9760 -0.6523
  191SLPC   H6Y22145   3.608   6.312   6.803 -1.1856  1.1294  0.8388
  191SLPC   C3722146   3.680   6.510   6.811 -0.6284  0.2287 -0.8000
  191SLPC   H7X22147   3.606   6.538   6.889  0.9981 -2.0761  1.6243
  191SLPC   H7Y22148   3.679   6.598   6.742  0.8726 -1.3877 -2.9566
  191SLPC   C3822149   3.821   6.494   6.865 -0.3459  0.4629 -0.3869
  191SLPC   H8X22150   3.889   6.472   6.780 -2.0599  3.0608 -2.5536
  191SLPC   H8Y22151   3.825   6.407   6.933 -1.6904  0.7352  0.0665
  191SLPC   C3922152   3.867   6.621   6.925 -0.4921 -0.0832 -0.0587
  191SLPC   H9X22153   3.848   6.709   6.859  2.4866  1.0908  0.5547
  191SLPC   H9Y22154   3.977   6.613   6.936 -0.4641  1.6596  1.0283
  191SLPC  C31022155   3.822   6.655   7.065  0.2985  0.8234  0.2445
  191SLPC  H10X22156   3.854   6.565   7.122  2.4109  1.0464 -0.5789
  191SLPC  H10Y22157   3.711   6.663   7.075  0.1345  0.3671 -1.2075
  191SLPC  C31122158   3.889   6.776   7.120 -1.0508 -0.2387  0.7255
  191SLPC  H11X22159   3.866   6.858   7.048 -0.4910 -2.7143 -2.3497
  191SLPC  H11Y22160   3.999   6.768   7.135 -0.6718  4.2523  1.0300
  191SLPC  C31222161   3.823   6.815   7.251 -0.1840 -0.2553 -0.7443
  191SLPC  H12X22162   3.712   6.816   7.244 -0.3823  0.5377  1.8891
  191SLPC  H12Y22163   3.854   6.916   7.283 -0.9776  0.7048 -2.9660
  191SLPC  C31322164   3.838   6.714   7.364 -0.3531 -0.8482  0.6027
  191SLPC  H13X22165   3.944   6.684   7.380  0.4625  1.0981 -0.9148
  191SLPC  H13Y22166   3.792   6.618   7.330  1.8372 -1.2031 -1.5169
  191SLPC  C31422167   3.774   6.758   7.497  0.3068  0.1800  0.7677
  191SLPC  H14X22168   3.672   6.796   7.474  0.1225 -1.3605 -1.1498
  191SLPC  H14Y22169   3.833   6.844   7.535  0.3354  0.9143 -0.8857
  191SLPC  C31522170   3.757   6.647   7.599  0.2559  0.5664 -0.1622
  191SLPC  H15X22171   3.857   6.622   7.638  0.3187  0.6103 -0.2946
  191SLPC  H15Y22172   3.725   6.559   7.539 -0.2606 -1.0729  2.4460
  191SLPC  C31622173   3.659   6.675   7.719  0.1904 -0.1823  0.0579
  191SLPC  H16X22174   3.558   6.699   7.679  0.5021 -0.1654 -0.7236
  191SLPC  H16Y22175   3.699   6.769   7.763  0.2921  0.1037 -0.6293
  191SLPC  C31722176   3.660   6.562   7.818  0.7160  0.4504  0.3303
  191SLPC  H17X22177   3.590   6.594   7.898  0.2894  1.2950 -0.3696
  191SLPC  H17Y22178   3.760   6.561   7.866 -0.1714 -1.0459  2.2090
  191SLPC  C31822179   3.628   6.426   7.755  0.4096  0.8967 -0.3927
  191SLPC  H18X22180   3.718   6.365   7.732 -0.9239 -1.5026  0.5154
  191SLPC  H18Y22181   3.563   6.435   7.665 -1.7836 -0.2625  1.0095
  191SLPC  H18Z22182   3.565   6.367   7.826  0.9357  0.6380 -0.1413
  192SLPC     N22183   4.883   0.788   6.204  0.7357 -0.2342 -0.1829
  192SLPC   C1322184   4.827   0.802   6.068  0.5154  0.0229  0.9692
  192SLPC  H13A22185   4.887   0.770   5.985  0.8570 -1.2782  1.6994
  192SLPC  H13B22186   4.742   0.736   6.065 -1.2947  2.2943  0.6519
  192SLPC  H13C22187   4.795   0.904   6.054  0.2251 -0.2526 -0.3926
  192SLPC   C1422188   5.002   0.883   6.222  0.0487  0.3029  0.0119
  192SLPC  H14A22189   5.069   0.860   6.141 -4.0245 -1.0726 -3.1514
  192SLPC  H14B22190   4.960   0.981   6.202  1.1337  0.4060 -1.9616
  192SLPC  H14C22191   5.044   0.873   6.321 -0.2557 -1.4829 -0.0257
  192SLPC   C1522192   4.921   0.648   6.232 -0.1942  0.2194 -0.2974
  192SLPC  H15A22193   5.014   0.631   6.181 -2.0507 -1.8006 -3.2134
  192SLPC  H15B22194   4.936   0.628   6.337 -1.5114 -0.0600 -0.1531
  192SLPC  H15C22195   4.844   0.580   6.198 -0.8292 -0.4361  2.3802
  192SLPC   C1222196   4.775   0.827   6.303  0.2860  0.1352 -0.4874
  192SLPC  H12A22197   4.680   0.785   6.273 -0.4911  1.6106 -0.1579
  192SLPC  H12B22198   4.758   0.934   6.301  0.9894  0.2730  0.3703
  192SLPC   C1122199   4.804   0.797   6.457 -0.7042 -0.2864 -0.2343
  192SLPC  H11A22200   4.741   0.842   6.536 -0.3447  0.0105 -0.1143
  192SLPC  H11B22201   4.905   0.834   6.483 -0.8960  0.8284 -1.0333
  192SLPC     P22202   4.685   0.560   6.505  0.2078 -0.3315 -0.0057
  192SLPC   O1322203   4.631   0.524   6.373  0.9414  0.1338 -0.3671
  192SLPC   O1422204   4.722   0.443   6.592 -0.2019 -0.1094 -0.0151
  192SLPC   O1222205   4.808   0.658   6.484 -0.1033 -0.3349 -0.0279
  192SLPC   O1122206   4.581   0.654   6.585  0.3306  0.2744  0.0206
  192SLPC    C122207   4.531   0.621   6.715 -0.5319 -0.5493  0.5767
  192SLPC    HA22208   4.431   0.667   6.730 -0.4398 -0.3208  0.4965
  192SLPC    HB22209   4.523   0.510   6.712  0.4987 -0.6079 -0.4381
  192SLPC    C222210   4.610   0.666   6.835  0.6853 -0.2144  0.3967
  192SLPC    HS22211   4.695   0.596   6.847 -0.3879 -1.7202 -0.4790
  192SLPC   O2122212   4.525   0.665   6.949 -0.0307  0.0493  0.3597
  192SLPC   C2122213   4.487   0.557   7.001  0.6702 -0.3595  0.0346
  192SLPC   O2222214   4.518   0.441   6.969 -0.5226  0.1767 -0.6353
  192SLPC   C2222215   4.386   0.588   7.108  0.0248 -0.1300 -0.0591
  192SLPC   H2R22216   4.321   0.675   7.082 -0.2427  0.2981  1.9130
  192SLPC   H2S22217   4.327   0.495   7.122 -0.5064  0.2345  0.1484
  192SLPC    C322218   4.671   0.804   6.816 -0.1577  0.1685 -0.0835
  192SLPC    HX22219   4.588   0.863   6.771 -0.1371  0.1427 -0.1533
  192SLPC    HY22220   4.747   0.796   6.736 -1.5957  1.6402 -1.6472
  192SLPC   O3122221   4.727   0.852   6.940 -1.0858 -0.2136 -0.1006
  192SLPC   C3122222   4.644   0.926   7.011 -0.1279 -0.9896  1.0769
  192SLPC   O3222223   4.538   0.968   6.966 -0.1909  0.1468  0.2320
  192SLPC   C3222224   4.715   0.962   7.146  0.4816 -0.3435  0.1097
  192SLPC   H2X22225   4.805   1.018   7.112 -0.2644  0.4816 -0.5286
  192SLPC   H2Y22226   4.747   0.865   7.189  2.4685 -0.8128 -2.3565
  192SLPC   C2322227   4.455   0.618   7.246 -0.1955  0.0683 -0.6372
  192SLPC   H3R22228   4.537   0.693   7.239  0.0132 -0.2044 -1.1743
  192SLPC   H3S22229   4.507   0.526   7.280 -0.7446 -0.0387 -0.0789
  192SLPC   C2422230   4.367   0.669   7.355  0.5122 -0.3678 -0.5362
  192SLPC   H4R22231   4.267   0.620   7.356 -0.2442  1.1646  0.8688
  192SLPC   H4S22232   4.348   0.776   7.332  0.3666 -0.1680  0.4860
  192SLPC   C2522233   4.440   0.648   7.493 -0.6178 -0.0618  0.1890
  192SLPC   H5R22234   4.545   0.684   7.488 -0.9913  1.2497  1.4120
  192SLPC   H5S22235   4.452   0.538   7.497 -1.6379 -0.1166  2.7475
  192SLPC   C2622236   4.365   0.705   7.612 -0.7887  0.1856 -0.4330
  192SLPC   H6R22237   4.288   0.629   7.636 -0.2778 -0.6300 -1.3206
  192SLPC   H6S22238   4.328   0.804   7.578 -1.8093 -0.0863 -0.1437
  192SLPC   C2722239   4.448   0.731   7.736 -0.0165  0.2257 -0.0016
  192SLPC   H7R22240   4.535   0.794   7.709  0.4453 -1.4290 -2.5175
  192SLPC   H7S22241   4.495   0.643   7.783 -0.3457  0.1980  0.2813
  192SLPC   C2822242   4.364   0.795   7.846 -0.6406 -0.2419 -0.0308
  192SLPC   H8R22243   4.437   0.788   7.929 -0.5223  0.0265 -0.1094
  192SLPC   H8S22244   4.277   0.729   7.864 -0.8454 -1.3415 -4.5797
  192SLPC   C2922245   4.320   0.935   7.819  1.1377  0.0676 -0.6918
  192SLPC   H9R22246   4.405   1.003   7.804  0.9630  0.9756  2.1656
  192SLPC  C21022247   4.192   0.979   7.817 -0.5998  0.0967  0.4277
  192SLPC  H10R22248   4.184   1.084   7.785 -0.1554 -0.1559 -0.5167
  192SLPC  C21122249   4.063   0.900   7.846  0.0211 -0.5955  0.4328
  192SLPC  H11R22250   4.056   0.892   7.956  0.8323 -1.1186  0.4535
  192SLPC  H11S22251   4.069   0.797   7.804 -0.1447 -0.9343  1.2310
  192SLPC  C21222252   3.948   0.964   7.777 -0.4601  0.1780  0.2007
  192SLPC  H12R22253   3.918   1.061   7.821 -0.6077  1.6367 -3.0116
  192SLPC  C21322254   3.866   0.920   7.683  0.1048 -0.2349 -0.2428
  192SLPC  H13R22255   3.793   0.992   7.644 -1.8946 -2.6831 -1.1356
  192SLPC  C21422256   3.876   0.789   7.610 -0.2447  0.2928 -0.2587
  192SLPC  H14R22257   3.773   0.752   7.596 -0.3042  0.6657 -0.7988
  192SLPC  H14S22258   3.917   0.701   7.665 -4.7674 -2.4110 -0.9832
  192SLPC  C21522259   3.956   0.784   7.472 -0.5447  0.8322  0.6975
  192SLPC  H15R22260   4.065   0.772   7.493 -0.3254  0.7641 -0.4756
  192SLPC  H15S22261   3.935   0.881   7.421  0.3142  0.2560 -0.7681
  192SLPC  C21622262   3.903   0.661   7.389 -0.0777 -0.3936 -0.6927
  192SLPC  H16R22263   3.796   0.679   7.363 -0.5223  0.4192  1.5868
  192SLPC  H16S22264   3.913   0.571   7.453 -0.0781 -0.3588 -0.6437
  192SLPC  C21722265   3.976   0.642   7.253  0.1397 -0.2594 -0.0490
  192SLPC  H17R22266   4.085   0.630   7.273  0.0860 -1.3239 -0.3211
  192SLPC  H17S22267   3.938   0.546   7.210  2.4146 -1.5445  0.6816
  192SLPC  C21822268   3.977   0.759   7.151  0.2879  1.0763 -0.0637
  192SLPC  H18R22269   3.875   0.761   7.105  0.2856 -1.1182 -0.2063
  192SLPC  H18S22270   4.054   0.755   7.072  0.8152 -0.8954  0.5301
  192SLPC  H18T22271   3.984   0.856   7.205  0.1776  1.6293 -1.0277
  192SLPC   C3322272   4.613   1.041   7.246  0.2213  0.7992  0.1044
  192SLPC   H3X22273   4.514   0.992   7.248  1.0430 -0.9377 -0.3635
  192SLPC   H3Y22274   4.598   1.142   7.201 -3.5700 -0.6751 -2.1230
  192SLPC   C3422275   4.668   1.066   7.389 -0.6236  0.0507  0.7652
  192SLPC   H4X22276   4.596   1.130   7.444 -3.1578 -2.8257  0.9050
  192SLPC   H4Y22277   4.769   1.110   7.374  0.0816 -2.1766 -1.3701
  192SLPC   C3522278   4.686   0.939   7.473 -0.2850  0.5091  0.7128
  192SLPC   H5X22279   4.755   0.880   7.409  0.6957  0.8309  1.4656
  192SLPC   H5Y22280   4.589   0.886   7.486  0.0265 -0.1037  0.5586
  192SLPC   C3622281   4.768   0.961   7.596  0.8186 -0.0626  0.3929
  192SLPC   H6X22282   4.866   1.002   7.563 -0.7803  1.2267 -2.9084
  192SLPC   H6Y22283   4.785   0.866   7.651  3.3942 -0.6108 -1.2291
  192SLPC   C3722284   4.700   1.059   7.700 -0.6349 -0.0311  0.7838
  192SLPC   H7X22285   4.615   1.004   7.746 -0.8941  1.0206  1.5834
  192SLPC   H7Y22286   4.673   1.155   7.651  1.8729  1.2494  1.8159
  192SLPC   C3822287   4.797   1.085   7.810 -0.5791  0.0524  0.1341
  192SLPC   H8X22288   4.886   1.137   7.770  0.7334 -1.3983  1.1216
  192SLPC   H8Y22289   4.830   0.985   7.844 -0.8491  0.1847  0.7936
  192SLPC   C3922290   4.746   1.155   7.937  0.4093  0.1164 -0.4853
  192SLPC   H9X22291   4.804   1.121   8.025 -1.6955  1.0971  1.3208
  192SLPC   H9Y22292   4.636   1.143   7.948  0.5043  0.7690  1.3861
  192SLPC  C31022293   4.766   1.309   7.923  0.3474 -0.7626  0.5816
  192SLPC  H10X22294   4.683   1.347   7.860  1.1778  0.6602  0.3286
  192SLPC  H10Y22295   4.858   1.328   7.863 -0.3227 -2.8682 -1.1722
  192SLPC  C31122296   4.755   1.395   8.051 -0.8367 -0.5738  0.1975
  192SLPC  H11X22297   4.660   1.377   8.107 -2.2538  2.0768 -1.2144
  192SLPC  H11Y22298   4.757   1.504   8.028 -1.0788 -0.5277  0.3884
  192SLPC  C31222299   4.876   1.354   8.141  0.5892 -0.0046 -0.5141
  192SLPC  H12X22300   4.966   1.362   8.076 -1.0469 -1.4856 -3.0414
  192SLPC  H12Y22301   4.865   1.249   8.176 -0.5753  0.4675  0.5631
  192SLPC  C31322302   4.892   1.438   8.268 -0.1660  0.3957  0.1478
  192SLPC  H13X22303   4.800   1.432   8.330 -0.4975 -1.9545 -0.5532
  192SLPC  H13Y22304   4.918   1.542   8.237  0.8763  0.6352  1.7975
  192SLPC  C31422305   5.017   1.397   8.350 -0.3434  0.7259 -0.9832
  192SLPC  H14X22306   5.117   1.426   8.310  0.3282 -1.6439 -1.1191
  192SLPC  H14Y22307   5.018   1.290   8.382 -0.6760  0.9935 -0.0787
  192SLPC  C31522308   5.016   1.468   8.483  0.1419 -0.4517 -0.6315
  192SLPC  H15X22309   4.913   1.451   8.521  0.5726 -0.9581  0.3282
  192SLPC  H15Y22310   5.043   1.575   8.466  0.1962 -0.2812  0.5200
  192SLPC  C31622311   5.131   1.410   8.561  0.6346  0.7447 -0.9798
  192SLPC  H16X22312   5.230   1.408   8.512  1.3549  0.3389  0.4567
  192SLPC  H16Y22313   5.103   1.305   8.585 -0.9398  0.9670 -1.7896
  192SLPC  C31722314   5.146   1.485   8.693 -0.2120  0.0432 -0.1936
  192SLPC  H17X22315   5.161   1.593   8.672  0.4636 -0.0604 -0.2624
  192SLPC  H17Y22316   5.239   1.450   8.744 -0.9525  1.2814  2.0940
  192SLPC  C31822317   5.031   1.464   8.793 -0.2583 -0.0050  0.0720
  192SLPC  H18X22318   4.929   1.472   8.749 -0.2409  0.7874  0.1671
  192SLPC  H18Y22319   5.043   1.540   8.873  0.6466 -1.1693  1.0579
  192SLPC  H18Z22320   5.048   1.364   8.837  0.8605  0.1808  0.0831
  193SOD    SOD22321   2.642   5.953   1.690  0.0941  0.2557 -0.1010
  194SOD    SOD22322   2.352   2.446   1.207  0.0724  0.4928  0.3166
  195SOD    SOD22323   1.679   2.773  15.067  0.0878  0.2404 -0.7360
  196SOD    SOD22324   2.870   0.305   3.072  0.2151 -0.5068 -0.0095
  197SOD    SOD22325   5.245   1.502   6.382  0.3629 -0.3642 -0.0167
  198SOD    SOD22326   0.809   3.588   0.404 -0.0355 -0.1217  0.0318
  199SOD    SOD22327   0.255   2.470   1.395  0.2453  0.2864 -0.5203
  200SOD    SOD22328   4.899   5.832  15.888  0.2105  0.2721  0.2727
  201SOD    SOD22329   6.281   2.054   0.583  0.3203 -0.5108 -0.3587
  202SOD    SOD22330   4.116   4.485   1.414 -0.2287 -0.1042 -0.2199
  203SOD    SOD22331   1.044   6.753  15.452 -0.1926  0.6751  0.3446
  204SOD    SOD22332   2.699   1.976  11.373  0.1890 -0.0560 -0.1296
  205SOD    SOD22333   0.317   0.828   0.133 -0.3021  0.1335 -0.0935
  206SOD    SOD22334   3.391   5.249   3.548  0.3938  0.1749  0.4137
  207SOD    SOD22335   0.223   2.215   6.399 -0.0998  0.0142  0.0741
  208SOD    SOD22336   0.343   5.669  15.486 -0.2886  0.2274 -0.4818
  209SOD    SOD22337   2.049   3.962   2.192  0.0418  0.2175 -0.3835
  210SOD    SOD22338   0.927   3.355   6.072 -0.1020 -0.2733 -0.0244
  211SOD    SOD22339   4.353   0.163   3.204 -0.3965 -0.5618 -0.1920
  212SOD    SOD22340   1.019   4.498  16.882 -0.4358 -0.1781 -0.3336
  213SOD    SOD22341   3.821   4.167  11.601 -0.1934 -0.2701 -0.0259
  214SOD    SOD22342   6.038   3.303   6.746 -0.6122  0.0259 -0.1039
  215SOD    SOD22343   3.502   2.509   3.641  0.1791  0.5250 -0.1541
  216SOD    SOD22344   0.623   0.006  13.827  0.1159  0.0597 -0.3728
  217SOD    SOD22345   0.076   2.423  12.193 -0.2093  0.0041 -0.0025
  218SOD    SOD22346   2.485   6.351   2.739  0.5451  0.0712  0.2060
  219SOD    SOD22347   6.331   2.558  12.011  0.3686  0.0369  0.0087
  220SOD    SOD22348   4.578   5.106  12.194 -0.1314 -0.2433  0.5749
  221SOD    SOD22349   6.770   2.855  14.802  0.2444  0.5145  0.4889
  222SOD    SOD22350   4.986   0.249  10.829  0.0269 -0.2356 -0.2359
  223SOD    SOD22351   1.802   4.131  11.954 -0.2244 -0.7334  0.4912
  224SOD    SOD22352   1.941   5.127   5.462  0.2477  0.2773 -0.1899
  225SOD    SOD22353   4.478   3.177   3.942  0.0459  0.1293 -0.1872
  226SOD    SOD22354   2.442   2.500  11.233  0.2218  0.0339  0.0273
  227SOD    SOD22355   4.856   3.951  11.315 -0.0199  0.3724  0.2469
  228SOD    SOD22356   0.064   5.048   2.496  0.2406 -0.0670 -0.3127
  229SOD    SOD22357   0.528   2.925  11.027  0.3187  0.3738 -0.3122
  230SOD    SOD22358   1.087   0.401   3.143 -0.1253  0.6210  0.2116
  231SOD    SOD22359   0.302   1.862   5.888  0.5437 -0.3234  0.3814
  232SOD    SOD22360   5.009   6.791   2.629 -0.2876 -0.0777  0.4644
  233SOD    SOD22361   2.194   5.938   4.226 -0.5001 -0.5272  0.2533
  234SOD    SOD22362   5.805   5.102  12.928 -0.0138 -0.4862 -0.0329
  235SOD    SOD22363   4.486   0.840  12.489 -0.3186 -0.0235 -0.4975
  236SOD    SOD22364   5.312   3.721  16.525 -0.0610 -0.0799  0.0555
  237SOD    SOD22365   2.717   1.064  15.332  0.1480 -0.1140 -0.4659
  238SOD    SOD22366   5.892   6.004   0.681 -0.0280 -0.1625 -0.2814
  239SOD    SOD22367   1.704   4.055   3.997 -0.1537 -0.1197  0.3807
  240SOD    SOD22368   1.664   3.664  10.304  0.0431  0.0444 -0.2560
  241SOD    SOD22369   0.928   3.750  15.535  0.0692  0.3997  0.1115
  242SOD    SOD22370   1.448   1.702  11.936 -0.2989  0.0457  0.2560
  243SOD    SOD22371   5.893   6.724   6.635 -0.5904  0.0161  0.1701
  244SOD    SOD22372   3.266   4.812   1.060  0.4778  0.3319  0.4628
  245SOD    SOD22373   2.386   4.223   5.789  0.0664 -0.3385  0.0169
  246SOD    SOD22374   6.207   3.871  10.820  0.3848 -0.0413  0.1436
  247SOD    SOD22375   2.939   2.281   0.919 -0.3169 -0.0866 -0.4950
  248SOD    SOD22376   4.897   1.382  14.171 -0.2361  0.0612  0.0489
  249SOD    SOD22377   0.375   5.518   6.102  0.2575 -0.0560 -0.1769
  250SOD    SOD22378   3.835   1.969   1.018 -0.1264  0.1389 -0.3760
  251SOD    SOD22379   6.647   2.252   4.381  0.3838  0.2311  0.0274
  252SOD    SOD22380   4.924   5.968  10.834 -0.3009 -0.0055 -0.5450
  253SOD    SOD22381   2.904   3.825   5.924  0.4023  0.1709  0.5007
  254SOD    SOD22382   5.579   3.834  15.485  0.1164 -0.0405 -0.5451
  255SOD    SOD22383   5.802   4.183  11.930 -0.4633 -0.0432  0.1659
  256SOD    SOD22384   0.238   1.999  14.600  0.4344 -0.5561  0.1332
  257SOD    SOD22385   2.895   2.630   5.210 -0.5163 -0.5291  0.2249
  258SOD    SOD22386   4.366   6.380  11.243  0.0347 -0.2120 -0.3566
  259SOD    SOD22387   1.878   6.243  15.317 -0.3600 -0.2232 -0.0297
  260SOD    SOD22388   4.123   0.800   2.938  0.0462 -0.0230 -0.2764
  261SOD    SOD22389   1.700   0.427   4.297 -0.3767  0.2892 -0.3875
  262SOD    SOD22390   4.751   0.882   1.479 -0.6017 -0.4741 -0.1696
  263SOD    SOD22391   5.013   2.673   4.808 -0.0385 -0.4618  0.4469
  264SOD    SOD22392   1.261   2.370   2.780 -0.0730 -0.5347 -0.4759
  265SOD    SOD22393   3.854   6.817   2.049 -0.0276 -0.0873  0.1771
  266CLA    CLA22394   4.262   1.068   1.984  0.2318  0.0808  0.3044
  267CLA    CLA22395   6.566   1.342   0.813 -0.4786  0.0403 -0.1736
  268CLA    CLA22396   5.009   3.129  17.027  0.3987  0.0943  0.0282
  269CLA    CLA22397   6.550   6.165  16.477 -0.4226  0.3966 -0.0837
  270CLA    CLA22398   5.936   0.830  15.601  0.2038  0.1056  0.0495
  271CLA    CLA22399   0.669   6.553   3.756  0.0002 -0.4596 -0.2235
  272CLA    CLA22400   5.345   4.320  12.013 -0.1358 -0.3930 -0.2305
  273CLA    CLA22401   4.164   4.245   1.335 -0.0559 -0.0722  0.5324
  274CLA    CLA22402   0.807   3.569   4.153 -0.0286  0.0063 -0.4542
  275CLA    CLA22403   5.749   4.957  16.857 -0.2607 -0.1246  0.4849
  276CLA    CLA22404   0.066   2.876  13.277  0.4281  0.0165 -0.4357
  277CLA    CLA22405   4.333   6.682  13.642 -0.1864 -0.4110 -0.4358
  278CLA    CLA22406   3.550   6.284   3.903  0.3896 -0.7443  0.5331
  279CLA    CLA22407   0.094   3.532  14.999 -0.2846 -0.3128 -0.2887
  280CLA    CLA22408   6.492   2.636  14.306  0.5155 -0.2741 -0.0583
  281CLA    CLA22409   2.013   4.404   0.132 -0.1435 -0.3321 -0.6302
  282CLA    CLA22410   0.751   2.210  16.684 -0.1687 -0.4704  0.1800
  283CLA    CLA22411   0.707   4.146   5.815  0.3300  0.1416 -0.4539
  284CLA    CLA22412   6.270   6.357  13.805  0.1569  0.3247 -0.3151
  285CLA    CLA22413   3.307   1.906   3.699 -0.1471 -0.3240 -0.3345
  286CLA    CLA22414   1.212   2.624   2.937  0.1153 -0.2399 -0.3879
  287CLA    CLA22415   5.017   1.230  17.058  0.0301  0.8377  0.1979
  288CLA    CLA22416   1.868   0.082   4.144  0.0488  0.0621 -0.5408
  289CLA    CLA22417   1.949   1.452  16.745 -0.0468 -0.1210 -0.3152
  290CLA    CLA22418   3.998   2.606   2.022  0.3161 -0.2348 -0.0795
  291CLA    CLA22419   3.262   2.289  12.058  0.2152  0.0285 -0.0059
  292CLA    CLA22420   6.600   3.182  16.360 -0.0187 -0.1592 -0.1767
  293CLA    CLA22421   1.214   4.317   2.897  0.2197  0.0056  0.4920
  294CLA    CLA22422   2.682   4.372  13.524  0.1109 -0.2449 -0.0063
  295CLA    CLA22423   0.920   4.494  14.875 -0.0580  0.1932 -0.3106
  296CLA    CLA22424   6.007   3.851  16.595 -0.1350  0.1021  0.2339
  297CLA    CLA22425   3.800   1.560   2.979  0.4853 -0.1042 -0.1567
  298CLA    CLA22426   6.351   2.286   3.096 -0.1078  0.5294 -0.0844
  299CLA    CLA22427   5.192   5.262  12.674  0.4470 -0.0507 -0.0787
  300CLA    CLA22428   6.207   1.246   4.602  0.1638 -0.2551 -0.3737
  301CLA    CLA22429   4.290   0.362   2.276  0.0796  0.0771  0.1073
  302CLA    CLA22430   6.577   3.415  12.996 -0.1694 -0.1042 -0.1878
  303CLA    CLA22431   6.797   1.163  16.848 -0.2952 -0.0134 -0.0672
  304CLA    CLA22432   4.805   4.608  13.859  0.1339  0.1248  0.1110
  305CLA    CLA22433   3.276   2.834   2.117  0.5404  0.3265 -0.0376
  306CLA    CLA22434   4.507   1.132  11.833 -0.2233  0.1916  0.4535
  307CLA    CLA22435   1.828   5.520  15.153  0.4319 -0.6013 -0.2296
  308CLA    CLA22436   0.981   5.308   1.739  0.2214 -0.1897 -0.2835
  309CLA    CLA22437   3.358   6.277   0.045 -0.0155  0.1006 -0.0986
  310CLA    CLA22438   5.000   2.561   0.855  0.4836 -0.3050 -0.2193
  311CLA    CLA22439   0.884   6.214   0.612 -0.1503  0.1617 -0.1336
  312CLA    CLA22440   2.177   4.798   4.004  0.2167 -0.2130  0.0553
  313CLA    CLA22441   4.914   5.326   0.884 -0.4243  0.0751 -0.5033
  314CLA    CLA22442   5.677   0.727   5.352 -0.2425  0.3618 -0.7339
  315CLA    CLA22443   2.857   0.734  12.118 -0.5719  0.4234 -0.0500
  316CLA    CLA22444   2.240   2.938   1.125  0.0238 -0.1041  0.5453
  317CLA    CLA22445   5.406   4.415   1.739  0.0244  0.0218  0.3975
  318CLA    CLA22446   0.981   0.484   4.797 -0.2946 -0.3290  0.1781
  319TIP3   OH222447   1.577   3.639  16.978  0.3083  0.0147  0.2275
  319TIP3    H122448   1.672   3.650  16.970  0.1888  1.3937  0.5420
  319TIP3    H222449   1.544   3.653  16.890  0.3962 -0.4081  0.1283
  320TIP3   OH222450   4.090   1.649   0.816  0.1050  0.0434 -0.0051
  320TIP3    H122451   4.045   1.567   0.797  0.5586  0.1601 -1.6853
  320TIP3    H222452   4.048   1.713   0.759 -0.4577  1.0490  1.5305
  321TIP3   OH222453   1.441   3.715   0.546  0.4424 -0.2155 -0.1079
  321TIP3    H122454   1.520   3.697   0.495  0.4615  0.0146 -0.1602
  321TIP3    H222455   1.387   3.768   0.488  0.7904  0.7013  0.3821
  322TIP3   OH222456   0.486   4.067   1.746  0.2620  0.5544  0.2088
  322TIP3    H122457   0.457   4.028   1.829 -1.5205  0.9273 -0.2178
  322TIP3    H222458   0.448   4.011   1.679  2.3745 -0.2205 -0.3811
  323TIP3   OH222459   0.831   0.925   2.747 -0.3528 -0.0944  0.0239
  323TIP3    H122460   0.774   0.963   2.680 -0.2582  0.0503  0.0248
  323TIP3    H222461   0.777   0.858   2.789 -0.0186 -1.0216 -0.9949
  324TIP3   OH222462   4.165   3.250   5.931 -0.6697  0.0351  0.3008
  324TIP3    H122463   4.107   3.296   5.993  0.6428  0.3976  1.2810
  324TIP3    H222464   4.243   3.229   5.982 -0.2497 -1.1455 -0.8063
  325TIP3   OH222465   6.028   3.153  12.093 -0.7338 -0.2405 -0.2421
  325TIP3    H122466   6.111   3.198  12.082 -0.5036 -1.0310 -1.8384
  325TIP3    H222467   5.962   3.222  12.092 -0.1022  0.3879  1.0768
  326TIP3   OH222468   5.266   6.594  13.545  0.4903 -0.3044  0.2828
  326TIP3    H122469   5.360   6.609  13.535  0.0561  2.1729 -0.2147
  326TIP3    H222470   5.255   6.501  13.526  2.9107 -0.7658  0.9273
  327TIP3   OH222471   6.715   5.571   6.333  0.2897  0.4740 -0.0582
  327TIP3    H122472   6.628   5.533   6.345  0.8935 -2.3328 -3.6949
  327TIP3    H222473   6.774   5.506   6.372  0.9685  0.4070 -1.1760
  328TIP3   OH222474   5.712   2.175   3.899 -0.4049 -0.0195 -0.0787
  328TIP3    H122475   5.665   2.092   3.891  0.8052 -0.9026  1.5238
  328TIP3    H222476   5.733   2.200   3.809 -0.1510 -1.8493 -0.5567
  329TIP3   OH222477   4.636   0.745  13.701 -0.2376  0.2680 -0.1611
  329TIP3    H122478   4.631   0.713  13.791 -0.1785  2.7284  0.7675
  329TIP3    H222479   4.705   0.811  13.703  0.3870 -0.2707 -2.2354
  330TIP3   OH222480   0.527   6.796  11.223 -0.7197  0.3309  0.1951
  330TIP3    H122481   0.446   6.745  11.214 -0.4115  0.0121 -0.9839
  330TIP3    H222482   0.504   6.883  11.190 -0.8596  0.5352  0.8382
  331TIP3   OH222483   1.256   5.682   1.961  0.4068  0.2950  0.4048
  331TIP3    H122484   1.210   5.743   2.018  1.0960 -0.8545  2.2362
  331TIP3    H222485   1.186   5.641   1.909 -0.4364  0.1405  1.6260
  332TIP3   OH222486   1.160   1.934   2.678 -0.1482  0.4949 -0.3858
  332TIP3    H122487   1.164   1.875   2.603 -0.8275  0.9720 -0.8127
  332TIP3    H222488   1.095   1.895   2.736  1.4557 -0.6573  0.6623
  333TIP3   OH222489   3.672   0.486   2.024 -0.0352 -0.2028  0.1942
  333TIP3    H122490   3.653   0.475   1.931  1.5026  1.2515 -0.3172
  333TIP3    H222491   3.586   0.486   2.067 -0.6908 -2.2924 -1.0330
  334TIP3   OH222492   1.762   2.559  12.805  0.0671  0.2358  0.2370
  334TIP3    H122493   1.843   2.609  12.809 -0.1513  0.7497 -1.2253
  334TIP3    H222494   1.701   2.609  12.859  0.4734  0.3556  0.5837
  335TIP3   OH222495   4.362   1.544   1.279 -0.1556 -0.1324 -0.3084
  335TIP3    H122496   4.441   1.578   1.323  0.0050 -1.8255  0.7368
  335TIP3    H222497   4.314   1.623   1.253 -0.0038  0.9254  2.4732
  336TIP3   OH222498   2.013   0.744   2.271 -0.5604  0.2929 -0.2529
  336TIP3    H122499   1.997   0.760   2.178 -0.5882  0.7208 -0.1724
  336TIP3    H222500   1.981   0.822   2.315 -0.5742  0.0765  0.1204
  337TIP3   OH222501   2.534   2.493   5.899 -0.1238 -0.2073 -0.4687
  337TIP3    H122502   2.531   2.561   5.966  0.5296  1.4733 -2.1085
  337TIP3    H222503   2.448   2.451   5.904  0.0045 -0.2901  1.5693
  338TIP3   OH222504   4.689   2.172   1.115  0.5040  0.1982 -0.0830
  338TIP3    H122505   4.730   2.194   1.031 -0.4775 -0.2770 -0.6897
  338TIP3    H222506   4.613   2.119   1.091  1.7271 -2.2469  1.2373
  339TIP3   OH222507   5.410   4.162   4.770 -0.4757 -0.3135  0.2485
  339TIP3    H122508   5.341   4.161   4.703  1.4176 -0.8692 -1.7178
  339TIP3    H222509   5.445   4.073   4.769  0.7766  0.1750  0.7360
  340TIP3   OH222510   5.304   5.469  11.902 -0.0312  0.4356  0.3798
  340TIP3    H122511   5.349   5.481  11.818  0.3313 -1.3466  0.3148
  340TIP3    H222512   5.231   5.410  11.883  0.4013 -0.4522  1.4438
  341TIP3   OH222513   6.500   3.032  15.818  0.3778  0.1450 -0.4916
  341TIP3    H122514   6.463   3.013  15.904 -0.6073 -0.7408 -1.0839
  341TIP3    H222515   6.555   2.957  15.798 -1.1658 -0.7420 -1.5680
  342TIP3   OH222516   6.573   0.225  15.670  0.3953  0.1259 -0.3105
  342TIP3    H122517   6.533   0.155  15.722  1.1469 -0.7520 -0.9059
  342TIP3    H222518   6.532   0.305  15.702 -1.1813 -0.6762 -0.2845
  343TIP3   OH222519   1.999   2.508  14.592 -0.2683 -0.2831 -0.5788
  343TIP3    H122520   1.993   2.535  14.684  0.9574  0.6662 -0.7659
  343TIP3    H222521   1.944   2.570  14.545 -0.0591 -0.1108 -0.6020
  344TIP3   OH222522   3.340   3.600  11.627  0.0775 -0.2216 -0.4287
  344TIP3    H122523   3.304   3.603  11.538  0.2670  1.4705 -0.4715
  344TIP3    H222524   3.345   3.507  11.648 -0.2016 -0.6295 -2.0974
  345TIP3   OH222525   6.322   5.887  13.511  0.6139 -0.3616 -0.2360
  345TIP3    H122526   6.251   5.850  13.459  1.0872 -0.4633 -0.8156
  345TIP3    H222527   6.341   5.971  13.470 -0.4932  0.5728  1.1083
  346TIP3   OH222528   4.552   6.353  13.780  0.1990 -0.1892  0.2869
  346TIP3    H122529   4.548   6.307  13.864  1.4480 -1.1240 -0.1494
  346TIP3    H222530   4.482   6.315  13.728 -1.1424  0.9984  1.1861
  347TIP3   OH222531   0.482   1.904  10.919 -0.4826 -0.2435  0.0501
  347TIP3    H122532   0.445   1.986  10.951  0.5484  0.1835  0.1828
  347TIP3    H222533   0.509   1.923  10.829 -0.2437 -0.4377  0.0810
  348TIP3   OH222534   6.007   4.594   2.302 -0.2267  0.5746 -0.4144
  348TIP3    H122535   6.003   4.536   2.378  3.1648  0.4838 -0.2335
  348TIP3    H222536   5.925   4.642   2.305 -0.7761 -0.4127  2.5176
  349TIP3   OH222537   4.327   5.391   6.542  0.0227 -0.6246 -0.4562
  349TIP3    H122538   4.331   5.308   6.590  3.1316  0.4507  1.2606
  349TIP3    H222539   4.382   5.378   6.465  0.2301 -0.2661 -0.3711
  350TIP3   OH222540   4.713   2.090   4.451  0.5660  0.1472  0.0671
  350TIP3    H122541   4.795   2.093   4.402  0.5219 -0.7933 -0.0769
  350TIP3    H222542   4.693   1.997   4.458 -1.7321  0.4113 -2.0227
  351TIP3   OH222543   1.883   3.464  14.176 -0.7218 -0.0459 -0.6749
  351TIP3    H122544   1.920   3.401  14.114 -0.8007  0.0717 -0.8437
  351TIP3    H222545   1.919   3.549  14.148 -1.0503  0.0581 -0.7909
  352TIP3   OH222546   0.740   2.581  17.038  0.5305  0.2645  0.2788
  352TIP3    H122547   0.720   2.502  16.988  1.1691  1.0354 -1.2181
  352TIP3    H222548   0.829   2.605  17.012 -0.3796  2.6303 -0.8893
  353TIP3   OH222549   3.954   4.464   5.843 -0.6285 -0.6898 -0.1858
  353TIP3    H122550   3.866   4.430   5.863 -1.3316  0.3645 -1.3760
  353TIP3    H222551   3.964   4.449   5.749  0.6412 -1.1490  0.0132
  354TIP3   OH222552   4.911   1.411   4.947 -0.0408 -0.1308 -0.3992
  354TIP3    H122553   4.820   1.420   4.976 -0.3674 -3.4152 -0.1676
  354TIP3    H222554   4.921   1.478   4.879 -2.0598  1.5037  0.8634
  355TIP3   OH222555   3.859   3.700  14.894 -0.0580  0.0602  0.0152
  355TIP3    H122556   3.924   3.769  14.901 -0.3486  0.4398 -0.8918
  355TIP3    H222557   3.856   3.679  14.800 -0.6729 -0.4978  0.1501
  356TIP3   OH222558   4.687   6.088  13.770  0.8695 -0.4144  0.5411
  356TIP3    H122559   4.682   6.120  13.681 -1.5532 -0.2311  0.6950
  356TIP3    H222560   4.731   6.157  13.819 -1.6176  1.3927  0.2935
  357TIP3   OH222561   4.153   4.733   6.637  0.1411 -0.3902  0.0402
  357TIP3    H122562   4.059   4.733   6.655  0.4088  2.3758  1.7136
  357TIP3    H222563   4.183   4.647   6.666 -1.8238 -1.2119 -0.2933
  358TIP3   OH222564   6.748   3.392  13.899  0.1933 -0.3171  0.1519
  358TIP3    H122565   6.680   3.428  13.956 -0.6438 -1.5827 -0.0476
  358TIP3    H222566   6.752   3.299  13.921  0.5253 -0.6307 -1.1857
  359TIP3   OH222567   5.156   6.769  17.187 -0.0525  0.1781  0.0579
  359TIP3    H122568   5.113   6.829  17.247 -1.3899  0.7645 -1.4576
  359TIP3    H222569   5.126   6.682  17.214 -0.2238  0.3964  0.5735
  360TIP3   OH222570   5.516   5.007  13.786  0.2136 -0.4695  0.1356
  360TIP3    H122571   5.446   4.943  13.798  0.3008 -0.6641 -0.3797
  360TIP3    H222572   5.587   4.959  13.744 -0.7014  0.5280 -2.7129
  361TIP3   OH222573   1.621   3.590   0.219 -0.1579  0.2061  0.3650
  361TIP3    H122574   1.527   3.607   0.220 -0.2695 -0.4171  0.5695
  361TIP3    H222575   1.657   3.655   0.158 -0.9224 -0.5934 -0.9745
  362TIP3   OH222576   4.561   5.398   1.156  0.1488 -0.0412 -0.1243
  362TIP3    H122577   4.570   5.485   1.117  1.6095 -0.3314 -0.4524
  362TIP3    H222578   4.551   5.414   1.249  2.0299  0.4124  0.0052
  363TIP3   OH222579   3.595   6.710  14.804 -0.4562  0.2032 -0.7329
  363TIP3    H122580   3.679   6.739  14.768 -1.1369  3.2120 -0.0550
  363TIP3    H222581   3.568   6.638  14.746  1.7350  0.3509 -2.0110
  364TIP3   OH222582   0.985   6.687   2.984 -0.1929  0.2293  0.7121
  364TIP3    H122583   0.996   6.686   2.889 -1.5019 -0.1089  0.5493
  364TIP3    H222584   0.976   6.595   3.008 -0.2371  0.3365  1.1067
  365TIP3   OH222585   0.423   4.621  15.591 -0.3573  0.5030  0.1694
  365TIP3    H122586   0.340   4.653  15.555 -1.9389 -2.8677  0.5902
  365TIP3    H222587   0.398   4.581  15.674  1.9253  0.5459  0.8919
  366TIP3   OH222588   1.033   4.540  12.944  0.1361 -0.5205  0.1193
  366TIP3    H122589   0.977   4.606  12.902  0.4637  0.9868  1.9965
  366TIP3    H222590   1.053   4.577  13.029  1.0871 -2.6726  0.8505
  367TIP3   OH222591   5.735   0.912  11.698  0.5335  0.4269  0.2904
  367TIP3    H122592   5.739   0.960  11.781 -1.1643 -0.4827  0.9265
  367TIP3    H222593   5.822   0.922  11.660  0.6844  2.6484  1.1660
  368TIP3   OH222594   3.283   2.523  14.979 -0.3572  0.0843  0.0600
  368TIP3    H122595   3.321   2.512  15.066 -1.0454 -0.4915  0.2835
  368TIP3    H222596   3.258   2.616  14.976 -0.4279  0.0831  0.5149
  369TIP3   OH222597   5.162   2.537  10.338 -0.6983  0.4482 -0.4833
  369TIP3    H122598   5.155   2.453  10.292  0.2179  0.3277 -0.4067
  369TIP3    H222599   5.253   2.541  10.366 -1.0451  0.8953  0.6080
  370TIP3   OH222600   5.379   4.964   2.298  0.7654  0.5491 -0.1868
  370TIP3    H122601   5.404   4.909   2.224  0.1426  0.6043 -0.4367
  370TIP3    H222602   5.352   5.047   2.259 -0.2692  0.3319  0.0416
  371TIP3   OH222603   4.587   3.174   5.070 -0.6583 -0.0927 -0.2865
  371TIP3    H122604   4.657   3.110   5.066  0.3701  0.9865  0.2825
  371TIP3    H222605   4.506   3.122   5.064  0.1523 -1.4365  0.3130
  372TIP3   OH222606   4.432   1.375  12.295 -0.4251 -0.3880 -0.0276
  372TIP3    H122607   4.432   1.351  12.387 -0.7342 -0.8783 -0.1503
  372TIP3    H222608   4.351   1.337  12.260 -2.1732  2.9330  0.2754
  373TIP3   OH222609   6.365   4.711  12.113 -0.4448 -0.0550 -0.1007
  373TIP3    H122610   6.293   4.770  12.092 -0.4621  0.2176  0.7277
  373TIP3    H222611   6.443   4.766  12.105 -0.1324 -0.8047 -2.8917
  374TIP3   OH222612   6.500   2.130  11.568  0.5648  0.3756 -0.0022
  374TIP3    H122613   6.580   2.178  11.589 -0.4956  1.7491  0.9669
  374TIP3    H222614   6.529   2.060  11.509  2.6085  0.2968  1.0558
  375TIP3   OH222615   2.023   5.811  11.865  0.3159 -1.1932  0.3815
  375TIP3    H122616   2.072   5.790  11.786  1.0674 -0.5011  0.6546
  375TIP3    H222617   2.083   5.787  11.937 -0.3026 -1.6876  0.7339
  376TIP3   OH222618   4.398   6.409  11.747 -0.0494  0.0769  0.1507
  376TIP3    H122619   4.323   6.462  11.773  0.2113  0.1593  0.7378
  376TIP3    H222620   4.474   6.466  11.758 -0.0531  0.5755 -2.1251
  377TIP3   OH222621   2.929   4.881   4.971 -0.0802  0.5640  0.1852
  377TIP3    H122622   2.865   4.922   5.029 -1.8138 -3.1042  0.9447
  377TIP3    H222623   3.010   4.880   5.022  0.1053  3.2535  0.0225
  378TIP3   OH222624   3.565   5.024  16.299  0.0656  0.6655  0.0577
  378TIP3    H122625   3.606   5.038  16.384 -0.0512 -1.7295  0.5627
  378TIP3    H222626   3.636   5.033  16.236  0.5960  0.2987  0.6001
  379TIP3   OH222627   6.354   2.109   5.710 -0.3620 -0.3282 -0.4298
  379TIP3    H122628   6.270   2.093   5.666 -0.6139 -0.3197  0.0390
  379TIP3    H222629   6.403   2.163   5.649 -0.6651 -0.4116 -0.7502
  380TIP3   OH222630   3.105   4.105   0.370  0.6516  0.2362 -0.0531
  380TIP3    H122631   3.110   4.009   0.368  0.9362  0.2652 -1.0533
  380TIP3    H222632   3.012   4.124   0.367  0.4753 -0.0384  2.4896
  381TIP3   OH222633   0.852   5.343  13.117 -0.1987 -0.0322  0.6647
  381TIP3    H122634   0.943   5.346  13.089 -0.9361 -1.2625 -2.1216
  381TIP3    H222635   0.815   5.426  13.085 -0.0078  0.5921  2.0400
  382TIP3   OH222636   4.635   3.875   0.664 -0.2432 -0.2558 -0.5252
  382TIP3    H122637   4.554   3.891   0.615 -0.5383 -0.5179 -0.1213
  382TIP3    H222638   4.633   3.782   0.683 -0.5379  0.0063  0.7280
  383TIP3   OH222639   4.172   1.223   2.294 -0.0442  0.3183  0.4248
  383TIP3    H122640   4.115   1.299   2.280  3.1419  2.5799 -0.8353
  383TIP3    H222641   4.185   1.186   2.206 -1.2949 -1.5417  0.9861
  384TIP3   OH222642   2.618   6.780   0.836  0.4030  0.2927 -0.4536
  384TIP3    H122643   2.586   6.845   0.773  0.6674  1.0559  0.1844
  384TIP3    H222644   2.661   6.713   0.783 -0.5503  0.2529 -1.1708
  385TIP3   OH222645   1.236   1.545   3.380  0.1045 -0.3884 -0.0684
  385TIP3    H122646   1.215   1.504   3.296 -0.0009 -0.9827  0.2496
  385TIP3    H222647   1.153   1.546   3.428 -0.8734  3.8863 -1.6320
  386TIP3   OH222648   1.860   3.370   5.767  0.3613  0.4052 -0.2410
  386TIP3    H122649   1.855   3.314   5.845  0.1599  1.2316  0.3482
  386TIP3    H222650   1.769   3.392   5.748  0.2468 -1.3166 -1.8479
  387TIP3   OH222651   0.056   6.277   3.663 -0.6277  0.0270  0.5154
  387TIP3    H122652   0.113   6.202   3.680  0.7079  0.7998 -0.3945
  387TIP3    H222653  -0.030   6.239   3.645  0.6578 -1.5223 -2.8173
  388TIP3   OH222654   5.009   2.400  16.366  0.3070 -0.2473 -0.3054
  388TIP3    H122655   4.970   2.409  16.453  1.0523 -3.0077  0.3727
  388TIP3    H222656   5.099   2.432  16.377 -0.3870  1.9738 -0.7835
  389TIP3   OH222657   6.552   3.798  16.481 -0.3132  0.3362  0.2861
  389TIP3    H122658   6.471   3.780  16.433 -0.7061 -0.3209  1.1647
  389TIP3    H222659   6.544   3.746  16.561 -0.0109  1.9794  1.4117
  390TIP3   OH222660   2.970   2.208  16.629  0.0342 -0.2698 -0.1057
  390TIP3    H122661   2.924   2.266  16.568  0.9560 -0.7159 -1.2569
  390TIP3    H222662   2.954   2.246  16.715 -0.6054  0.8504 -0.7072
  391TIP3   OH222663   0.380   3.255  15.608  0.1790  0.0745  0.2925
  391TIP3    H122664   0.430   3.300  15.540  1.6467 -2.6704 -0.5356
  391TIP3    H222665   0.446   3.226  15.671 -0.7904 -0.4606  1.0763
  392TIP3   OH222666   0.369   5.335  15.830 -0.2351  0.7752  0.3708
  392TIP3    H122667   0.332   5.256  15.790 -0.7853  1.2027  0.0256
  392TIP3    H222668   0.455   5.344  15.789  0.8449 -0.9732  2.1527
  393TIP3   OH222669   3.165   3.331  13.198 -0.0894 -0.4704 -0.4422
  393TIP3    H122670   3.204   3.305  13.114 -2.3910 -0.3230 -1.6006
  393TIP3    H222671   3.226   3.395  13.234  0.5884  0.0178 -2.3801
  394TIP3   OH222672   2.907   2.062   3.355 -0.4180  0.0893 -0.6849
  394TIP3    H122673   2.889   1.975   3.391  0.0415  0.7160  1.1168
  394TIP3    H222674   2.986   2.049   3.302 -0.1631 -0.5402 -0.1698
  395TIP3   OH222675   2.660   5.319  16.197  0.3159  0.0517  0.3999
  395TIP3    H122676   2.719   5.310  16.122 -0.1948 -0.1616  0.0244
  395TIP3    H222677   2.618   5.404  16.184  1.7767  0.9788  1.5581
  396TIP3   OH222678   5.137   0.738   2.631  0.6965  0.2547  0.3419
  396TIP3    H122679   5.191   0.751   2.710 -0.7312  0.2846  1.3343
  396TIP3    H222680   5.066   0.801   2.640 -1.6958 -2.4116  1.0331
  397TIP3   OH222681   6.782   2.914  12.971 -0.2706 -0.0933 -0.6085
  397TIP3    H122682   6.754   2.903  13.062 -0.7490 -1.3165 -0.8881
  397TIP3    H222683   6.787   3.009  12.958  0.1588  0.0799  0.8023
  398TIP3   OH222684   5.888   1.004   0.514 -0.2132  0.7818  0.4851
  398TIP3    H122685   5.835   0.991   0.435  1.1510 -1.1467 -0.1508
  398TIP3    H222686   5.913   1.096   0.511 -0.6470  0.8608 -1.0470
  399TIP3   OH222687   2.113   4.725   3.417 -0.2113  0.3656 -0.0888
  399TIP3    H122688   2.186   4.732   3.478 -0.8026  1.4143  0.5250
  399TIP3    H222689   2.060   4.803   3.435 -0.9802  0.1015 -1.1705
  400TIP3   OH222690   1.305   1.207   2.052 -0.8478  0.2734 -0.1230
  400TIP3    H122691   1.259   1.288   2.074 -1.6774 -0.9802  3.0608
  400TIP3    H222692   1.237   1.151   2.013 -0.8373  0.2759 -0.1442
  401TIP3   OH222693   1.137   6.579   1.016  0.8958  0.1232  0.5201
  401TIP3    H122694   1.160   6.664   0.978 -1.3973  0.4494 -0.2227
  401TIP3    H222695   1.093   6.533   0.945 -1.2254 -0.2263  2.0249
  402TIP3   OH222696   4.660   3.229  14.537 -0.5426 -0.0059 -0.1168
  402TIP3    H122697   4.718   3.222  14.613  0.4770  0.3348 -0.8699
  402TIP3    H222698   4.658   3.142  14.499 -2.9281 -0.8030  1.6462
  403TIP3   OH222699   2.143   4.941  11.419 -0.2813  0.3982 -0.8020
  403TIP3    H122700   2.227   4.983  11.402 -0.7808 -0.3104 -5.5160
  403TIP3    H222701   2.164   4.848  11.429 -0.4447  0.2908 -1.4514
  404TIP3   OH222702   5.781   0.333  15.266 -0.8485 -0.0935  0.0684
  404TIP3    H122703   5.688   0.318  15.280 -0.3690 -1.9499  1.4540
  404TIP3    H222704   5.814   0.362  15.351 -0.4520  2.1635 -0.8349
  405TIP3   OH222705   2.552   4.336   5.902  0.5170 -1.2485  0.0750
  405TIP3    H122706   2.647   4.326   5.900  0.7492  1.0145 -0.9037
  405TIP3    H222707   2.532   4.358   5.993  1.0744 -0.4592  0.0116
  406TIP3   OH222708   5.814   6.617  12.779  0.2345 -0.3040  0.5726
  406TIP3    H122709   5.794   6.531  12.817  0.7030 -0.7702 -0.2312
  406TIP3    H222710   5.730   6.646  12.742  0.0731 -0.4087  0.8505
  407TIP3   OH222711   2.450   5.370  12.461 -0.7894  0.5337  0.5413
  407TIP3    H122712   2.522   5.318  12.424  0.3542  2.5959 -0.2156
  407TIP3    H222713   2.411   5.312  12.527 -0.1358 -1.6089 -0.8749
  408TIP3   OH222714   3.520   5.370   0.972 -0.2236 -0.0707 -0.5525
  408TIP3    H122715   3.580   5.438   1.001  0.8702 -0.5172 -1.7522
  408TIP3    H222716   3.443   5.380   1.029  1.0040  0.4455  1.0600
  409TIP3   OH222717   4.144   4.682  12.374 -0.0156 -0.6254 -0.1569
  409TIP3    H122718   4.090   4.609  12.402  0.5570 -0.2873  1.8811
  409TIP3    H222719   4.082   4.749  12.346 -0.5673 -1.4049 -0.8106
  410TIP3   OH222720   0.699   0.907   0.676 -0.0336  0.2833  0.5101
  410TIP3    H122721   0.787   0.904   0.640 -0.0252  0.0285  0.5472
  410TIP3    H222722   0.641   0.907   0.600 -0.0098  0.0329  0.4913
  411TIP3   OH222723   6.715   2.983   3.162  0.0406 -0.2093  0.1396
  411TIP3    H122724   6.802   2.944   3.154 -1.0111 -2.4984 -0.6119
  411TIP3    H222725   6.657   2.908   3.180 -2.0003  1.0548 -1.0176
  412TIP3   OH222726   4.369   5.819  14.629  0.7392 -0.7352 -0.0724
  412TIP3    H122727   4.288   5.866  14.651  0.3700 -0.1198 -2.5818
  412TIP3    H222728   4.341   5.729  14.612  0.8949 -0.9997  1.0293
  413TIP3   OH222729   6.542   5.486  12.934 -0.0952 -0.3955 -0.0659
  413TIP3    H122730   6.505   5.404  12.966  2.4365 -1.0651  1.2413
  413TIP3    H222731   6.606   5.460  12.868 -0.0061  0.5927 -0.3770
  414TIP3   OH222732   6.634   4.180  16.462 -0.5710 -0.2500  0.3494
  414TIP3    H122733   6.565   4.241  16.486 -0.4192 -0.5182  1.5181
  414TIP3    H222734   6.631   4.112  16.530  0.5572 -0.4821  0.1869
  415TIP3   OH222735   2.163   0.422  14.927  0.4189  0.0564 -0.0920
  415TIP3    H122736   2.069   0.416  14.943  0.2825  1.0862 -0.4722
  415TIP3    H222737   2.170   0.436  14.833  1.1144 -3.6664 -0.6568
  416TIP3   OH222738   2.221   5.154  13.692 -0.0952 -0.0513  0.5615
  416TIP3    H122739   2.267   5.203  13.624 -0.7787  0.1813  0.2646
  416TIP3    H222740   2.153   5.214  13.723 -1.6020 -1.1447 -0.5017
  417TIP3   OH222741   4.504   4.654  12.106  0.8354 -1.1599  0.4025
  417TIP3    H122742   4.436   4.594  12.135  1.6623 -2.0639  0.5128
  417TIP3    H222743   4.557   4.602  12.045 -0.0695  0.2997 -1.6901
  418TIP3   OH222744   5.003   6.399   3.505 -0.0716  0.0019  0.2175
  418TIP3    H122745   5.034   6.456   3.575 -1.2882  0.1847  0.6170
  418TIP3    H222746   4.939   6.342   3.547  1.1808 -1.7248 -0.1681
  419TIP3   OH222747   4.246   3.435   1.488  0.2821 -0.3055  0.5268
  419TIP3    H122748   4.192   3.512   1.505 -1.4287 -1.2019 -0.6326
  419TIP3    H222749   4.189   3.361   1.511  0.8851 -1.2870 -1.0485
  420TIP3   OH222750   0.934   2.767  15.851 -0.3999 -0.6182  0.4578
  420TIP3    H122751   0.941   2.730  15.939  0.2136 -0.6930  0.3788
  420TIP3    H222752   0.886   2.702  15.801 -0.1472 -0.8823  0.5603
  421TIP3   OH222753   0.494   2.971  16.691  0.4128  0.1170 -0.1171
  421TIP3    H122754   0.519   3.007  16.606  1.6451 -0.0604  0.1610
  421TIP3    H222755   0.455   2.886  16.671  0.8365  0.0101 -0.5085
  422TIP3   OH222756   4.134   6.623  15.775  0.7409 -0.0140 -0.0883
  422TIP3    H122757   4.150   6.556  15.709  0.0074 -1.3403  1.0624
  422TIP3    H222758   4.157   6.581  15.858  0.6349  1.2866  0.6171
  423TIP3   OH222759   3.866   2.374  16.322 -0.5487 -0.1402 -0.7521
  423TIP3    H122760   3.940   2.417  16.280 -0.4328  0.2008 -0.2047
  423TIP3    H222761   3.803   2.445  16.338 -0.1887 -0.0960  0.5172
  424TIP3   OH222762   5.836   3.842   1.359  0.1179  0.4951 -0.3800
  424TIP3    H122763   5.820   3.932   1.390  0.9483  1.0661 -1.5697
  424TIP3    H222764   5.759   3.821   1.306  1.0106  1.3997 -2.0538
  425TIP3   OH222765   3.220   6.818  15.398  0.1214 -0.5440 -0.1791
  425TIP3    H122766   3.276   6.758  15.348 -0.6651 -1.6585  0.2462
  425TIP3    H222767   3.153   6.845  15.336  0.9835  0.6102 -0.6245
  426TIP3   OH222768   4.803   1.689  13.024 -0.4574  0.4134  0.1802
  426TIP3    H122769   4.725   1.715  12.975  1.2192  0.4945 -2.5212
  426TIP3    H222770   4.840   1.771  13.055 -1.3245  0.3891  1.3051
  427TIP3   OH222771   5.009   2.464   0.082  0.0767 -0.0490  0.1355
  427TIP3    H122772   4.999   2.375   0.048 -2.5128 -0.2017  1.1865
  427TIP3    H222773   5.092   2.462   0.130 -0.3393 -2.1466  0.8310
  428TIP3   OH222774   4.434   0.516  13.293  0.0225 -0.2091  0.4529
  428TIP3    H122775   4.496   0.550  13.357  0.4032 -0.3730  0.1697
  428TIP3    H222776   4.484   0.509  13.212 -0.8289  1.2995 -0.2170
  429TIP3   OH222777   1.774   6.752  15.062 -0.0753 -0.3632 -0.2440
  429TIP3    H122778   1.688   6.717  15.086 -1.4905  1.8937 -1.8134
  429TIP3    H222779   1.794   6.816  15.131  0.3200 -0.8363  0.0822
  430TIP3   OH222780   1.622   4.781  16.051  0.2094  0.5760  0.2953
  430TIP3    H122781   1.659   4.825  15.975  0.0772 -2.6026 -1.6911
  430TIP3    H222782   1.532   4.813  16.057 -1.3008 -2.4707 -3.7358
  431TIP3   OH222783   1.448   5.703  12.241  0.3658  0.2221 -0.0567
  431TIP3    H122784   1.502   5.765  12.192 -1.9747  1.5661 -0.9993
  431TIP3    H222785   1.418   5.640  12.175 -1.8132  1.3454 -0.1837
  432TIP3   OH222786   4.240   5.387  12.416  0.0057  0.0613 -0.0630
  432TIP3    H122787   4.313   5.355  12.470 -0.8606  0.3384  1.2895
  432TIP3    H222788   4.249   5.482  12.418 -2.2552  0.2743  2.8056
  433TIP3   OH222789   4.915   0.573   0.547  0.2197  0.2528 -0.0626
  433TIP3    H122790   4.820   0.560   0.547  0.3967 -1.1364  0.0483
  433TIP3    H222791   4.927   0.666   0.533 -1.2046  0.7088  1.5801
  434TIP3   OH222792   4.195   1.629  13.000 -0.2066 -0.9394 -0.1165
  434TIP3    H122793   4.252   1.580  12.941 -1.5987 -1.1413 -1.3241
  434TIP3    H222794   4.222   1.602  13.088  3.2527  0.8508 -0.5218
  435TIP3   OH222795   1.120   5.105   4.622  0.0055 -0.0954 -0.2200
  435TIP3    H122796   1.100   5.011   4.622 -1.5343  0.2232  0.9658
  435TIP3    H222797   1.130   5.127   4.715  1.4433  0.6960 -0.5517
  436TIP3   OH222798   2.283   4.139   3.382 -0.3078 -0.4444 -0.5005
  436TIP3    H122799   2.369   4.182   3.371  0.2811 -0.9277  1.9887
  436TIP3    H222800   2.238   4.191   3.448 -1.3475 -1.0841 -0.6904
  437TIP3   OH222801   1.832   1.291  11.417  0.7432 -0.2611 -0.2602
  437TIP3    H122802   1.822   1.380  11.384 -0.5001 -0.2997 -0.0010
  437TIP3    H222803   1.887   1.301  11.495 -1.3266  0.5802  1.1175
  438TIP3   OH222804   3.672   3.240   1.232 -0.1033 -0.4991 -0.3840
  438TIP3    H122805   3.599   3.253   1.293  0.5613  1.0496  0.1232
  438TIP3    H222806   3.745   3.214   1.288  0.2635  0.0014 -0.6274
  439TIP3   OH222807   4.842   1.613  17.192 -0.3207 -0.2047 -0.3400
  439TIP3    H122808   4.789   1.533  17.196 -0.6944  0.1260  1.4840
  439TIP3    H222809   4.811   1.666  17.265  1.9445  0.3454  0.2430
  440TIP3   OH222810   0.972   2.959   1.105  0.1437  0.0365  0.2696
  440TIP3    H122811   0.897   3.008   1.138 -0.9174 -0.9931 -0.6052
  440TIP3    H222812   1.011   3.017   1.039  0.7265  0.9837  1.4135
  441TIP3   OH222813   2.555   6.223  16.855 -0.0884  0.1138 -0.1548
  441TIP3    H122814   2.552   6.128  16.854 -0.9292  0.0775  2.1963
  441TIP3    H222815   2.648   6.244  16.861  0.1828 -0.4970 -1.8174
  442TIP3   OH222816   5.036   1.076   3.598 -0.0753 -0.1171 -0.0889
  442TIP3    H122817   5.069   0.989   3.575 -0.2464 -0.6388  1.5481
  442TIP3    H222818   4.979   1.100   3.525 -0.4375 -1.6056 -0.3319
  443TIP3   OH222819   0.723   0.529   1.919  0.4908 -0.5441 -0.5382
  443TIP3    H122820   0.701   0.445   1.878  2.6829 -1.4819  0.1057
  443TIP3    H222821   0.809   0.514   1.958  0.8180  1.9579 -0.2364
  444TIP3   OH222822   2.665   3.401   0.461 -0.1124 -0.0715 -0.1118
  444TIP3    H122823   2.714   3.471   0.418  0.7910 -0.9517 -0.5224
  444TIP3    H222824   2.676   3.418   0.555 -0.2876  0.5991 -0.2098
  445TIP3   OH222825   0.182   2.601  11.476  0.0663 -0.2270 -0.6276
  445TIP3    H122826   0.256   2.636  11.427  1.2393 -1.6750  0.0988
  445TIP3    H222827   0.124   2.677  11.487  1.1838  0.8021 -1.6264
  446TIP3   OH222828   2.642   5.679  13.727 -0.0849  0.2780 -0.3521
  446TIP3    H122829   2.723   5.727  13.707 -0.2013  0.7480  0.2829
  446TIP3    H222830   2.657   5.591  13.692  1.4086 -0.1657  1.3158
  447TIP3   OH222831   4.800   3.536   0.529 -0.3686  0.2066  0.2853
  447TIP3    H122832   4.859   3.461   0.523  1.1040  1.1696  2.1257
  447TIP3    H222833   4.841   3.603   0.475 -1.7004 -0.3068 -1.3817
  448TIP3   OH222834   4.455   2.648  13.783 -0.0643 -0.4244 -0.1101
  448TIP3    H122835   4.502   2.608  13.856 -0.0518  0.5191  0.4098
  448TIP3    H222836   4.394   2.581  13.754  1.4137 -1.5794 -0.6251
  449TIP3   OH222837   2.417   6.673  11.463  0.3317  0.3647  0.3376
  449TIP3    H122838   2.396   6.582  11.444  0.4745 -0.1805  2.5926
  449TIP3    H222839   2.406   6.719  11.380  0.5793 -1.7619 -0.8927
  450TIP3   OH222840   1.327   3.736  13.986 -0.0582 -0.1683  0.1627
  450TIP3    H122841   1.344   3.670  14.053 -3.1237  0.6278  1.8280
  450TIP3    H222842   1.317   3.818  14.036 -0.2207  0.8336 -1.4810
  451TIP3   OH222843   1.401   1.871   3.946  0.7722 -0.2105 -0.0763
  451TIP3    H122844   1.484   1.825   3.937  1.7007  1.3672  0.2809
  451TIP3    H222845   1.424   1.964   3.939 -0.8632  0.2744  0.7517
  452TIP3   OH222846   1.209   6.225   6.035  0.5498  0.6698  0.1425
  452TIP3    H122847   1.131   6.241   5.982  0.6723  0.4473 -0.1060
  452TIP3    H222848   1.176   6.214   6.124  0.3474  1.0910  0.1174
  453TIP3   OH222849   2.163   5.417  16.016 -0.6922 -0.0430  0.4829
  453TIP3    H122850   2.070   5.420  16.036 -0.4268 -0.5015  1.8164
  453TIP3    H222851   2.203   5.477  16.078 -0.1460  0.6143 -0.4797
  454TIP3   OH222852   4.545   6.215   4.842 -0.4715 -0.4308 -0.5400
  454TIP3    H122853   4.616   6.253   4.893  0.1683 -3.1505  0.7103
  454TIP3    H222854   4.560   6.246   4.753  2.6063 -1.3154 -0.4013
  455TIP3   OH222855   3.543   4.768   3.167 -0.3845  0.5557 -0.2853
  455TIP3    H122856   3.518   4.755   3.259 -0.5800  1.1581 -0.2506
  455TIP3    H222857   3.498   4.698   3.120 -0.1550  0.1467  0.0985
  456TIP3   OH222858   3.580   3.369  12.835  0.3220  0.2157  0.1362
  456TIP3    H122859   3.547   3.376  12.746  1.1549  0.4764 -0.1568
  456TIP3    H222860   3.644   3.297  12.831 -0.3128 -0.3855  0.7232
  457TIP3   OH222861   2.174   5.830   5.378  0.0356 -0.5226  0.0622
  457TIP3    H122862   2.268   5.841   5.394  0.6099 -1.8457 -2.2823
  457TIP3    H222863   2.140   5.920   5.372  1.1973 -0.0403  0.5527
  458TIP3   OH222864   0.202   6.115  14.935  0.2595  0.1158 -0.6568
  458TIP3    H122865   0.140   6.181  14.905  0.3554 -0.2455 -1.6751
  458TIP3    H222866   0.260   6.161  14.996  0.3415  0.9737 -1.3817
  459TIP3   OH222867   6.724   5.075  13.954  0.1669 -0.4926 -0.2820
  459TIP3    H122868   6.709   5.062  14.048 -0.0701 -0.2402 -0.2833
  459TIP3    H222869   6.812   5.041  13.939  0.7460  0.7392  0.2855
  460TIP3   OH222870   4.544   6.544  15.975 -0.1321 -0.1698 -0.3185
  460TIP3    H122871   4.631   6.542  16.015  0.0090  0.0598 -0.6143
  460TIP3    H222872   4.484   6.558  16.049 -0.2712 -4.2754  0.4180
  461TIP3   OH222873   1.161   4.085   2.509 -0.4781 -0.5952  0.6225
  461TIP3    H122874   1.231   4.123   2.457 -0.1345 -0.5682  1.0996
  461TIP3    H222875   1.205   4.017   2.561 -0.7911 -0.5231  0.9806
  462TIP3   OH222876   1.610   2.608   3.645  0.1189  0.0134  0.2233
  462TIP3    H122877   1.634   2.643   3.731  0.1354 -1.2036  0.7406
  462TIP3    H222878   1.678   2.542   3.627  0.3744  0.5817 -0.9373
  463TIP3   OH222879   4.832   3.495   4.329  0.3162  0.0326 -0.3303
  463TIP3    H122880   4.856   3.490   4.422 -0.7441 -1.1723 -0.1118
  463TIP3    H222881   4.822   3.403   4.302 -0.4191  0.4149 -1.3653
  464TIP3   OH222882   6.288   5.090  13.190 -0.3181 -0.5873  0.3320
  464TIP3    H122883   6.317   5.182  13.193  0.7008 -0.9400  1.5945
  464TIP3    H222884   6.262   5.077  13.099 -1.6516  1.3117  0.3957
  465TIP3   OH222885   2.679   5.735   4.154  0.1468 -0.2646 -0.5437
  465TIP3    H122886   2.622   5.660   4.137 -1.4583  0.9830 -0.8353
  465TIP3    H222887   2.639   5.807   4.103  1.9643  0.6398 -0.7176
  466TIP3   OH222888   3.182   3.466   1.439 -0.4790 -0.4410 -0.3485
  466TIP3    H122889   3.176   3.370   1.438  1.3175 -0.5892  0.4859
  466TIP3    H222890   3.181   3.489   1.532  0.2995  0.2520 -0.5051
  467TIP3   OH222891   3.609   6.061   0.105  0.3171  0.0357  0.0139
  467TIP3    H122892   3.554   6.128   0.065 -1.6529 -0.2150  2.1794
  467TIP3    H222893   3.688   6.107   0.133 -0.2372  1.0920 -0.1624
  468TIP3   OH222894   4.017   0.839   5.458 -0.4109  0.0828  0.2191
  468TIP3    H122895   3.989   0.925   5.425  1.3534  0.3387 -0.6643
  468TIP3    H222896   3.935   0.794   5.480 -1.3723  1.8896  0.4694
  469TIP3   OH222897   1.273   2.182   2.653  0.3995 -0.4272  0.6068
  469TIP3    H122898   1.207   2.113   2.652  1.0068 -1.0061  0.3694
  469TIP3    H222899   1.317   2.174   2.568  0.8756 -0.1334  0.8252
  470TIP3   OH222900   2.263   0.122   0.387 -0.6358  0.1297  0.1552
  470TIP3    H122901   2.193   0.184   0.405 -1.0939 -0.0207 -1.0846
  470TIP3    H222902   2.344   0.174   0.393 -0.8544  0.3537  1.3376
  471TIP3   OH222903   4.033   5.000  13.131 -0.3268 -0.4082  0.0911
  471TIP3    H122904   3.973   5.074  13.119 -1.0290 -0.6204  2.1090
  471TIP3    H222905   3.985   4.925  13.096 -0.4245 -0.2380 -0.1434
  472TIP3   OH222906   3.484   1.827  12.462 -0.1744 -0.2035 -0.0522
  472TIP3    H122907   3.534   1.747  12.443 -0.0435 -0.2147  0.3304
  472TIP3    H222908   3.504   1.885  12.389  1.3258  0.2196  0.6826
  473TIP3   OH222909   5.104   3.052   5.970  0.2764 -0.3149 -0.3435
  473TIP3    H122910   5.158   3.131   5.976 -0.0133 -0.0803 -0.8479
  473TIP3    H222911   5.020   3.077   6.008  0.3193 -0.5102 -0.1120
  474TIP3   OH222912   2.247   3.115   2.967 -0.0635 -0.0434  0.3777
  474TIP3    H122913   2.157   3.146   2.970  0.3338  1.2657 -0.7071
  474TIP3    H222914   2.277   3.118   3.058 -0.7500  0.6239  0.5845
  475TIP3   OH222915   4.151   6.791   4.733 -0.1979  0.0622  0.3683
  475TIP3    H122916   4.178   6.819   4.645 -0.0586 -1.5657 -0.1221
  475TIP3    H222917   4.061   6.762   4.722  0.6063 -2.5704  0.1732
  476TIP3   OH222918   3.213   6.630   2.230 -0.4323 -0.1030  0.0435
  476TIP3    H122919   3.277   6.686   2.185 -0.0135 -0.9335 -0.3901
  476TIP3    H222920   3.128   6.657   2.193 -0.3194  0.8232  0.4367
  477TIP3   OH222921   1.688   2.500  13.621 -0.2120 -0.4018 -0.1023
  477TIP3    H122922   1.605   2.453  13.632 -1.3364  1.3062 -1.2027
  477TIP3    H222923   1.738   2.479  13.700 -1.6451 -1.5293  0.5138
  478TIP3   OH222924   3.599   0.531   3.245  0.0480 -0.1277  0.1177
  478TIP3    H122925   3.677   0.586   3.253 -1.1887  1.7817 -0.3496
  478TIP3    H222926   3.622   0.466   3.179  1.6280 -0.3223  0.8318
  479TIP3   OH222927   1.504   6.794   3.367 -0.8029  0.0231  0.0850
  479TIP3    H122928   1.561   6.801   3.290  0.0159  0.0210  0.6825
  479TIP3    H222929   1.559   6.752   3.433 -1.6305 -0.3361  0.5483
  480TIP3   OH222930   2.952   3.157  12.755 -0.3996 -0.0310 -0.3654
  480TIP3    H122931   2.906   3.083  12.715 -2.3433  0.2394  1.2777
  480TIP3    H222932   2.888   3.196  12.814  1.1767  1.8936  0.1333
  481TIP3   OH222933   5.270   1.199   4.567  0.4305 -0.3264 -0.0532
  481TIP3    H122934   5.290   1.270   4.628 -1.7372  1.0913 -0.9345
  481TIP3    H222935   5.183   1.219   4.533  0.8038 -2.0647 -2.2280
  482TIP3   OH222936   3.147   0.529   6.275  0.2681  0.3732  0.6782
  482TIP3    H122937   3.062   0.525   6.318 -0.3708 -1.2182 -0.6438
  482TIP3    H222938   3.177   0.619   6.288 -1.2574  0.7366  1.8214
  483TIP3   OH222939   2.443   0.669  12.529  0.2085 -0.9580  0.3692
  483TIP3    H122940   2.510   0.726  12.492  1.0174 -0.4248  2.5826
  483TIP3    H222941   2.473   0.580  12.508  0.3298 -0.6732 -0.7369
  484TIP3   OH222942   0.483   5.316  16.956  0.0403 -0.4665  0.5441
  484TIP3    H122943   0.568   5.289  16.920 -0.3571  0.8754 -1.4637
  484TIP3    H222944   0.504   5.355  17.040  1.7943  2.6353 -1.2509
  485TIP3   OH222945   0.669   5.909   6.629 -0.6523  0.2682  0.0191
  485TIP3    H122946   0.730   5.913   6.703 -1.0931 -0.2373  0.4120
  485TIP3    H222947   0.699   5.979   6.571 -0.3565  0.7361  0.7157
  486TIP3   OH222948   1.916   3.412  11.468 -0.0293 -0.4626 -0.0655
  486TIP3    H122949   1.826   3.435  11.490  0.6230  1.3800  0.6886
  486TIP3    H222950   1.948   3.362  11.543 -0.1551 -0.4324  0.0068
  487TIP3   OH222951   5.643   1.581  12.006  0.0300  0.5333 -0.1796
  487TIP3    H122952   5.615   1.672  11.997  0.0982  0.4925 -0.8339
  487TIP3    H222953   5.731   1.579  11.969  0.3325  0.3604  0.5498
  488TIP3   OH222954   5.482   5.953  14.899 -0.2629 -0.1258  0.7766
  488TIP3    H122955   5.394   5.914  14.900 -0.4920  0.3020 -0.9824
  488TIP3    H222956   5.498   5.977  14.990 -1.2732 -1.7397  1.4032
  489TIP3   OH222957   0.685   6.570   0.798  0.4569 -0.2136 -0.5728
  489TIP3    H122958   0.707   6.586   0.890  0.6912 -1.9865 -0.3164
  489TIP3    H222959   0.592   6.546   0.800  0.5734 -0.6712 -0.7611
  490TIP3   OH222960   3.166   0.316   1.723 -0.3617  0.5037 -0.0012
  490TIP3    H122961   3.129   0.303   1.636  0.4029 -1.0393 -0.1157
  490TIP3    H222962   3.109   0.265   1.781  0.1236  0.1342  0.1557
  491TIP3   OH222963   5.795   4.008  16.770 -0.2375 -0.2157 -0.3794
  491TIP3    H122964   5.818   4.094  16.735 -0.6451 -0.1288 -0.4288
  491TIP3    H222965   5.862   3.949  16.734  0.8460  0.3030  0.7368
  492TIP3   OH222966   6.752   6.752   1.931  0.3348 -0.0769  0.3222
  492TIP3    H122967   6.705   6.734   2.013 -1.4043  0.7727 -0.4741
  492TIP3    H222968   6.829   6.695   1.936 -0.6903 -1.4183  1.7151
  493TIP3   OH222969   5.879   1.485  11.870 -0.1972 -0.5220  0.2096
  493TIP3    H122970   5.865   1.514  11.780 -1.5462  1.0239  0.8935
  493TIP3    H222971   5.895   1.391  11.863 -1.4041 -0.6194 -1.5449
  494TIP3   OH222972   4.669   1.535   5.021 -0.2417 -0.0420 -0.0721
  494TIP3    H122973   4.588   1.551   5.069 -1.7946 -0.5570 -2.4219
  494TIP3    H222974   4.668   1.600   4.950  1.6682  0.2905  0.1877
  495TIP3   OH222975   6.812   2.761  15.132 -0.2055 -0.2436  0.5043
  495TIP3    H122976   6.795   2.808  15.213  1.4600  1.0079  0.1744
  495TIP3    H222977   6.867   2.821  15.081  1.5878 -2.3502 -0.1350
  496TIP3   OH222978   4.493   0.970  14.110  0.0515  0.3915 -0.5891
  496TIP3    H122979   4.404   1.004  14.112 -0.7929 -1.7998  1.0536
  496TIP3    H222980   4.500   0.915  14.188  3.1051  1.1301 -0.2727
  497TIP3   OH222981   0.288   0.011  16.521 -0.2932  0.4056  0.1956
  497TIP3    H122982   0.316  -0.076  16.548  1.3048  0.2420 -1.8592
  497TIP3    H222983   0.311   0.068  16.595 -0.8742 -0.8174  1.3344
  498TIP3   OH222984   2.689   5.811   5.277  0.2505 -0.1342  0.5644
  498TIP3    H122985   2.633   5.849   5.208  2.0139  0.2312 -0.7125
  498TIP3    H222986   2.660   5.854   5.357  1.2140  2.9020 -0.6318
  499TIP3   OH222987   2.561   0.021  12.986  0.0857 -0.7007 -0.0791
  499TIP3    H122988   2.527  -0.060  12.946 -0.4224  0.4728 -2.0713
  499TIP3    H222989   2.531   0.091  12.928  1.0981  0.8769  1.2663
  500TIP3   OH222990   5.646   5.028   3.069  0.3412  0.5427  0.2120
  500TIP3    H122991   5.632   4.946   3.117  2.3159  0.1953  0.2226
  500TIP3    H222992   5.632   5.097   3.134  2.7262  0.0864  1.2615
  501TIP3   OH222993   0.658   5.064  11.560  0.2548  0.1875 -0.1815
  501TIP3    H122994   0.576   5.101  11.592  0.5441 -1.3600  2.5021
  501TIP3    H222995   0.632   4.992  11.503 -0.2607  1.5620 -1.6976
  502TIP3   OH222996   2.072   0.138  14.799 -0.1373 -0.3912  0.1429
  502TIP3    H122997   2.083   0.104  14.888  1.9576 -1.3059 -0.4163
  502TIP3    H222998   2.160   0.134  14.761 -0.6631  1.6735 -1.3826
  503TIP3   OH222999   6.331   4.292   2.736 -0.2150 -0.0508  0.0091
  503TIP3    H123000   6.373   4.321   2.817  0.2117 -0.2978 -0.1225
  503TIP3    H223001   6.403   4.258   2.682 -0.4783  0.2224 -0.5206
  504TIP3   OH223002   3.445   1.623  16.702 -0.1242  0.4285  0.1149
  504TIP3    H123003   3.506   1.549  16.693 -2.3276 -1.3558 -0.7097
  504TIP3    H223004   3.372   1.587  16.752  0.2642  3.0387  2.6651
  505TIP3   OH223005   2.891   1.382  14.901 -0.4847  0.3190 -0.1829
  505TIP3    H123006   2.926   1.394  14.813  0.8372  1.3258  0.4631
  505TIP3    H223007   2.947   1.436  14.957 -0.8998 -0.8117  1.3676
  506TIP3   OH223008   1.609   1.080   0.848  0.3210  0.3270 -0.1367
  506TIP3    H123009   1.527   1.033   0.836  0.3989 -0.7400  3.0724
  506TIP3    H223010   1.676   1.022   0.812  0.1834 -1.0866  1.8373
  507TIP3   OH223011   3.135   3.340   0.539 -0.5646  0.2312 -0.0627
  507TIP3    H123012   3.222   3.373   0.518 -1.3741  2.1731 -0.4054
  507TIP3    H223013   3.130   3.256   0.493  1.3174 -0.1682  0.4100
  508TIP3   OH223014   5.248   2.265  13.013 -0.9343  0.3434  0.1944
  508TIP3    H123015   5.177   2.253  13.076  0.2741 -0.4956  1.4261
  508TIP3    H223016   5.310   2.322  13.058  0.1147 -0.5703 -0.0869
  509TIP3   OH223017   1.927   2.780  17.215 -0.2442 -0.2470  0.2032
  509TIP3    H123018   1.891   2.744  17.296 -0.2365 -0.3773  0.1481
  509TIP3    H223019   2.016   2.745  17.210  0.1899  0.7502  0.7786
  510TIP3   OH223020   2.163   4.958   2.090 -0.8629 -0.7327 -0.1989
  510TIP3    H123021   2.159   4.997   2.177  0.2023 -0.4897 -0.2489
  510TIP3    H223022   2.103   5.011   2.037  0.0126  0.3945 -0.0905
  511TIP3   OH223023   0.296   2.464  12.039 -0.0098  0.3656  0.3838
  511TIP3    H123024   0.224   2.487  11.981 -0.8808  0.9118  1.6471
  511TIP3    H223025   0.368   2.521  12.012  0.1158 -0.5359 -1.2064
  512TIP3   OH223026   3.695   2.763  14.835 -0.0826 -0.2682 -0.1948
  512TIP3    H123027   3.735   2.839  14.791 -1.3518  0.4506 -0.1436
  512TIP3    H223028   3.742   2.757  14.918 -0.7211  1.1684  0.2904
  513TIP3   OH223029   6.658   0.636   4.515  0.1953 -0.0998  0.6895
  513TIP3    H123030   6.613   0.700   4.570 -0.7469  0.7880 -1.0686
  513TIP3    H223031   6.701   0.577   4.577  1.2697  2.3591  2.3543
  514TIP3   OH223032   1.477   3.206  16.912 -0.2326  0.3621 -0.5663
  514TIP3    H123033   1.498   3.116  16.886  0.4204 -0.2055  1.7638
  514TIP3    H223034   1.554   3.257  16.885 -0.5170  0.1943 -1.7131
  515TIP3   OH223035   0.861   2.881  16.804 -0.6712  0.1221  0.5069
  515TIP3    H123036   0.944   2.868  16.758  0.4105  1.4000  2.0584
  515TIP3    H223037   0.809   2.804  16.782  0.0976  0.3445 -2.2368
  516TIP3   OH223038   0.175   1.419   4.121  0.0524 -0.0921 -0.1305
  516TIP3    H123039   0.200   1.329   4.140  2.2630  0.5011 -0.0973
  516TIP3    H223040   0.103   1.411   4.058  0.2356 -1.8650 -0.1420
  517TIP3   OH223041   5.098   0.163   1.297 -0.0682  0.2922  0.0167
  517TIP3    H123042   5.192   0.177   1.291  0.4823 -1.6745  3.0919
  517TIP3    H223043   5.066   0.233   1.354 -0.4824  0.8165 -0.8314
  518TIP3   OH223044   6.264   2.014   1.563 -0.1406 -1.0215 -0.6225
  518TIP3    H123045   6.327   1.947   1.537  0.8561 -0.1206 -0.5748
  518TIP3    H223046   6.292   2.039   1.651 -0.6619 -0.7252 -0.5447
  519TIP3   OH223047   0.745   3.479  13.260 -0.1034 -0.2766 -0.2795
  519TIP3    H123048   0.806   3.405  13.259 -3.3695 -3.1947  2.4121
  519TIP3    H223049   0.667   3.446  13.216 -1.4361  1.7369  0.5045
  520TIP3   OH223050   6.113   1.605  11.551  0.1755  0.0093  0.1710
  520TIP3    H123051   6.163   1.525  11.570  0.5753  0.4925  1.1603
  520TIP3    H223052   6.152   1.638  11.470 -1.2072 -1.7822 -1.2568
  521TIP3   OH223053   1.772   4.689  14.168 -0.6112  0.0628 -0.1171
  521TIP3    H123054   1.729   4.603  14.159 -0.3016 -0.1635  0.5411
  521TIP3    H223055   1.791   4.696  14.261 -1.2571  1.1546 -0.0647
  522TIP3   OH223056   0.395   6.235   1.770  0.2014 -0.1993  0.2262
  522TIP3    H123057   0.455   6.263   1.839  0.3835  1.2283 -0.4903
  522TIP3    H223058   0.345   6.163   1.808  1.0936 -0.1736  1.4503
  523TIP3   OH223059   5.695   1.632  13.368 -0.2350  0.6016  0.9209
  523TIP3    H123060   5.720   1.701  13.428 -0.6542 -0.2277  2.0637
  523TIP3    H223061   5.637   1.575  13.419  1.1972 -1.3449  0.4215
  524TIP3   OH223062   5.351   1.322  12.426  0.5195 -0.0052  0.3279
  524TIP3    H123063   5.375   1.375  12.349 -0.4137 -1.1058 -0.7389
  524TIP3    H223064   5.424   1.262  12.438  0.8490  0.4401  0.5441
  525TIP3   OH223065   1.668   1.895  13.412 -0.3038 -0.5778  0.0008
  525TIP3    H123066   1.664   1.961  13.342  1.6468  0.2843  0.6536
  525TIP3    H223067   1.759   1.899  13.443 -0.7213 -2.0940  1.4927
  526TIP3   OH223068   3.195   4.691  17.186  0.0409  0.0209  0.2271
  526TIP3    H123069   3.119   4.690  17.244 -0.4165 -0.1842 -0.3666
  526TIP3    H223070   3.162   4.657  17.103  1.3840 -2.5722  0.6850
  527TIP3   OH223071   6.546   0.895  16.389 -0.2893 -0.2110  0.7161
  527TIP3    H123072   6.455   0.922  16.403 -0.3418 -0.0904  0.1306
  527TIP3    H223073   6.584   0.897  16.477 -0.7494  0.0955  0.9144
  528TIP3   OH223074   6.083   4.376   4.433  0.3554 -0.7316 -0.5545
  528TIP3    H123075   6.141   4.314   4.477  1.1746  0.1308 -0.4003
  528TIP3    H223076   6.141   4.447   4.406 -0.5460 -0.1235 -0.8854
  529TIP3   OH223077   2.472   4.432   0.543 -0.7113 -0.4804 -0.5998
  529TIP3    H123078   2.412   4.406   0.473 -0.6306 -0.9268 -0.5047
  529TIP3    H223079   2.518   4.351   0.567  0.8475  0.1050 -1.5363
  530TIP3   OH223080   1.662   5.763   3.998 -0.0980 -0.2324  0.4375
  530TIP3    H123081   1.648   5.696   4.066 -2.4558 -3.1462 -2.7623
  530TIP3    H223082   1.598   5.831   4.018 -0.3010 -0.7107  1.4686
  531TIP3   OH223083   2.236   1.314   4.046 -0.2838  1.0597  0.1253
  531TIP3    H123084   2.194   1.228   4.048  0.1832  0.7582 -1.7675
  531TIP3    H223085   2.325   1.298   4.076  0.7703  0.2533 -3.2144
  532TIP3   OH223086   5.459   2.160  13.205  0.1005  0.3931 -0.2000
  532TIP3    H123087   5.443   2.106  13.128  0.9088  1.5626 -1.2061
  532TIP3    H223088   5.491   2.243  13.170  2.0929  0.3577  1.4559
  533TIP3   OH223089   4.621   5.210   0.993  0.7924 -0.3520 -0.0522
  533TIP3    H123090   4.698   5.255   0.959  1.3779 -0.8976  0.5546
  533TIP3    H223091   4.579   5.273   1.051 -1.7287  1.6223 -3.8080
  534TIP3   OH223092   5.708   5.213   1.149 -0.5972 -0.2517  0.2384
  534TIP3    H123093   5.653   5.251   1.081 -1.4546 -1.6664  0.1136
  534TIP3    H223094   5.710   5.119   1.128 -0.7458 -0.6757  2.0570
  535TIP3   OH223095   0.348   0.576   1.920 -0.3730  0.0983 -0.1523
  535TIP3    H123096   0.410   0.559   1.849 -1.2391  0.4473 -1.0106
  535TIP3    H223097   0.341   0.492   1.966  0.8128  0.0908  0.0283
  536TIP3   OH223098   5.399   5.633  13.373  0.3799  0.0321 -0.5940
  536TIP3    H123099   5.313   5.598  13.352 -0.5380  0.9673  1.5210
  536TIP3    H223100   5.461   5.569  13.337 -1.2030 -1.4027 -0.7950
  537TIP3   OH223101   5.989   0.966  11.586  0.4817  0.4793  0.4630
  537TIP3    H123102   5.950   1.050  11.562 -0.1348  0.1889  0.4401
  537TIP3    H223103   5.965   0.907  11.514  2.5575  0.7586 -0.4926
  538TIP3   OH223104   4.137   1.077  15.307  0.1177 -0.1407  0.2782
  538TIP3    H123105   4.210   1.015  15.317  1.2766  0.9699 -1.0965
  538TIP3    H223106   4.159   1.127  15.229 -1.6965  0.8284  0.3674
  539TIP3   OH223107   0.164   1.266   3.421 -0.2086  0.3050 -0.0021
  539TIP3    H123108   0.185   1.358   3.406 -0.9339  0.6434  0.9603
  539TIP3    H223109   0.108   1.242   3.347 -0.0977  0.6661 -0.2029
  540TIP3   OH223110   4.233   1.913  14.181 -0.0442 -0.1536 -0.5570
  540TIP3    H123111   4.141   1.930  14.163 -0.0876  0.8559  0.5345
  540TIP3    H223112   4.279   1.940  14.101 -0.4520  1.8794 -0.1364
  541TIP3   OH223113   3.927   4.558  12.730  0.3107 -0.0688 -0.3857
  541TIP3    H123114   3.970   4.643  12.727  1.8320 -0.7722  0.8743
  541TIP3    H223115   3.998   4.495  12.740 -0.7383 -1.5715 -2.0051
  542TIP3   OH223116   5.617   6.207   4.082 -0.0726  0.0620 -0.0415
  542TIP3    H123117   5.692   6.184   4.137 -0.7146  2.0498  1.7515
  542TIP3    H223118   5.655   6.232   3.998  0.9922 -2.3150 -0.3068
  543TIP3   OH223119   1.793   2.369  15.428 -0.4263 -0.1359 -0.1866
  543TIP3    H123120   1.874   2.320  15.443 -0.3026  0.3652  0.8367
  543TIP3    H223121   1.758   2.333  15.347  0.5666 -0.7056 -0.3722
  544TIP3   OH223122   5.987   1.606   4.439 -0.8208  0.0192 -0.2760
  544TIP3    H123123   5.933   1.628   4.363 -0.6110 -0.8864 -0.7009
  544TIP3    H223124   6.064   1.563   4.402 -0.2956  0.3663  0.3950
  545TIP3   OH223125   3.852   4.736  12.484 -0.5855 -1.0580 -0.0599
  545TIP3    H123126   3.909   4.771  12.415  0.5080 -2.1306  0.2893
  545TIP3    H223127   3.895   4.761  12.565  0.3821 -3.4317  0.2005
  546TIP3   OH223128   4.672   6.762   1.668  0.2320 -0.5564  0.1738
  546TIP3    H123129   4.596   6.820   1.661  0.6726  0.0650  0.3941
  546TIP3    H223130   4.710   6.784   1.754  0.4213 -1.1492  0.2403
  547TIP3   OH223131   3.438   4.911  12.992  0.2742  0.1035  0.0859
  547TIP3    H123132   3.347   4.940  12.980 -0.1676 -0.2344  2.3623
  547TIP3    H223133   3.445   4.833  12.937 -0.5552  0.6263 -0.7787
  548TIP3   OH223134   1.193   3.668   2.865  0.5780  0.1114  0.5747
  548TIP3    H123135   1.287   3.649   2.873  0.8770  0.9965 -0.6141
  548TIP3    H223136   1.161   3.607   2.799  0.6513  0.8514 -0.1518
  549TIP3   OH223137   6.787   6.741   5.409 -0.1214 -0.0638 -0.1876
  549TIP3    H123138   6.713   6.682   5.401  0.5087 -0.7696 -0.8976
  549TIP3    H223139   6.863   6.689   5.383  0.9798 -0.0761  2.9100
  550TIP3   OH223140   2.576   2.832  12.379  0.5963 -0.6957 -0.3708
  550TIP3    H123141   2.539   2.871  12.457 -0.4100 -1.7470 -0.3173
  550TIP3    H223142   2.501   2.802  12.329  1.1752  0.6521 -2.1261
  551TIP3   OH223143   3.122   1.997   1.047 -0.2323 -0.1060  0.2023
  551TIP3    H123144   3.119   2.039   1.133  1.7903  0.4007  0.0589
  551TIP3    H223145   3.145   2.068   0.987  1.7690 -1.1074 -0.2491
  552TIP3   OH223146   3.000   1.486   3.693  0.4130  0.5188  0.7802
  552TIP3    H123147   2.915   1.531   3.690 -1.0733 -2.2484 -0.8690
  552TIP3    H223148   2.978   1.396   3.716  2.8167 -0.4517 -0.5760
  553TIP3   OH223149   3.015   4.847  11.812  0.4814  0.2778  0.4475
  553TIP3    H123150   3.098   4.823  11.770 -0.0898  0.0173 -0.5437
  553TIP3    H223151   2.948   4.828  11.746 -0.4136  0.0529  1.4099
  554TIP3   OH223152   6.336   6.423  11.363  0.5174 -0.1749 -0.2785
  554TIP3    H123153   6.292   6.338  11.374 -2.3892  1.4138  1.1732
  554TIP3    H223154   6.401   6.425  11.433 -0.3940 -0.6342  0.6022
  555TIP3   OH223155   5.299   4.092  14.512  0.1059 -0.1937 -0.4654
  555TIP3    H123156   5.292   3.997  14.518  0.7223 -0.2681 -0.8915
  555TIP3    H223157   5.306   4.122  14.603  1.3233 -0.6750 -0.3864
  556TIP3   OH223158   6.263   4.568   5.246 -0.0830  0.1059  0.0448
  556TIP3    H123159   6.327   4.576   5.317 -0.8814 -2.3553  1.0871
  556TIP3    H223160   6.192   4.626   5.271  1.2945  2.1762 -0.6782
  557TIP3   OH223161   0.979   0.476  13.397 -0.1545 -0.1790 -0.3826
  557TIP3    H123162   0.903   0.433  13.357 -0.1842  0.3389 -0.9043
  557TIP3    H223163   1.055   0.428  13.364 -0.2244 -0.3234 -0.3344
  558TIP3   OH223164   2.041   3.117   0.211  0.0779  0.0779  0.6511
  558TIP3    H123165   1.971   3.170   0.173 -1.1664 -1.6212  0.5288
  558TIP3    H223166   2.043   3.142   0.303 -1.0649 -0.2479  0.7713
  559TIP3   OH223167   0.511   3.363  14.469 -0.0193 -0.4928 -0.1998
  559TIP3    H123168   0.554   3.406  14.395 -0.6262  0.1284 -0.1958
  559TIP3    H223169   0.573   3.371  14.541 -1.0074  2.3412  0.4003
  560TIP3   OH223170   3.670   0.354   1.167  0.0494  0.1313  0.3544
  560TIP3    H123171   3.757   0.343   1.128 -0.7134 -0.0891 -1.3164
  560TIP3    H223172   3.657   0.449   1.170 -0.2401  0.1315 -0.7427
  561TIP3   OH223173   3.119   4.281  14.275  0.0181  0.3646 -0.1504
  561TIP3    H123174   3.169   4.244  14.202  0.3910 -0.3034  0.4267
  561TIP3    H223175   3.184   4.290  14.345 -0.2819  1.2244  0.0202
  562TIP3   OH223176   5.455   5.386   3.940  0.3531  0.0395  0.7194
  562TIP3    H123177   5.550   5.384   3.956  0.8273  0.5986 -1.7629
  562TIP3    H223178   5.418   5.416   4.022  2.6393  3.1231  0.7467
  563TIP3   OH223179   3.906   3.697  14.089  0.3759 -0.4281  0.6858
  563TIP3    H123180   3.977   3.757  14.064 -0.3330 -0.8638 -2.6743
  563TIP3    H223181   3.836   3.718  14.027 -1.9710 -0.8845  3.1343
  564TIP3   OH223182   3.909   5.924   3.874 -0.5822 -0.0301 -0.5203
  564TIP3    H123183   3.957   5.847   3.904  1.6927  1.4048 -0.3513
  564TIP3    H223184   3.848   5.944   3.945 -1.3964 -1.8281 -0.7050
  565TIP3   OH223185   5.753   2.382  16.988 -0.4051 -0.2427 -0.5479
  565TIP3    H123186   5.752   2.287  16.993  0.4181 -0.2469 -0.2560
  565TIP3    H223187   5.820   2.402  16.922  1.2564  0.1706  1.2177
  566TIP3   OH223188   6.279   2.286   5.352  0.0170 -0.6430  0.5347
  566TIP3    H123189   6.188   2.265   5.331  0.4436 -1.8929 -0.1041
  566TIP3    H223190   6.330   2.232   5.293  1.1812  0.5590  0.4198
  567TIP3   OH223191   0.595   3.279   4.201 -0.5117  0.2755 -0.3641
  567TIP3    H123192   0.595   3.358   4.147  0.6432 -0.2967 -1.2119
  567TIP3    H223193   0.674   3.287   4.255 -0.9854  0.2239  0.3494
  568TIP3   OH223194   1.851   4.673   4.920 -0.2705  0.6363  0.2087
  568TIP3    H123195   1.872   4.695   5.011  2.2200  0.5079 -0.2843
  568TIP3    H223196   1.896   4.590   4.904 -0.4312  0.8110 -1.2297
  569TIP3   OH223197   4.374   0.355   4.021  0.0341 -0.4949  0.0486
  569TIP3    H123198   4.387   0.274   3.972  0.8239  0.3838 -1.2445
  569TIP3    H223199   4.455   0.366   4.071 -0.4455 -0.9745  0.9351
  570TIP3   OH223200   3.471   4.864   5.231  0.3657 -0.0610  0.0971
  570TIP3    H123201   3.481   4.769   5.237  3.3544  0.2516  0.8211
  570TIP3    H223202   3.560   4.898   5.240 -0.3337  2.7077 -2.5804
  571TIP3   OH223203   0.662   6.486   5.308 -0.3343 -0.2188  0.3791
  571TIP3    H123204   0.636   6.567   5.352  1.2458  1.4409 -1.6190
  571TIP3    H223205   0.758   6.492   5.303 -0.2369 -2.0161 -0.1823
  572TIP3   OH223206   4.880   2.045   4.806 -0.0488  0.4719 -0.1324
  572TIP3    H123207   4.964   2.061   4.849  1.0145  2.2015 -2.7204
  572TIP3    H223208   4.902   1.991   4.731 -1.2331  1.0058 -0.8808
  573TIP3   OH223209   0.029   1.316  15.380  0.1314 -0.3811  0.5110
  573TIP3    H123210  -0.044   1.364  15.341  0.0474 -0.9723 -0.0899
  573TIP3    H223211  -0.012   1.244  15.428  0.3462 -1.2902 -0.6397
  574TIP3   OH223212   2.202   1.680  16.636 -0.3669 -0.5409  0.1171
  574TIP3    H123213   2.198   1.613  16.568  0.6765 -0.1181 -0.3693
  574TIP3    H223214   2.112   1.713  16.643 -0.5428 -0.8039 -0.8354
  575TIP3   OH223215   3.121   5.439   5.076 -0.0059 -0.0816 -0.4466
  575TIP3    H123216   3.208   5.402   5.058  0.5534  0.6191  0.7279
  575TIP3    H223217   3.124   5.526   5.036  0.7455  0.9308  1.7580
  576TIP3   OH223218   3.844   2.381  13.254  0.3088  0.0917 -0.2350
  576TIP3    H123219   3.852   2.288  13.237  1.3911  0.2732 -0.7151
  576TIP3    H223220   3.875   2.391  13.344 -0.8708 -0.1650  0.2110
  577TIP3   OH223221   1.584   0.076  13.029 -0.0843 -0.2694  0.2869
  577TIP3    H123222   1.584   0.100  12.936  0.7234 -0.7716  0.1517
  577TIP3    H223223   1.606   0.158  13.074  0.1058 -0.1554 -0.0056
  578TIP3   OH223224   3.453   3.348  16.742  0.3552 -0.5965  0.1562
  578TIP3    H123225   3.510   3.372  16.669 -0.7338 -1.5422 -1.0234
  578TIP3    H223226   3.386   3.416  16.744  1.3658  0.4026  1.4160
  579TIP3   OH223227   1.661   5.282   6.287  0.3402  0.2431 -0.4899
  579TIP3    H123228   1.695   5.322   6.206 -0.7347  0.6387 -0.7530
  579TIP3    H223229   1.568   5.271   6.271  0.1892 -0.0548  0.5562
  580TIP3   OH223230   4.306   4.188   5.664  0.2613  0.3341 -0.2080
  580TIP3    H123231   4.293   4.217   5.573  3.1110 -0.7108 -0.9930
  580TIP3    H223232   4.323   4.269   5.712  0.0518  0.7685 -0.8548
  581TIP3   OH223233   5.177   0.043   0.531  0.0445  0.2635 -0.2562
  581TIP3    H123234   5.159  -0.047   0.502  0.7739 -0.2208  0.7673
  581TIP3    H223235   5.101   0.093   0.502  0.0992 -0.4815 -1.7396
  582TIP3   OH223236   4.130   5.112   0.045  0.0012  0.0441  0.1617
  582TIP3    H123237   4.191   5.186   0.049  0.2228 -0.1623  0.6515
  582TIP3    H223238   4.051   5.148   0.003  0.5029  0.2810 -0.5830
  583TIP3   OH223239   3.384   6.422  15.979  0.6012 -0.0638 -0.2244
  583TIP3    H123240   3.411   6.434  15.889  1.5383 -0.1919  0.0343
  583TIP3    H223241   3.379   6.511  16.015 -0.7848  0.0566 -0.6786
  584TIP3   OH223242   0.043   5.138   0.742  0.3304  0.5553 -0.5695
  584TIP3    H123243   0.031   5.181   0.826  1.2689  0.5798 -0.4384
  584TIP3    H223244  -0.040   5.093   0.725  0.2765  0.2311  0.5479
  585TIP3   OH223245   2.550   3.586  16.480  0.4301  0.0156  0.2818
  585TIP3    H123246   2.553   3.511  16.421 -0.8024 -0.0899  0.3450
  585TIP3    H223247   2.528   3.661  16.424  0.0844  0.0574  0.4729
  586TIP3   OH223248   1.773   3.077   3.876 -0.3462  0.3962 -0.5758
  586TIP3    H123249   1.862   3.052   3.850 -0.5289 -0.6343 -0.2210
  586TIP3    H223250   1.735   2.997   3.912 -1.3603  0.8783 -0.5585
  587TIP3   OH223251   4.953   4.336   0.737 -0.3558 -0.1595 -0.0306
  587TIP3    H123252   4.965   4.242   0.752 -0.1745 -0.0928  0.2428
  587TIP3    H223253   4.899   4.365   0.811 -1.4034 -0.2691 -0.7299
  588TIP3   OH223254   4.920   5.069  14.017 -0.0006 -0.4666  0.1688
  588TIP3    H123255   4.944   5.050  14.107  0.5411 -0.9004 -0.0638
  588TIP3    H223256   4.862   5.146  14.023 -1.1277 -1.3582  0.9956
  589TIP3   OH223257   4.283   0.618  14.998  0.1634  0.2719  0.0564
  589TIP3    H123258   4.244   0.702  14.975 -2.4872 -1.1386 -0.7673
  589TIP3    H223259   4.318   0.584  14.916  0.2672  0.0786  0.1806
  590TIP3   OH223260   1.798   0.179   1.003 -0.6685 -0.0314 -0.0965
  590TIP3    H123261   1.789   0.222   0.918 -0.7474 -0.0504 -0.0972
  590TIP3    H223262   1.715   0.135   1.017 -0.2035 -1.0786 -0.5825
  591TIP3   OH223263   6.668   1.694  16.498 -0.2026  0.1785 -0.1344
  591TIP3    H123264   6.586   1.672  16.454  0.2125 -1.0031 -0.3289
  591TIP3    H223265   6.650   1.778  16.541 -1.1436  0.5128 -1.1374
  592TIP3   OH223266   1.879   3.911   4.449 -0.3535 -0.0301 -0.2265
  592TIP3    H123267   1.891   3.876   4.361  0.5285  2.3518 -1.1056
  592TIP3    H223268   1.784   3.914   4.462 -0.4559 -1.3982 -0.6729
  593TIP3   OH223269   4.586   6.000   0.225 -0.6931 -0.1097 -0.1462
  593TIP3    H123270   4.544   6.079   0.191 -0.0979  0.6462  0.8526
  593TIP3    H223271   4.679   6.022   0.232 -0.6589 -0.5594  1.0446
  594TIP3   OH223272   1.416   1.458  12.223  0.4895  0.2011 -0.0545
  594TIP3    H123273   1.392   1.550  12.206  0.7265  0.0723 -1.1546
  594TIP3    H223274   1.373   1.409  12.153  0.4681 -0.5166  0.4585
  595TIP3   OH223275   1.842   1.579  15.796 -0.5925  0.0345  0.3663
  595TIP3    H123276   1.771   1.521  15.823 -0.6923 -0.3702 -0.7475
  595TIP3    H223277   1.821   1.662  15.838 -1.4802 -0.2068  0.4276
  596TIP3   OH223278   4.437   0.283   5.840 -0.2821  0.3409 -0.4497
  596TIP3    H123279   4.456   0.375   5.858 -0.1053  0.3450 -0.6636
  596TIP3    H223280   4.341   0.278   5.837 -0.2710  0.6600 -1.2163
  597TIP3   OH223281   4.906   6.433  13.127 -0.1818  0.2182 -0.0895
  597TIP3    H123282   4.916   6.464  13.038 -0.2285  1.6734  0.4031
  597TIP3    H223283   4.968   6.486  13.178  0.9660 -1.6266  0.5210
  598TIP3   OH223284   3.945   5.270   1.301 -0.0902 -0.3947  0.2981
  598TIP3    H123285   3.959   5.344   1.241 -0.6585 -0.8857 -0.4606
  598TIP3    H223286   3.931   5.195   1.242 -2.7392 -0.5061  1.0269
  599TIP3   OH223287   5.281   1.675  10.933 -0.1826 -0.1413  0.3382
  599TIP3    H123288   5.191   1.704  10.951  0.2258  1.6275 -0.3284
  599TIP3    H223289   5.316   1.742  10.874  0.9016 -1.9271 -1.0739
  600TIP3   OH223290   5.710   4.900   4.355 -0.2816 -0.0363 -0.0486
  600TIP3    H123291   5.788   4.921   4.302 -0.4226  1.2017  0.2073
  600TIP3    H223292   5.698   4.806   4.344  1.7874 -0.4058  0.6236
  601TIP3   OH223293   2.496   6.138  12.621 -0.1357  0.5348  0.3541
  601TIP3    H123294   2.585   6.125  12.654  0.2748  0.6588 -0.6943
  601TIP3    H223295   2.460   6.050  12.615  0.0341  0.4565  0.4693
  602TIP3   OH223296   5.104   2.564  12.888 -0.0469  0.1404  0.4409
  602TIP3    H123297   5.064   2.643  12.925  0.0651  0.8389 -0.8873
  602TIP3    H223298   5.093   2.498  12.956 -4.7834 -0.1016 -0.3518
  603TIP3   OH223299   0.117   0.114  15.968  0.0716 -0.5890  0.2051
  603TIP3    H123300   0.103   0.191  15.913 -0.0503 -1.4912 -1.0654
  603TIP3    H223301   0.114   0.147  16.057  1.2715  1.0685 -0.3460
  604TIP3   OH223302   3.206   5.368   3.490 -0.2718  0.6274 -0.0401
  604TIP3    H123303   3.113   5.364   3.467 -0.3897  0.2331  0.5090
  604TIP3    H223304   3.217   5.454   3.530 -0.6853  0.1401  1.1368
  605TIP3   OH223305   0.638   2.873   0.606  0.8649  0.3634  0.4234
  605TIP3    H123306   0.633   2.959   0.564 -0.5897 -0.7580 -1.8258
  605TIP3    H223307   0.678   2.817   0.540 -1.3498 -1.4186  0.5230
  606TIP3   OH223308   0.375   0.469   5.539 -0.2571 -0.2155  0.2302
  606TIP3    H123309   0.306   0.402   5.540 -0.9563  0.5066  1.5754
  606TIP3    H223310   0.350   0.528   5.467  0.3202 -1.3296 -0.9117
  607TIP3   OH223311   4.814   4.738   1.250 -0.1519  0.0525  0.0280
  607TIP3    H123312   4.772   4.776   1.174  3.4073 -1.1721 -2.6720
  607TIP3    H223313   4.891   4.793   1.266  0.3905 -1.0350  1.2915
  608TIP3   OH223314   3.121   1.307   5.985  0.1607  0.2493  0.3910
  608TIP3    H123315   3.088   1.394   6.006 -0.4082  0.4745 -1.3295
  608TIP3    H223316   3.108   1.256   6.065 -2.0374  1.0074  0.5363
  609TIP3   OH223317   0.463   4.952  11.855  0.0861 -0.1948 -0.1240
  609TIP3    H123318   0.384   4.899  11.866 -0.2310  0.7211  2.5584
  609TIP3    H223319   0.433   5.042  11.868  1.2615  0.3162 -0.9341
  610TIP3   OH223320   2.003   1.958   6.630  0.7451  0.2432 -0.1255
  610TIP3    H123321   1.943   1.884   6.631 -0.2305  0.9654 -2.1027
  610TIP3    H223322   1.969   2.018   6.696  0.4422 -0.2241  0.1423
  611TIP3   OH223323   2.913   6.570   2.029 -0.1395 -0.2095 -0.5808
  611TIP3    H123324   2.862   6.494   2.002  2.0995 -1.9957  0.0036
  611TIP3    H223325   2.982   6.577   1.962 -0.2752  1.2539 -0.5811
  612TIP3   OH223326   5.422   4.400  13.185 -0.1215  1.1485  0.0744
  612TIP3    H123327   5.512   4.380  13.211 -1.8991 -1.1727  4.9398
  612TIP3    H223328   5.394   4.325  13.134 -0.1885  0.5988  0.9170
  613TIP3   OH223329   2.297   6.097   4.388  0.1170 -0.2575  0.5713
  613TIP3    H123330   2.294   6.027   4.453  3.1622 -0.2357  0.8317
  613TIP3    H223331   2.332   6.172   4.436 -0.9399  0.7778 -0.2569
  614TIP3   OH223332   3.572   0.725  13.834 -0.2300 -0.2112 -0.4343
  614TIP3    H123333   3.607   0.806  13.871  0.8720 -0.2581 -1.3436
  614TIP3    H223334   3.501   0.754  13.777 -0.2469  0.0659 -0.2740
  615TIP3   OH223335   5.593   3.853   5.763  0.5273 -0.1991  0.1967
  615TIP3    H123336   5.539   3.870   5.686  0.9486 -1.4243 -0.3711
  615TIP3    H223337   5.616   3.760   5.757 -1.0673 -0.8174  2.8328
  616TIP3   OH223338   3.746   6.477  12.455 -0.5780 -0.0551 -0.6866
  616TIP3    H123339   3.791   6.461  12.372 -0.4460  1.2692 -0.8721
  616TIP3    H223340   3.738   6.390  12.494 -0.4266 -0.6616 -1.9732
  617TIP3   OH223341   0.453   6.265  12.302 -0.4451  0.4395  0.5377
  617TIP3    H123342   0.422   6.212  12.376 -0.4921  1.8044  1.5229
  617TIP3    H223343   0.501   6.337  12.344  0.9707  0.3206 -0.8285
  618TIP3   OH223344   2.863   4.589   1.049 -0.1585 -0.2668  0.5761
  618TIP3    H123345   2.803   4.514   1.056 -0.3957 -0.2873 -1.3746
  618TIP3    H223346   2.813   4.663   1.084 -0.6141 -0.6649  0.7781
  619TIP3   OH223347   6.002   0.628  13.849 -0.1092  0.1654  0.0900
  619TIP3    H123348   5.962   0.705  13.888  0.7768  0.0372  1.2864
  619TIP3    H223349   5.951   0.611  13.770 -1.3114  1.0122  0.6787
  620TIP3   OH223350   1.204   0.794  11.226  0.0392 -0.4307 -0.0946
  620TIP3    H123351   1.193   0.874  11.175  0.5535  0.2101  0.7918
  620TIP3    H223352   1.122   0.745  11.212 -0.3405  0.3196 -0.5087
  621TIP3   OH223353   0.467   5.037  12.766 -0.3510 -0.2976  0.0033
  621TIP3    H123354   0.391   5.078  12.724 -0.1356 -0.3420 -0.4350
  621TIP3    H223355   0.485   4.959  12.713 -1.2634 -1.4172  1.3182
  622TIP3   OH223356   5.251   5.928  12.551  0.3243  0.4968 -0.4060
  622TIP3    H123357   5.291   5.887  12.627  0.3339  1.6683  0.2428
  622TIP3    H223358   5.247   5.859  12.485  1.9946 -0.0444  0.0414
  623TIP3   OH223359   1.657   3.680   4.706 -0.0510  0.5553 -0.7340
  623TIP3    H123360   1.592   3.737   4.747 -0.3496 -1.6468  2.0076
  623TIP3    H223361   1.740   3.706   4.747  0.2902  1.0797 -1.7492
  624TIP3   OH223362   1.375   2.433   2.327 -0.3584  0.1576 -0.2130
  624TIP3    H123363   1.461   2.430   2.370 -0.8582  0.6252  0.8246
  624TIP3    H223364   1.367   2.523   2.297  0.2517 -0.3117 -1.8603
  625TIP3   OH223365   4.937   0.285  11.831  0.0800 -0.7655 -0.2773
  625TIP3    H123366   4.965   0.346  11.899  1.1353 -2.4984  0.9119
  625TIP3    H223367   4.859   0.243  11.868 -1.5519  0.9360 -1.7389
  626TIP3   OH223368   5.703   4.047  16.427 -0.4859  0.2848 -0.0577
  626TIP3    H123369   5.720   4.025  16.336 -1.4548 -0.1979 -0.1311
  626TIP3    H223370   5.663   3.968  16.464  1.1125  0.0031  1.1297
  627TIP3   OH223371   5.441   1.730  14.689  0.1689  0.9604 -0.1332
  627TIP3    H123372   5.446   1.664  14.619  0.1393  0.9484 -0.1239
  627TIP3    H223373   5.532   1.758  14.702  0.1882  0.8824 -0.0984
  628TIP3   OH223374   5.035   0.326   1.497  0.7322 -0.2346 -0.0101
  628TIP3    H123375   5.089   0.293   1.568  1.2563  0.5123 -0.0605
  628TIP3    H223376   4.945   0.305   1.523  0.9158  0.1148  0.9169
  629TIP3   OH223377   6.557   6.661  15.178  0.6127 -0.2548 -0.3484
  629TIP3    H123378   6.608   6.742  15.175  0.3597  0.0067  1.6751
  629TIP3    H223379   6.614   6.598  15.221  0.3987 -0.8591 -0.9353
  630TIP3   OH223380   5.981   2.334   4.753 -0.3779 -0.1757 -0.3452
  630TIP3    H123381   5.971   2.343   4.658  2.1426 -0.5011 -0.6639
  630TIP3    H223382   6.074   2.318   4.766 -1.0142 -2.2242  2.0450
  631TIP3   OH223383   1.262   4.316   1.277  0.0575 -0.1299  0.2507
  631TIP3    H123384   1.213   4.329   1.196 -0.9078 -1.0644  0.6704
  631TIP3    H223385   1.301   4.401   1.295 -2.0870  0.8753  0.3477
  632TIP3   OH223386   6.527   4.484   2.231  0.0291  0.2313 -0.2170
  632TIP3    H123387   6.466   4.557   2.236  0.3684  0.4626  0.6265
  632TIP3    H223388   6.494   4.430   2.159  0.8736  2.2028 -2.1260
  633TIP3   OH223389   3.434   3.629  16.071  0.8131 -0.2855 -0.0779
  633TIP3    H123390   3.405   3.661  15.986  1.9852  0.9729 -0.0310
  633TIP3    H223391   3.354   3.625  16.124  0.4280  1.2682 -0.5169
  634TIP3   OH223392   6.466   1.425  12.399  0.1895  0.4565 -0.5871
  634TIP3    H123393   6.423   1.418  12.484 -0.8494 -2.3250 -1.2765
  634TIP3    H223394   6.400   1.465  12.342  0.1463  0.4423 -0.5474
  635TIP3   OH223395   2.280   1.797   4.832 -0.3385 -0.2566  0.5842
  635TIP3    H123396   2.321   1.723   4.876  2.1318 -0.5285 -2.0175
  635TIP3    H223397   2.206   1.821   4.888 -0.1464 -3.5585  2.3540
  636TIP3   OH223398   5.059   0.080  16.079  0.6587  0.1806  0.3260
  636TIP3    H123399   5.083   0.083  15.986 -1.7911 -3.0981 -0.4764
  636TIP3    H223400   4.994   0.150  16.089  1.2987  0.8723 -0.3034
  637TIP3   OH223401   5.251   2.956  15.376  0.1341  0.4448  0.1921
  637TIP3    H123402   5.313   3.029  15.374 -0.3479  0.8410 -0.3847
  637TIP3    H223403   5.287   2.893  15.313  0.6889  0.0629  0.8795
  638TIP3   OH223404   3.182   3.599   1.698 -0.9258  0.4996  0.3125
  638TIP3    H123405   3.146   3.687   1.706 -1.5697  0.2677 -0.0637
  638TIP3    H223406   3.139   3.549   1.767  0.3107  0.7574  1.3028
  639TIP3   OH223407   4.893   2.971  10.507 -0.4259 -0.8232 -0.4408
  639TIP3    H123408   4.804   2.945  10.529  0.6452 -3.9409  0.5278
  639TIP3    H223409   4.913   2.922  10.427  0.9399 -1.3907  0.2269
  640TIP3   OH223410   3.862   3.485  15.651 -0.0754  0.2943  0.0909
  640TIP3    H123411   3.884   3.464  15.742  0.8630 -0.6437 -0.3373
  640TIP3    H223412   3.814   3.568  15.656 -1.2169 -0.4423  1.5485
  641TIP3   OH223413   3.859   3.027   0.421  0.0877  0.2692  0.1077
  641TIP3    H123414   3.900   3.076   0.350  2.3486 -0.6655  0.6929
  641TIP3    H223415   3.855   3.090   0.494  0.3325  0.4330 -0.0164
  642TIP3   OH223416   1.706   2.170  13.847  0.3677 -0.8544  0.0080
  642TIP3    H123417   1.626   2.172  13.899  0.6435  1.1257  0.3927
  642TIP3    H223418   1.738   2.260  13.848  1.0825 -1.0343 -2.4942
  643TIP3   OH223419   1.524   0.697   2.959 -0.0652 -0.3476 -0.2939
  643TIP3    H123420   1.434   0.702   2.926 -0.2633 -0.9550  0.1413
  643TIP3    H223421   1.571   0.765   2.911 -0.9358  0.5082  0.0567
  644TIP3   OH223422   3.930   3.749   1.893  0.0040 -0.0899 -0.8016
  644TIP3    H123423   3.960   3.664   1.863  1.8529  1.3801 -3.2894
  644TIP3    H223424   3.841   3.756   1.858 -1.1197 -1.9497  1.5047
  645TIP3   OH223425   2.348   5.596   3.902 -1.0961  0.9089 -0.4818
  645TIP3    H123426   2.390   5.514   3.877  0.2219  1.3401  0.2653
  645TIP3    H223427   2.255   5.581   3.887 -0.9080 -0.8674  0.0477
  646TIP3   OH223428   6.419   3.162   4.222 -0.4593 -0.1786  0.0154
  646TIP3    H123429   6.484   3.218   4.265 -0.3948 -0.5865  0.4490
  646TIP3    H223430   6.336   3.208   4.234 -0.1715  0.6774 -1.1109
  647TIP3   OH223431   1.727   0.157  15.198 -0.2025 -0.6892  0.2506
  647TIP3    H123432   1.639   0.184  15.225  1.0471  1.6960  2.2113
  647TIP3    H223433   1.740   0.199  15.114 -0.7487 -0.6062  0.2050
  648TIP3   OH223434   5.200   2.287  13.409 -0.3955 -0.3109  0.4275
  648TIP3    H123435   5.152   2.351  13.461  0.0066  0.2645  0.1037
  648TIP3    H223436   5.202   2.208  13.463 -1.7215 -0.3503  0.4279
  649TIP3   OH223437   3.081   0.248   4.485  0.0121  0.1005  0.0210
  649TIP3    H123438   3.146   0.269   4.552 -2.2744  0.2591  2.2603
  649TIP3    H223439   3.078   0.327   4.430  0.8427  0.5573  0.6087
  650TIP3   OH223440   6.005   4.612  12.561  0.0068 -0.1273 -0.4942
  650TIP3    H123441   6.025   4.665  12.638  0.3235 -1.3268  0.2408
  650TIP3    H223442   6.059   4.649  12.492  0.4601  0.3128  0.0930
  651TIP3   OH223443   5.768   0.201  13.683  0.0708 -0.2577  0.0018
  651TIP3    H123444   5.688   0.148  13.690 -0.0293 -0.0816  0.2395
  651TIP3    H223445   5.746   0.282  13.730 -0.2619  0.5739 -1.5693
  652TIP3   OH223446   5.186   5.931  14.903  0.0018  0.8894 -0.3302
  652TIP3    H123447   5.109   5.875  14.899 -0.4498  1.5063 -0.3834
  652TIP3    H223448   5.196   5.964  14.813  1.1118 -0.2256 -0.6351
  653TIP3   OH223449   0.750   6.751  13.654  0.0759 -0.2024  0.0700
  653TIP3    H123450   0.823   6.812  13.640  0.5635 -0.5475  1.1012
  653TIP3    H223451   0.773   6.675  13.600  0.1520 -0.0448 -0.1215
  654TIP3   OH223452   5.980   0.110   4.726  0.0870  0.7873 -0.1078
  654TIP3    H123453   6.010   0.112   4.817 -1.4534  1.6127  0.4007
  654TIP3    H223454   5.997   0.198   4.693  1.0475  0.3620 -0.7640
  655TIP3   OH223455   0.757   6.098  16.608 -0.4246 -0.0307 -0.0761
  655TIP3    H123456   0.843   6.056  16.609 -0.3911  0.0155 -1.0076
  655TIP3    H223457   0.776   6.191  16.597 -0.6286 -0.1308 -1.3339
  656TIP3   OH223458   0.308   1.800  16.609 -0.1619 -0.0452 -0.7724
  656TIP3    H123459   0.284   1.850  16.532  1.0843  0.2009 -1.0107
  656TIP3    H223460   0.381   1.745  16.580  1.0517  0.8465  0.5047
  657TIP3   OH223461   2.520   1.283   4.810  0.0051  0.1350 -0.2661
  657TIP3    H123462   2.518   1.247   4.898 -1.5860 -1.1570 -0.8029
  657TIP3    H223463   2.612   1.284   4.786  0.7174  2.8845  2.3469
  658TIP3   OH223464   0.894   4.524  10.223  0.3307  0.6710 -0.5051
  658TIP3    H123465   0.897   4.544  10.316 -2.2031  1.0765 -0.4922
  658TIP3    H223466   0.892   4.610  10.180  0.5876  0.4804 -0.9021
  659TIP3   OH223467   3.359   5.601   4.425 -0.1408  0.4820  0.1615
  659TIP3    H123468   3.397   5.577   4.509  2.5247  1.7835 -0.6113
  659TIP3    H223469   3.307   5.679   4.444 -1.4133 -0.5599  1.0034
  660TIP3   OH223470   1.737   1.202  13.036  0.0156  0.0767 -0.3445
  660TIP3    H123471   1.673   1.250  12.984 -0.4804 -0.1875  0.0174
  660TIP3    H223472   1.716   1.110  13.021  0.8159 -0.0307 -0.8563
  661TIP3   OH223473   1.218   1.849   0.060 -0.3591  0.5642 -0.2236
  661TIP3    H123474   1.144   1.902   0.029 -1.8497 -2.2014 -1.6365
  661TIP3    H223475   1.273   1.837  -0.018 -0.5476 -0.7468 -0.1623
  662TIP3   OH223476   6.406   6.210  14.167 -0.0220  0.0503 -0.5735
  662TIP3    H123477   6.459   6.248  14.237  0.5359  1.3933 -1.7083
  662TIP3    H223478   6.316   6.238  14.186 -0.0443 -0.5062  0.1946
  663TIP3   OH223479   6.789   5.284   4.222  0.1502 -0.2050 -0.5321
  663TIP3    H123480   6.704   5.315   4.190 -0.0437 -0.0455  0.1296
  663TIP3    H223481   6.847   5.294   4.147 -0.3240  0.0617 -0.8719
  664TIP3   OH223482   1.836   5.347   5.481  0.1263  0.0635  0.2837
  664TIP3    H123483   1.865   5.435   5.456  1.0736  0.9202  4.1428
  664TIP3    H223484   1.741   5.355   5.487  0.1076  0.5139 -0.4735
  665TIP3   OH223485   0.976   4.609  11.379  0.1494 -0.0656 -0.3480
  665TIP3    H123486   0.970   4.514  11.368  0.8649 -0.0379 -1.0621
  665TIP3    H223487   0.911   4.644  11.317 -1.7425 -0.1462  1.5550
  666TIP3   OH223488   1.577   1.655  14.683 -0.1416  0.2871  0.5526
  666TIP3    H123489   1.556   1.578  14.735  0.1830 -0.8623 -0.9920
  666TIP3    H223490   1.551   1.631  14.594  0.7620  1.6402 -0.0831
  667TIP3   OH223491   4.173   4.112   4.624  0.4794 -0.1251  0.3210
  667TIP3    H123492   4.149   4.194   4.582 -0.7209 -0.7218 -0.1955
  667TIP3    H223493   4.130   4.116   4.710  0.3753 -0.2311  0.2745
  668TIP3   OH223494   3.623   3.322   0.357  0.1129  0.3272 -0.4560
  668TIP3    H123495   3.594   3.409   0.383  0.9354  0.4243  0.1749
  668TIP3    H223496   3.631   3.274   0.440  0.3719 -0.1214 -0.7411
  669TIP3   OH223497   3.433   6.764  13.143  0.3030 -0.5322  0.0723
  669TIP3    H123498   3.439   6.858  13.161 -0.6860 -0.2250 -1.0895
  669TIP3    H223499   3.523   6.733  13.150  0.5556  0.3770  1.0944
  670TIP3   OH223500   1.986   4.838   1.156  0.0568  0.1321 -0.1199
  670TIP3    H123501   1.924   4.832   1.229 -0.4359  1.0126 -0.4485
  670TIP3    H223502   1.931   4.858   1.080  0.8377  1.9809 -0.2283
  671TIP3   OH223503   5.545   2.420   5.179 -0.1541 -0.3955  0.5308
  671TIP3    H123504   5.564   2.504   5.223 -0.6534  0.0386 -0.0801
  671TIP3    H223505   5.604   2.419   5.104  0.8805 -1.2571  1.3325
  672TIP3   OH223506   4.030   4.444   0.946 -0.2251  0.0478 -0.0445
  672TIP3    H123507   4.051   4.495   0.868 -0.8177 -1.4885 -1.2388
  672TIP3    H223508   4.022   4.509   1.016  0.4328  1.4338 -1.2258
  673TIP3   OH223509   2.229   5.939  13.412 -0.3732 -0.5396  0.5880
  673TIP3    H123510   2.260   5.858  13.372 -2.7186 -1.5866  0.7435
  673TIP3    H223511   2.237   5.923  13.506  1.1741  0.2666  0.6044
  674TIP3   OH223512   2.841   3.771  17.010  0.3231 -0.1528 -0.4596
  674TIP3    H123513   2.886   3.782  17.094 -0.7672  1.0918 -0.0263
  674TIP3    H223514   2.810   3.680  17.012  0.3226 -0.1400  0.4789
  675TIP3   OH223515   2.644   2.115  15.997 -0.0108  0.1746  0.2501
  675TIP3    H123516   2.711   2.052  16.022  0.3104  1.0033  1.5188
  675TIP3    H223517   2.568   2.091  16.050  0.3024  1.2140  1.1818
  676TIP3   OH223518   4.844   3.633   2.194 -0.2813  0.7349 -0.0785
  676TIP3    H123519   4.892   3.613   2.274 -1.2893 -0.2559  0.2893
  676TIP3    H223520   4.896   3.702   2.152  1.7059 -0.5978  0.0937
  677TIP3   OH223521   1.430   2.877  11.380 -0.2516  0.5652 -0.6461
  677TIP3    H123522   1.477   2.931  11.316  0.2987  0.6382 -0.1920
  677TIP3    H223523   1.341   2.872  11.347 -0.3030  1.7314 -0.7242
  678TIP3   OH223524   5.648   4.613  14.915 -0.7013 -0.4875  0.2641
  678TIP3    H123525   5.583   4.650  14.856 -0.2675  0.5692  0.4408
  678TIP3    H223526   5.637   4.662  14.997  0.2987 -0.3128  0.3026
  679TIP3   OH223527   5.110   4.827   4.963 -0.0814 -0.8947  0.1226
  679TIP3    H123528   5.130   4.747   4.914 -2.8640 -1.3895 -0.2854
  679TIP3    H223529   5.142   4.809   5.051  2.2389 -1.1738 -0.7388
  680TIP3   OH223530   4.946   5.766   2.563 -0.2451  0.3129 -0.1742
  680TIP3    H123531   4.986   5.853   2.554 -3.1337  1.9420  1.8699
  680TIP3    H223532   4.974   5.735   2.649 -1.7650  0.6713  0.4796
  681TIP3   OH223533   5.728   2.708   2.116 -0.2868 -0.0510  0.3307
  681TIP3    H123534   5.700   2.798   2.132  0.0188 -0.1000  1.2187
  681TIP3    H223535   5.770   2.709   2.030 -1.6211  0.3427 -0.3165
  682TIP3   OH223536   1.260   6.657  15.390 -0.3795 -0.6536  0.2340
  682TIP3    H123537   1.239   6.571  15.355  0.6471 -1.5119  1.6699
  682TIP3    H223538   1.330   6.641  15.454 -1.2496  1.0222  1.6573
  683TIP3   OH223539   2.908   5.331  14.274  0.4267  0.0984 -0.2132
  683TIP3    H123540   2.996   5.296  14.262 -0.0947 -0.5978 -2.3169
  683TIP3    H223541   2.911   5.418  14.234  0.3239  0.3287  0.2753
  684TIP3   OH223542   3.890   1.117   5.966  0.1840  0.4251  0.7148
  684TIP3    H123543   3.909   1.210   5.977  0.3044  0.6238 -1.0277
  684TIP3    H223544   3.974   1.073   5.981  0.5028  0.7394 -0.1401
  685TIP3   OH223545   0.725   3.640  13.978  0.2826  0.6588  0.0063
  685TIP3    H123546   0.708   3.733  13.991  0.6926  0.8338 -0.6846
  685TIP3    H223547   0.647   3.596  14.010  1.4284  1.0394  3.5169
  686TIP3   OH223548   2.925   1.290   2.281  0.0745  0.0014  0.1332
  686TIP3    H123549   2.987   1.230   2.240  0.2925 -0.4538  1.1199
  686TIP3    H223550   2.849   1.288   2.223  1.8208  2.3622 -2.3851
  687TIP3   OH223551   6.024   3.311  11.684  0.9670  0.0500  0.2679
  687TIP3    H123552   6.014   3.386  11.625  0.3953 -1.0678 -1.0817
  687TIP3    H223553   6.082   3.251  11.637 -0.4840 -1.4019  0.3061
  688TIP3   OH223554   5.439   0.322  13.598 -0.2907  0.0749 -0.1967
  688TIP3    H123555   5.406   0.388  13.538  0.1102  0.1131 -0.3743
  688TIP3    H223556   5.506   0.276  13.549 -0.1015 -0.0278  0.1551
  689TIP3   OH223557   1.428   0.140  11.285 -0.1282  0.0305  0.4538
  689TIP3    H123558   1.458   0.218  11.331  0.6296  0.6236 -1.0213
  689TIP3    H223559   1.411   0.169  11.195 -2.0453 -1.0035  0.4470
  690TIP3   OH223560   6.429   4.443  14.076 -0.1605  0.0366 -0.5365
  690TIP3    H123561   6.357   4.385  14.099 -0.2846  0.3307 -0.1773
  690TIP3    H223562   6.387   4.518  14.034 -0.2247  0.9749  1.1521
  691TIP3   OH223563   0.065   3.380  13.206 -0.0688 -0.1920 -0.2863
  691TIP3    H123564   0.070   3.426  13.122 -1.0897  1.1124  0.3473
  691TIP3    H223565   0.068   3.449  13.272  0.7041 -1.2047  0.7615
  692TIP3   OH223566   5.362   5.298  14.157 -0.2379 -0.5054 -0.1234
  692TIP3    H123567   5.408   5.275  14.076  0.8079 -2.0017  0.8929
  692TIP3    H223568   5.423   5.355  14.204  0.3723 -2.0290  0.9613
  693TIP3   OH223569   3.644   2.950   5.198  0.0234 -0.1809 -0.3312
  693TIP3    H123570   3.724   2.968   5.248  1.2754  1.4017 -2.7577
  693TIP3    H223571   3.576   3.001   5.242  1.1839  1.5100 -0.4398
  694TIP3   OH223572   4.279   3.641   0.393  0.0725  0.0413 -0.2104
  694TIP3    H123573   4.373   3.655   0.382  0.2787 -0.5747  0.6717
  694TIP3    H223574   4.264   3.552   0.363 -0.4682  0.5847 -1.5987
  695TIP3   OH223575   2.388   0.363  13.283 -0.1833  0.2997 -0.3487
  695TIP3    H123576   2.440   0.378  13.204  1.2045  3.2855  1.0237
  695TIP3    H223577   2.352   0.449  13.304 -0.8196 -0.5233  2.0471
  696TIP3   OH223578   0.603   4.144   4.642 -0.3649 -0.5668 -0.0742
  696TIP3    H123579   0.654   4.116   4.566 -0.3174 -0.3174 -0.1356
  696TIP3    H223580   0.549   4.069   4.663 -0.1294 -0.7553 -0.1444
  697TIP3   OH223581   0.040   0.908  17.129  0.2808 -0.4062  0.2543
  697TIP3    H123582  -0.027   0.842  17.144  0.4658 -0.4829  0.7262
  697TIP3    H223583   0.009   0.955  17.051 -0.5282 -0.1631  0.7215
  698TIP3   OH223584   2.895   0.078   4.631  0.1729  0.1624 -0.8612
  698TIP3    H123585   2.926   0.107   4.716 -1.6328 -1.1010  0.2722
  698TIP3    H223586   2.939   0.135   4.568  1.3313  1.2737  0.9271
  699TIP3   OH223587   2.421   0.341   0.376  0.3442 -0.1721 -0.0175
  699TIP3    H123588   2.375   0.423   0.362 -0.1840 -0.4996 -0.2099
  699TIP3    H223589   2.501   0.349   0.323 -0.8916 -0.7744 -2.0188
  700TIP3   OH223590   2.763   0.864  12.616 -0.1385  0.1189 -0.1587
  700TIP3    H123591   2.759   0.916  12.536 -3.2234  0.3681  0.1171
  700TIP3    H223592   2.771   0.774  12.585  0.1612  0.3263 -0.7018
  701TIP3   OH223593   3.964   6.001  11.754 -0.1857 -0.2978  0.0148
  701TIP3    H123594   3.935   6.065  11.689 -0.5134  0.2508  0.6926
  701TIP3    H223595   3.894   5.936  11.757  0.0565 -0.5791 -0.5349
  702TIP3   OH223596   1.896   0.312   4.318  0.0758 -0.0054 -0.1819
  702TIP3    H123597   1.983   0.336   4.350  0.2064 -0.7560  0.0226
  702TIP3    H223598   1.907   0.225   4.280 -0.5747 -0.0877 -0.1876
  703TIP3   OH223599   1.516   2.012   3.542  0.1518  0.0375 -0.3922
  703TIP3    H123600   1.582   2.066   3.498 -0.4788  0.7362 -0.4964
  703TIP3    H223601   1.566   1.954   3.598  0.9249 -0.2699 -1.3883
  704TIP3   OH223602   4.612   5.995  11.592 -0.5335 -0.2897  0.1113
  704TIP3    H123603   4.687   5.963  11.543 -0.3151 -0.8335  0.8019
  704TIP3    H223604   4.568   5.916  11.624 -2.2479 -0.0477 -1.5424
  705TIP3   OH223605   1.999   5.903  14.416  0.4038 -0.3250  0.5851
  705TIP3    H123606   2.007   5.937  14.505 -0.2032 -2.8738  1.6586
  705TIP3    H223607   1.934   5.960  14.374 -0.7844 -0.2885  2.4082
  706TIP3   OH223608   2.328   6.092   3.830 -0.0555  0.1455  0.6199
  706TIP3    H123609   2.377   6.100   3.912 -0.5499  1.5394  0.8068
  706TIP3    H223610   2.259   6.028   3.849 -1.0526  1.5126  1.7689
  707TIP3   OH223611   0.243   4.943   1.238 -0.4370 -0.6487 -0.5092
  707TIP3    H123612   0.254   4.995   1.158  1.5433  1.3438  1.0126
  707TIP3    H223613   0.169   4.984   1.283 -1.1986 -1.4294 -1.0346
  708TIP3   OH223614   3.637   2.032  10.608  0.2594  0.1436 -0.2390
  708TIP3    H123615   3.556   2.084  10.610  0.1439 -0.0363  2.1958
  708TIP3    H223616   3.652   2.013  10.516 -0.7016  2.9405 -1.0020
  709TIP3   OH223617   5.362   3.209  12.258 -0.5649 -1.0007 -0.0594
  709TIP3    H123618   5.454   3.219  12.233 -0.8944  0.9543 -0.6296
  709TIP3    H223619   5.362   3.140  12.324  1.0347 -2.5029 -1.5725
  710TIP3   OH223620   2.003   0.883   0.970 -0.5625 -0.0675  0.6135
  710TIP3    H123621   1.995   0.876   0.875  1.8193 -0.2341  0.3949
  710TIP3    H223622   1.976   0.797   1.003  1.2641 -0.9514 -0.1293
  711TIP3   OH223623   6.185   3.239  13.673 -0.1224 -0.1990  0.3633
  711TIP3    H123624   6.092   3.251  13.696  0.1027 -1.1789  1.9049
  711TIP3    H223625   6.229   3.316  13.710 -0.3359  0.3887 -0.5799
  712TIP3   OH223626   0.173   4.525   4.774 -0.1206  0.2706 -0.3138
  712TIP3    H123627   0.108   4.458   4.794 -0.7550  0.8675 -0.3629
  712TIP3    H223628   0.251   4.500   4.824 -0.8995  0.4208  0.9782
  713TIP3   OH223629   4.882   2.954  11.601  0.5090  0.3399  0.2596
  713TIP3    H123630   4.972   2.987  11.598  0.1213  1.3291 -1.7821
  713TIP3    H223631   4.873   2.915  11.688  2.5034  1.3685  0.9547
  714TIP3   OH223632   2.942   2.074   0.839 -0.5845  0.2302 -0.2945
  714TIP3    H123633   2.975   2.023   0.913  0.3437  0.0196 -0.8534
  714TIP3    H223634   2.909   2.009   0.777  1.6108  0.2269 -1.4979
  715TIP3   OH223635   6.658   2.517   5.694  0.0434  0.4194 -0.4410
  715TIP3    H123636   6.679   2.608   5.716  0.6198 -0.1787  1.6351
  715TIP3    H223637   6.620   2.481   5.774 -1.1121 -0.8972 -1.5609
  716TIP3   OH223638   5.035   4.732   3.603 -0.2301 -0.0554 -0.0364
  716TIP3    H123639   4.939   4.730   3.604 -0.2418  0.5834  0.2019
  716TIP3    H223640   5.061   4.679   3.678 -0.4261  1.5937  1.2046
  717TIP3   OH223641   6.342   5.636   2.447 -0.0929 -0.4245  0.7154
  717TIP3    H123642   6.339   5.660   2.540  1.1702  1.4517  0.3047
  717TIP3    H223643   6.361   5.718   2.402 -2.2047 -1.0362 -1.3680
  718TIP3   OH223644   0.380   5.722  12.150  1.0714  0.4061 -0.3301
  718TIP3    H123645   0.327   5.643  12.157  1.0753  0.5806  2.1087
  718TIP3    H223646   0.467   5.691  12.127  0.7429 -0.1703 -0.8108
  719TIP3   OH223647   0.035   5.080   1.346  0.3334 -0.2744 -0.3610
  719TIP3    H123648  -0.040   5.093   1.287  0.2765  2.4388  0.2135
  719TIP3    H223649  -0.004   5.049   1.428  0.1152 -1.3276 -0.8547
  720TIP3   OH223650   5.975   5.942   5.612 -0.0195  0.3233 -0.9387
  720TIP3    H123651   6.012   5.997   5.681 -1.1413  0.4121 -0.3884
  720TIP3    H223652   5.991   5.990   5.531 -1.7238  1.8822 -0.3781
  721TIP3   OH223653   6.317   6.633   3.286 -0.1133 -0.7486 -0.0113
  721TIP3    H123654   6.362   6.587   3.356 -1.8354 -0.5099  1.2846
  721TIP3    H223655   6.241   6.578   3.265 -1.0674  0.4679  0.1648
  722TIP3   OH223656   1.639   3.975  12.548 -0.2101 -0.0270 -0.9051
  722TIP3    H123657   1.588   3.999  12.625  0.4616  1.6984 -0.9770
  722TIP3    H223658   1.691   4.052  12.528  1.8590 -1.4716 -1.3109
  723TIP3   OH223659   1.862   2.635  12.095  0.7118  0.2406 -0.4011
  723TIP3    H123660   1.871   2.587  12.177  1.0201  2.9877  1.2434
  723TIP3    H223661   1.784   2.599  12.053 -0.3151 -0.1727  1.8213
  724TIP3   OH223662   1.743   1.404   4.960 -0.1813 -0.3390 -0.4243
  724TIP3    H123663   1.785   1.404   4.874  0.9729 -0.6979  0.1260
  724TIP3    H223664   1.739   1.496   4.984 -0.9405 -0.2010 -1.0701
  725TIP3   OH223665   3.423   5.349  16.485 -0.5955  0.2070  0.3060
  725TIP3    H123666   3.468   5.383  16.408 -0.9383  0.0684  0.0454
  725TIP3    H223667   3.490   5.297  16.530 -0.7974 -0.9329 -0.6742
  726TIP3   OH223668   6.066   1.778  11.820 -0.3180  0.3820 -0.0977
  726TIP3    H123669   6.147   1.814  11.785  0.3909  0.6942  1.8167
  726TIP3    H223670   6.071   1.684  11.802  0.3170  0.4527 -0.2824
  727TIP3   OH223671   0.343   4.267  16.795 -0.7482  0.5039  0.9476
  727TIP3    H123672   0.297   4.277  16.712  0.7296  1.0231  0.1796
  727TIP3    H223673   0.323   4.178  16.823 -1.3544  0.3681  0.0951
  728TIP3   OH223674   1.342   3.277   2.467  0.0134  0.2740  0.0410
  728TIP3    H123675   1.353   3.369   2.493  0.7242  0.4028 -0.7010
  728TIP3    H223676   1.415   3.260   2.408  0.2612 -0.9769  0.7064
  729TIP3   OH223677   3.588   1.504  11.240  0.2151  0.5614  0.0955
  729TIP3    H123678   3.611   1.542  11.155  3.3677 -0.2834  0.5078
  729TIP3    H223679   3.659   1.531  11.299 -0.4988 -1.1050  1.8014
  730TIP3   OH223680   4.136   2.530   2.661  0.5787 -0.7121  0.4002
  730TIP3    H123681   4.071   2.584   2.706  1.6904  0.4302  0.6599
  730TIP3    H223682   4.104   2.440   2.672 -1.0475 -0.1543  0.3533
  731TIP3   OH223683   2.777   3.317  14.492  0.1044  0.0155  0.0881
  731TIP3    H123684   2.766   3.224  14.509 -2.1670 -0.0581 -1.6728
  731TIP3    H223685   2.839   3.321  14.419 -1.1512 -0.1841 -0.9926
  732TIP3   OH223686   3.839   0.245  11.943  0.1132  0.1631  0.0298
  732TIP3    H123687   3.815   0.333  11.913 -0.5482 -0.6540 -1.9167
  732TIP3    H223688   3.761   0.214  11.989  0.6016  0.8381  1.3639
  733TIP3   OH223689   1.602   4.422   2.606 -0.5866  0.6990 -0.1014
  733TIP3    H123690   1.537   4.462   2.549  0.0764  1.5877 -0.2413
  733TIP3    H223691   1.556   4.348   2.646 -1.5006  0.9630 -0.6421
  734TIP3   OH223692   6.775   5.773  13.931  0.4783 -0.0052 -0.3002
  734TIP3    H123693   6.866   5.749  13.915  0.6442 -1.1854  2.2214
  734TIP3    H223694   6.780   5.857  13.976  0.3536 -0.5606  0.7430
  735TIP3   OH223695   6.517   3.776  14.591 -0.0413  0.7709 -0.1600
  735TIP3    H123696   6.466   3.855  14.577  1.9792  2.7555  2.8931
  735TIP3    H223697   6.497   3.750  14.681  0.6917 -1.1090 -0.5244
  736TIP3   OH223698   3.093   0.955   3.951 -0.0138  0.3232  0.3580
  736TIP3    H123699   3.117   0.987   3.864  2.0763  1.6976  1.3838
  736TIP3    H223700   3.082   0.860   3.940  0.3919  0.4584 -1.3552
  737TIP3   OH223701   2.557   3.531  10.509 -0.3394 -0.1109 -0.2362
  737TIP3    H123702   2.561   3.588  10.433 -0.3994  0.8332  0.4703
  737TIP3    H223703   2.469   3.544  10.545  0.4900  1.2671  1.3846
  738TIP3   OH223704   3.827   4.419  10.667 -0.2657 -0.4956 -0.1140
  738TIP3    H123705   3.764   4.347  10.668  0.7585 -1.4633 -1.9318
  738TIP3    H223706   3.844   4.434  10.574  1.8103  0.0873  0.3380
  739TIP3   OH223707   1.752   4.212  12.291 -0.1186 -0.0056 -0.0313
  739TIP3    H123708   1.808   4.270  12.238  1.4297  0.6561  2.2744
  739TIP3    H223709   1.702   4.272  12.347 -0.8166 -0.7667  0.1647
  740TIP3   OH223710   1.938   6.195  12.085  0.1900 -0.0604 -0.0967
  740TIP3    H123711   1.852   6.153  12.093  0.0720  0.1726 -0.1522
  740TIP3    H223712   1.973   6.161  12.002  0.3122 -0.4485  0.1110
  741TIP3   OH223713   2.455   3.818   0.111 -0.0862  0.2252  0.1097
  741TIP3    H123714   2.432   3.751   0.047  0.3529 -0.1735  0.3654
  741TIP3    H223715   2.464   3.769   0.193 -0.5664  0.7187  0.4600
  742TIP3   OH223716   5.404   4.633  17.126 -0.2631  0.1872 -0.0888
  742TIP3    H123717   5.405   4.589  17.041 -0.1032  0.4844 -0.2425
  742TIP3    H223718   5.402   4.727  17.104 -0.4133  0.2595  0.2355
  743TIP3   OH223719   6.287   6.664  12.677 -0.8696 -0.3122 -0.0372
  743TIP3    H123720   6.217   6.701  12.732  0.6627  0.5770  1.3591
  743TIP3    H223721   6.339   6.611  12.738  0.9363  0.7994 -0.5870
  744TIP3   OH223722   3.131   4.002  12.141  0.0860 -0.1908  0.2709
  744TIP3    H123723   3.047   3.958  12.127 -0.7184  1.5687 -0.6789
  744TIP3    H223724   3.121   4.044  12.226  0.9107 -1.9435  1.2470
  745TIP3   OH223725   4.890   0.862  14.060  0.1056 -0.6684 -0.5466
  745TIP3    H123726   4.901   0.922  13.986  1.1272 -1.7833 -1.3117
  745TIP3    H223727   4.876   0.919  14.136 -0.3355  0.4925 -1.4964
  746TIP3   OH223728   3.466   0.742  11.493 -0.2195  0.5454 -0.2973
  746TIP3    H123729   3.504   0.797  11.561  1.6597 -0.0137 -0.8576
  746TIP3    H223730   3.386   0.707  11.531  0.1673  1.2317  1.1602
  747TIP3   OH223731   6.409   3.030  12.548 -0.3186 -0.2952 -0.0610
  747TIP3    H123732   6.330   2.976  12.545 -0.7817  0.4376 -2.0122
  747TIP3    H223733   6.469   2.982  12.605 -1.0304 -2.4417 -1.0763
  748TIP3   OH223734   3.179   3.071  10.395  0.3444  0.0732 -0.3310
  748TIP3    H123735   3.217   2.991  10.358 -0.9920 -1.3291  1.2257
  748TIP3    H223736   3.202   3.140  10.333  2.8136 -1.2511 -0.9559
  749TIP3   OH223737   4.358   5.008   0.575 -0.1417  0.4422  0.0915
  749TIP3    H123738   4.367   5.095   0.615  0.1084 -0.4433  2.0084
  749TIP3    H223739   4.366   4.947   0.649 -1.6413 -1.1623 -1.0383
  750TIP3   OH223740   1.603   5.674  14.779 -0.4030 -1.0500  0.7019
  750TIP3    H123741   1.512   5.666  14.753  0.0114 -2.5145 -0.3419
  750TIP3    H223742   1.647   5.714  14.704  0.7176 -4.9425 -0.8220
  751TIP3   OH223743   2.803   5.872  11.960  0.7470 -0.5416 -0.4757
  751TIP3    H123744   2.842   5.911  11.882  0.6495 -1.6887 -1.1104
  751TIP3    H223745   2.832   5.928  12.032 -0.2544  1.3329 -1.4646
  752TIP3   OH223746   1.548   2.702  12.906 -0.3641  0.0741  0.4979
  752TIP3    H123747   1.464   2.722  12.863 -0.5873  0.3808  1.0719
  752TIP3    H223748   1.600   2.781  12.894  1.0286 -1.2516 -2.6574
  753TIP3   OH223749   4.422   1.539  11.489  0.3309  0.1351 -0.1411
  753TIP3    H123750   4.424   1.447  11.463  0.8577  0.4228 -1.1357
  753TIP3    H223751   4.445   1.539  11.582 -3.4208 -1.0912  0.9057
  754TIP3   OH223752   0.627   3.009  16.120  0.2441 -0.1937 -0.2314
  754TIP3    H123753   0.659   3.085  16.169  0.2781 -0.8078  0.7089
  754TIP3    H223754   0.704   2.976  16.073  0.9548 -1.4508  1.7369
  755TIP3   OH223755   3.319   1.490  16.081  0.2088 -1.1753  0.3676
  755TIP3    H123756   3.375   1.516  16.153  0.4043  0.7953 -0.4639
  755TIP3    H223757   3.294   1.400  16.101  1.1397 -1.0206  2.3197
  756TIP3   OH223758   2.335   4.602  10.563 -0.0739 -0.0499 -0.2704
  756TIP3    H123759   2.399   4.651  10.512 -0.0577 -2.0978 -2.2858
  756TIP3    H223760   2.256   4.657  10.563  0.7152  1.0913 -0.3504
  757TIP3   OH223761   3.659   6.559  15.633  0.1947  0.1793 -0.0320
  757TIP3    H123762   3.673   6.546  15.539 -1.4692  2.0548 -0.5706
  757TIP3    H223763   3.700   6.483  15.674  1.6900 -0.2354 -2.2148
  758TIP3   OH223764   1.466   3.842   1.329 -0.1537  0.1399 -0.9420
  758TIP3    H123765   1.529   3.907   1.298  0.7222 -0.7004 -0.9187
  758TIP3    H223766   1.505   3.807   1.410 -1.1317  0.3563 -0.3623
  759TIP3   OH223767   6.442   4.152  16.749 -0.4072 -0.4840 -0.6488
  759TIP3    H123768   6.496   4.102  16.810  0.5398  0.5394 -0.6362
  759TIP3    H223769   6.404   4.086  16.691 -1.3648 -1.4751  1.0751
  760TIP3   OH223770   0.792   3.269   5.460  0.4833  1.0188 -0.3366
  760TIP3    H123771   0.777   3.306   5.547 -3.1106 -1.4583  0.2091
  760TIP3    H223772   0.731   3.317   5.403 -0.2913 -0.2578 -0.6205
  761TIP3   OH223773   6.541   3.946  16.937 -0.3469  0.4512 -0.1633
  761TIP3    H123774   6.534   3.875  16.874  0.8506 -1.1883  1.5220
  761TIP3    H223775   6.478   3.925  17.005 -1.0233  1.7820 -0.3423
  762TIP3   OH223776   0.278   2.821   5.204  0.6203  0.1364 -0.4125
  762TIP3    H123777   0.318   2.752   5.151 -0.0395 -2.7494  2.6711
  762TIP3    H223778   0.185   2.800   5.205  0.7141 -0.4645  2.5551
  763TIP3   OH223779   4.340   4.084  14.199 -0.0680 -0.0338 -0.3505
  763TIP3    H123780   4.410   4.098  14.136 -0.9484 -0.1361 -1.3742
  763TIP3    H223781   4.364   4.137  14.275 -0.9994  3.3770 -2.3213
  764TIP3   OH223782   4.566   1.258  13.763  0.1059 -0.1467 -0.5169
  764TIP3    H123783   4.584   1.283  13.672  0.5211 -1.8134 -0.9047
  764TIP3    H223784   4.600   1.169  13.771 -0.3218 -0.1781  1.1578
  765TIP3   OH223785   4.364   2.112   2.594  0.0600 -0.0969  0.2499
  765TIP3    H123786   4.439   2.170   2.601  0.4092 -0.4480 -0.4678
  765TIP3    H223787   4.396   2.027   2.625 -1.0393  0.5488  3.3717
  766TIP3   OH223788   5.412   4.813  11.694 -0.4562 -0.1845  0.1752
  766TIP3    H123789   5.351   4.886  11.696  0.7202  0.7949  2.7221
  766TIP3    H223790   5.486   4.842  11.747  1.5917 -1.9044 -1.6156
  767TIP3   OH223791   5.955   6.094  14.190 -0.5555 -0.2480  0.2016
  767TIP3    H123792   5.999   6.094  14.105 -0.5042  0.3025  0.2252
  767TIP3    H223793   5.963   6.185  14.221 -0.5338 -0.4563  0.8117
  768TIP3   OH223794   4.602   0.320  15.427  0.0226 -0.0384 -0.4926
  768TIP3    H123795   4.557   0.402  15.446  0.5645  0.1434  0.0087
  768TIP3    H223796   4.557   0.285  15.350  0.7397  1.4345 -1.5809
  769TIP3   OH223797   0.595   5.720   0.919 -0.1707 -0.0376 -0.5629
  769TIP3    H123798   0.552   5.719   1.005 -0.7025  2.9889 -0.7454
  769TIP3    H223799   0.523   5.717   0.856  0.1030  0.2543 -0.8933
  770TIP3   OH223800   4.916   5.102   0.112 -0.0657  0.4202 -0.4161
  770TIP3    H123801   5.008   5.087   0.131 -0.3270  0.1912  0.7250
  770TIP3    H223802   4.876   5.116   0.198 -1.1175  0.3617 -0.8881
  771TIP3   OH223803   2.721   1.028   2.349 -0.1293 -0.3513 -0.0366
  771TIP3    H123804   2.707   0.963   2.279  1.0266  0.1392 -0.7497
  771TIP3    H223805   2.724   1.112   2.303  0.6169 -0.0242  0.5947
  772TIP3   OH223806   1.787   5.122   0.184  0.1712 -0.1794  0.8117
  772TIP3    H123807   1.731   5.076   0.247 -1.2310  1.4076  0.7411
  772TIP3    H223808   1.731   5.189   0.146  1.4880 -0.0309 -0.9315
  773TIP3   OH223809   3.654   6.727   5.998  0.0627 -0.0806  0.6400
  773TIP3    H123810   3.661   6.810   6.046 -1.0856 -0.4679  1.4958
  773TIP3    H223811   3.744   6.702   5.980  0.4030  1.9878 -0.7261
  774TIP3   OH223812   6.316   5.743   1.156  0.0815 -0.1553  0.2395
  774TIP3    H123813   6.383   5.806   1.183  0.2838  0.0070 -0.6345
  774TIP3    H223814   6.295   5.695   1.236 -1.5872  2.4200  1.4240
  775TIP3   OH223815   4.101   2.960  11.922  0.2639  0.0070  0.1747
  775TIP3    H123816   4.075   3.023  11.855  1.3042  1.4288  1.0690
  775TIP3    H223817   4.172   3.003  11.969  0.6086 -1.6130  1.1822
  776TIP3   OH223818   0.963   6.123  14.258  0.1838  0.0148  0.3168
  776TIP3    H123819   0.985   6.123  14.164  0.5344 -1.9363  0.3639
  776TIP3    H223820   1.025   6.061  14.296 -0.7652 -0.1315  1.6494
  777TIP3   OH223821   1.939   5.281   4.370 -0.2728  0.0266 -0.5310
  777TIP3    H123822   2.005   5.348   4.351  0.3897 -0.7833 -1.1232
  777TIP3    H223823   1.862   5.331   4.397  0.7205  0.9670  0.6285
  778TIP3   OH223824   2.406   1.969   6.444  0.3144  0.3412  0.1368
  778TIP3    H123825   2.392   1.876   6.462 -0.0746  0.7063  1.7168
  778TIP3    H223826   2.501   1.978   6.436  0.2739 -0.4217 -1.3253
  779TIP3   OH223827   6.601   0.876   0.737 -0.0759 -0.2910  0.1021
  779TIP3    H123828   6.566   0.964   0.726 -0.6373 -0.3809  1.1390
  779TIP3    H223829   6.534   0.830   0.787  0.7506 -0.9607  0.5939
  780TIP3   OH223830   2.233   0.645   5.535 -0.2505  0.0770  0.2620
  780TIP3    H123831   2.186   0.567   5.565  0.5316 -0.7641 -0.6766
  780TIP3    H223832   2.277   0.678   5.613  2.2218 -2.4141  0.0139
  781TIP3   OH223833   6.557   0.864  14.899 -0.1971  0.2103  0.4066
  781TIP3    H123834   6.628   0.926  14.882 -1.0717  0.8998 -0.8355
  781TIP3    H223835   6.591   0.780  14.867  1.1047 -0.0523  2.3655
  782TIP3   OH223836   0.971   2.697   1.056 -0.2770  0.5822  0.9353
  782TIP3    H123837   0.966   2.790   1.077  0.8477  0.6373  0.9930
  782TIP3    H223838   0.887   2.677   1.013  0.6638  2.2950 -1.7955
  783TIP3   OH223839   0.314   0.979  15.901  0.6446  0.4023  0.5229
  783TIP3    H123840   0.243   0.956  15.960  1.5893 -1.0378  1.1062
  783TIP3    H223841   0.284   0.952  15.814 -0.3146  1.5921  0.4650
  784TIP3   OH223842   0.495   1.085  14.569 -0.5025  0.1989  0.1402
  784TIP3    H123843   0.502   1.039  14.485  0.2466 -0.7349  0.7079
  784TIP3    H223844   0.436   1.031  14.621 -1.3538  1.0343  0.0572
  785TIP3   OH223845   0.754   1.410   4.730 -0.5209 -0.7535  0.5310
  785TIP3    H123846   0.787   1.489   4.772 -2.9766  0.2430  0.6441
  785TIP3    H223847   0.705   1.441   4.654  0.5597 -2.3314 -0.8679
  786TIP3   OH223848   6.419   4.795   4.540 -0.1271  0.9818  0.6967
  786TIP3    H123849   6.352   4.809   4.607  0.6803  0.4955  1.6107
  786TIP3    H223850   6.480   4.733   4.580 -0.1822 -0.0871 -0.8610
  787TIP3   OH223851   5.144   5.619  10.748 -0.0712  0.1222 -0.4329
  787TIP3    H123852   5.208   5.582  10.687 -0.9838 -2.1003 -0.0674
  787TIP3    H223853   5.185   5.609  10.834 -0.1061  0.4454 -0.3762
  788TIP3   OH223854   2.928   2.263   0.376 -0.1298  0.4398  0.0226
  788TIP3    H123855   2.923   2.307   0.291 -0.2619 -0.3082 -0.3607
  788TIP3    H223856   2.837   2.251   0.402 -0.1159 -0.6642 -0.4266
  789TIP3   OH223857   1.803   2.385   3.881 -0.4841 -0.5901 -0.0161
  789TIP3    H123858   1.737   2.354   3.820 -0.6857  3.1464 -1.8202
  789TIP3    H223859   1.886   2.372   3.835 -0.3424 -1.0172  0.3600
  790TIP3   OH223860   2.100   1.878   5.602 -0.9172  0.7639 -0.1242
  790TIP3    H123861   2.052   1.957   5.628 -0.1370  1.1159  0.2699
  790TIP3    H223862   2.147   1.851   5.682 -1.1047 -0.0448 -0.2796
  791TIP3   OH223863   4.889   6.574   5.350 -0.9466 -0.1514 -0.1596
  791TIP3    H123864   4.913   6.599   5.440 -1.9255  0.9102 -0.1765
  791TIP3    H223865   4.931   6.490   5.337 -0.8900 -0.3803  1.3520
  792TIP3   OH223866   5.452   2.845  15.982 -0.1475  0.5802  0.3595
  792TIP3    H123867   5.442   2.815  15.892 -0.3650  0.4161  0.4364
  792TIP3    H223868   5.369   2.889  16.002  0.3820  1.7459  0.0581
  793TIP3   OH223869   4.355   0.918  11.667 -0.1754 -0.2683 -0.0306
  793TIP3    H123870   4.396   0.986  11.721  0.8152 -0.2101 -0.8429
  793TIP3    H223871   4.261   0.934  11.675  0.0602  1.2927 -0.3367
  794TIP3   OH223872   3.755   1.609   4.896 -0.5852 -0.2691  1.0596
  794TIP3    H123873   3.680   1.550   4.884 -0.0396 -0.7081 -0.2504
  794TIP3    H223874   3.818   1.558   4.947 -0.7021 -0.3055  1.1684
  795TIP3   OH223875   2.515   3.458  12.622 -0.3690 -0.5364  0.0176
  795TIP3    H123876   2.587   3.487  12.678 -0.0764 -3.5042  1.2878
  795TIP3    H223877   2.436   3.478  12.673 -0.2902 -0.0464 -0.0494
  796TIP3   OH223878   0.872   4.496  15.672 -0.3705  0.2105  0.0106
  796TIP3    H123879   0.789   4.484  15.625 -1.4439  1.1099  1.6255
  796TIP3    H223880   0.891   4.589  15.666 -0.0055  0.1748  0.5179
  797TIP3   OH223881   1.196   5.677  12.372  0.3648  0.5371  0.6353
  797TIP3    H123882   1.180   5.771  12.383 -0.2480  0.7568 -2.0047
  797TIP3    H223883   1.289   5.671  12.350  0.1756  0.6237 -0.2051
  798TIP3   OH223884   1.214   4.628  13.174  0.0982  0.1764 -0.7411
  798TIP3    H123885   1.256   4.660  13.254 -1.2879  2.1679 -0.7582
  798TIP3    H223886   1.158   4.556  13.203  0.0657  0.4941 -0.0012
  799TIP3   OH223887   1.500   4.750   3.459  0.6475 -0.6265 -0.4773
  799TIP3    H123888   1.500   4.825   3.400  0.0580  2.3569  3.1965
  799TIP3    H223889   1.592   4.740   3.484  0.4725 -0.0004  0.4185
  800TIP3   OH223890   3.522   4.869   5.606 -0.0507  0.2352  0.1420
  800TIP3    H123891   3.517   4.840   5.698  0.4004  0.6842  0.3132
  800TIP3    H223892   3.445   4.925   5.594  0.8047  1.5827  0.7612
  801TIP3   OH223893   6.203   5.178   4.483  0.5674 -0.1770 -0.0275
  801TIP3    H123894   6.232   5.207   4.570  1.8623 -0.3972 -0.3729
  801TIP3    H223895   6.284   5.153   4.438  0.0273  1.0819 -1.7261
  802TIP3   OH223896   3.255   4.648   2.963  0.0234 -0.2351 -0.2674
  802TIP3    H123897   3.295   4.691   2.887 -0.0307 -1.9182 -1.2615
  802TIP3    H223898   3.166   4.626   2.934 -1.0278  1.7676  1.2876
  803TIP3   OH223899   1.668   3.562   3.055  0.2919  0.0917  0.6619
  803TIP3    H123900   1.674   3.630   3.122  0.3873 -0.1403  0.8883
  803TIP3    H223901   1.759   3.548   3.027  0.4610 -1.0238  1.6990
  804TIP3   OH223902   3.834   2.496   6.067  0.9422 -0.0450  0.1906
  804TIP3    H123903   3.885   2.561   6.116 -0.6942 -0.8750  3.1278
  804TIP3    H223904   3.855   2.412   6.109 -1.8351 -0.5466  0.7263
  805TIP3   OH223905   4.810   6.450  13.704 -0.5058  0.5932  0.0610
  805TIP3    H123906   4.842   6.426  13.790  1.1461 -1.2119 -1.0094
  805TIP3    H223907   4.715   6.438  13.709 -0.2530 -1.0850  1.1662
  806TIP3   OH223908   1.936   1.036   4.902 -0.4940 -0.2870  0.6906
  806TIP3    H123909   1.983   1.073   4.828 -0.2866 -2.0782 -0.0994
  806TIP3    H223910   1.845   1.064   4.890 -0.3024  0.1373  0.2244
  807TIP3   OH223911   1.778   4.718   3.512  0.1260  0.3299 -0.2615
  807TIP3    H123912   1.807   4.793   3.460  0.5026 -0.2213 -0.8553
  807TIP3    H223913   1.832   4.721   3.590  0.9813 -0.0185 -0.8339
  808TIP3   OH223914   4.188   2.819   5.281 -0.0307 -0.9230 -0.4304
  808TIP3    H123915   4.139   2.901   5.272 -0.8617 -1.6410 -2.9918
  808TIP3    H223916   4.156   2.781   5.363 -3.0480 -0.8571 -1.4945
  809TIP3   OH223917   1.008   2.368   0.952 -0.5410  0.0164  0.1555
  809TIP3    H123918   1.035   2.311   1.024  1.1308 -1.0600 -1.2792
  809TIP3    H223919   1.025   2.457   0.984 -1.7814 -0.3427  1.8541
  810TIP3   OH223920   0.824   1.830  13.218 -0.0819 -0.3001  0.4624
  810TIP3    H123921   0.787   1.865  13.137 -1.5014  1.2971  1.7596
  810TIP3    H223922   0.916   1.812  13.197 -0.5963 -0.5367 -1.6729
  811TIP3   OH223923   6.137   2.904  16.549 -0.2099  0.4542 -0.6605
  811TIP3    H123924   6.122   2.998  16.559 -1.1824  0.2611 -0.1737
  811TIP3    H223925   6.217   2.887  16.598  0.4736  1.1796 -1.5140
  812TIP3   OH223926   3.613   0.971   2.767 -0.2796 -0.1879 -0.8057
  812TIP3    H123927   3.668   0.913   2.715  1.3286  0.2844  0.3393
  812TIP3    H223928   3.650   0.968   2.855 -3.2022 -1.2957  0.4623
  813TIP3   OH223929   6.737   0.677  15.135  0.3851  0.4137  0.3525
  813TIP3    H123930   6.753   0.588  15.105 -1.4446 -0.1548  0.9928
  813TIP3    H223931   6.705   0.723  15.057  1.6246  0.6043 -0.0515
  814TIP3   OH223932   1.889   3.815  12.190  0.3798 -0.3497  0.0152
  814TIP3    H123933   1.817   3.831  12.251  0.4208 -1.5612  0.3915
  814TIP3    H223934   1.931   3.736  12.223  2.6191  0.9674  0.4957
  815TIP3   OH223935   5.585   6.242   0.870  0.1340  0.1706 -0.8816
  815TIP3    H123936   5.597   6.295   0.791  1.8662 -1.9731 -2.1262
  815TIP3    H223937   5.638   6.287   0.936 -0.9304  1.7122 -1.0640
  816TIP3   OH223938   1.741   0.922  13.077  0.1134  0.0782 -0.1763
  816TIP3    H123939   1.781   0.864  13.142 -2.0784 -0.5837  0.6090
  816TIP3    H223940   1.727   0.866  13.001  3.0120  0.9382 -1.4225
  817TIP3   OH223941   2.411   4.450  12.071  0.6690  0.3788  0.6039
  817TIP3    H123942   2.401   4.546  12.072 -1.6916  0.1862 -0.5247
  817TIP3    H223943   2.427   4.429  11.979 -0.2503 -0.4306  0.6260
  818TIP3   OH223944   4.553   3.821  12.255 -0.1851  0.3000 -0.0388
  818TIP3    H123945   4.491   3.753  12.281 -2.1000  2.2828  0.7338
  818TIP3    H223946   4.561   3.812  12.160 -0.7614 -0.7084  0.0045
  819TIP3   OH223947   2.182   2.387  12.820 -0.1664 -0.6722  0.2151
  819TIP3    H123948   2.103   2.366  12.769  0.3512  0.2698 -1.0040
  819TIP3    H223949   2.245   2.419  12.755  1.1250 -1.1273  1.2171
  820TIP3   OH223950   0.296   0.615   5.323  0.3119  0.3265 -0.2089
  820TIP3    H123951   0.318   0.658   5.240 -0.2201  1.2281  0.1018
  820TIP3    H223952   0.200   0.616   5.326  0.3532  2.3015  1.4144
  821TIP3   OH223953   1.454   4.378  13.414 -0.2065 -0.3392  0.0140
  821TIP3    H123954   1.506   4.306  13.446 -0.6262 -1.0051 -0.7669
  821TIP3    H223955   1.518   4.445  13.389  0.0872  0.7701  3.4600
  822TIP3   OH223956   3.460   4.072   4.587 -0.0924 -0.2386  0.1031
  822TIP3    H123957   3.427   4.153   4.549  0.4269  0.5008  1.1710
  822TIP3    H223958   3.454   4.008   4.517 -1.9631  0.3406 -0.2971
  823TIP3   OH223959   2.799   3.091  11.154  0.4149  0.0675 -0.5678
  823TIP3    H123960   2.875   3.040  11.126 -0.5889 -0.7743 -1.8369
  823TIP3    H223961   2.756   3.036  11.219  0.6875  0.3803 -0.1228
  824TIP3   OH223962   1.953   4.114   4.604 -0.5687  0.0169  0.2615
  824TIP3    H123963   2.027   4.097   4.662 -0.3104  1.1416  0.2575
  824TIP3    H223964   1.951   4.039   4.545  0.2983 -0.2200  0.5364
  825TIP3   OH223965   0.267   4.884   1.780 -0.4547 -0.1900 -0.1541
  825TIP3    H123966   0.338   4.918   1.726  0.6980 -0.4733  1.1546
  825TIP3    H223967   0.300   4.890   1.870 -2.1795 -0.0998  0.4881
  826TIP3   OH223968   3.875   1.408  16.341  0.3084 -0.3012 -0.2190
  826TIP3    H123969   3.946   1.467  16.366  1.3953 -1.6231 -0.1481
  826TIP3    H223970   3.836   1.448  16.263  1.9636 -0.2224 -1.0235
  827TIP3   OH223971   3.656   0.654  13.117  0.5534  0.4114 -0.0298
  827TIP3    H123972   3.647   0.741  13.155 -0.3929 -0.3834  1.5766
  827TIP3    H223973   3.654   0.594  13.191 -0.0114 -1.0797 -1.2209
  828TIP3   OH223974   3.714   5.127  13.661  0.3831  0.0799  0.0691
  828TIP3    H123975   3.666   5.057  13.705  1.1095  0.6556  1.8285
  828TIP3    H223976   3.748   5.086  13.582 -0.5548 -1.1146  0.2610
  829TIP3   OH223977   5.693   3.757  12.609  0.0127  0.2472 -0.0464
  829TIP3    H123978   5.778   3.799  12.597  0.5358 -1.0251 -0.8389
  829TIP3    H223979   5.646   3.816  12.669  1.3287  1.1033  0.1724
  830TIP3   OH223980   1.665   2.737  16.013 -0.0395  0.2586  0.3611
  830TIP3    H123981   1.620   2.723  16.097  1.6036 -1.7208  0.9473
  830TIP3    H223982   1.604   2.703  15.948 -1.1453  1.4140  0.7543
  831TIP3   OH223983   4.715   1.384  16.002 -0.7846  1.0577  0.5383
  831TIP3    H123984   4.738   1.372  16.094 -0.4937  0.2744  0.3657
  831TIP3    H223985   4.621   1.401  16.003 -0.5795  2.2164  1.0689
  832TIP3   OH223986   5.941   1.206  14.272 -0.0336  0.0939 -0.2308
  832TIP3    H123987   5.882   1.192  14.346  0.1286 -0.1278 -0.1463
  832TIP3    H223988   5.896   1.272  14.219 -0.1300  0.2846  0.0851
  833TIP3   OH223989   2.668   3.589   3.748  0.9700  0.4295  0.1068
  833TIP3    H123990   2.721   3.633   3.815 -1.7267  2.6579  0.9003
  833TIP3    H223991   2.662   3.653   3.677  1.1583 -0.6790 -0.9246
  834TIP3   OH223992   0.794   3.964   3.064 -0.5432  0.3005  0.2508
  834TIP3    H123993   0.732   3.938   3.132  1.0998  0.0307  1.6996
  834TIP3    H223994   0.744   4.019   3.005 -1.7717  1.4018  2.2650
  835TIP3   OH223995   2.916   2.683  16.801 -0.2217 -0.0887  0.2328
  835TIP3    H123996   2.971   2.745  16.851 -0.3444  0.8408 -0.7654
  835TIP3    H223997   2.975   2.611  16.780  0.4600  0.6078 -0.2829
  836TIP3   OH223998   4.347   2.481  13.035 -0.3934  0.2540  0.5209
  836TIP3    H123999   4.361   2.513  12.946 -1.3992  1.2292  0.7047
  836TIP3    H224000   4.327   2.388  13.024  0.0868  0.2298 -0.2195
  837TIP3   OH224001   5.127   4.048  16.574 -0.3435 -0.4159 -0.6739
  837TIP3    H124002   5.103   4.101  16.649 -0.9920 -0.3059 -0.9531
  837TIP3    H224003   5.215   4.016  16.594 -0.9879 -1.3907  0.6910
  838TIP3   OH224004   4.594   5.286   2.005  0.5758 -1.2956 -0.0948
  838TIP3    H124005   4.624   5.373   2.028 -0.9301 -1.0575  1.0220
  838TIP3    H224006   4.619   5.275   1.913  0.5701  0.3942 -0.2989
  839TIP3   OH224007   5.972   2.625  17.015 -0.4846 -0.0736 -0.4615
  839TIP3    H124008   5.908   2.696  17.014  1.1700  1.4502 -0.4364
  839TIP3    H224009   5.947   2.569  16.941 -1.7700  0.5426 -0.5053
  840TIP3   OH224010   5.260   5.237   5.465 -0.3731  0.4619 -0.3748
  840TIP3    H124011   5.188   5.242   5.403 -0.6172  0.7024 -0.0747
  840TIP3    H224012   5.319   5.307   5.440 -1.8594  2.4026  1.4051
  841TIP3   OH224013   5.831   0.658   3.795  0.0234 -0.1940  0.6636
  841TIP3    H124014   5.867   0.738   3.757 -0.2762 -1.1622 -1.7621
  841TIP3    H224015   5.736   0.670   3.793  0.0075 -0.1946  1.2600
  842TIP3   OH224016   3.976   0.136   1.502  0.5209  0.4330  0.4391
  842TIP3    H124017   3.888   0.170   1.485  0.6408 -1.0199 -3.7038
  842TIP3    H224018   3.963   0.042   1.518  1.2279  0.3611  0.6182
  843TIP3   OH224019   1.946   2.911   5.780 -0.1418  0.4389  0.2387
  843TIP3    H124020   1.865   2.954   5.753  0.1566  0.8491 -0.0006
  843TIP3    H224021   1.928   2.880   5.869 -0.8140 -0.1193 -0.0837
  844TIP3   OH224022   1.528   5.557  15.035 -0.5165 -0.1227 -0.3914
  844TIP3    H124023   1.619   5.539  15.059  0.1471  3.9101  0.6269
  844TIP3    H224024   1.534   5.612  14.957 -1.9188  1.8762  0.8455
  845TIP3   OH224025   5.982   2.230  15.559 -0.1721 -0.4584 -0.2767
  845TIP3    H124026   5.972   2.315  15.603  0.6644 -0.8234  0.6294
  845TIP3    H224027   6.034   2.178  15.620  0.4414 -1.1882 -1.4280
  846TIP3   OH224028   2.411   3.602  15.964 -0.2480  1.0061  0.3451
  846TIP3    H124029   2.360   3.644  16.033 -0.7275  1.8647 -0.5028
  846TIP3    H224030   2.357   3.528  15.936 -1.4959  2.4219 -1.1512
  847TIP3   OH224031   5.005   4.619   1.826 -0.1247 -0.0988  0.2553
  847TIP3    H124032   4.992   4.605   1.920 -0.9932  0.9035  0.2874
  847TIP3    H224033   4.917   4.619   1.789  0.2261 -0.6904 -0.5996
  848TIP3   OH224034   2.750   4.924   1.815  0.4482 -0.7089 -0.1673
  848TIP3    H124035   2.758   4.831   1.837 -0.5986 -0.7492  0.0472
  848TIP3    H224036   2.690   4.960   1.880 -1.3915 -0.4846 -1.9396
  849TIP3   OH224037   5.356   4.561  14.544  0.7506 -0.0556  0.1949
  849TIP3    H124038   5.321   4.554  14.455 -0.3513 -3.1256  0.8377
  849TIP3    H224039   5.445   4.527  14.537  0.6081 -0.4499  0.2936
  850TIP3   OH224040   0.028   1.867   0.624  0.3659 -0.2644  0.3936
  850TIP3    H124041   0.105   1.873   0.680  0.0377  0.2789  0.7842
  850TIP3    H224042   0.004   1.957   0.605  0.4981 -0.4447 -0.6568
  851TIP3   OH224043   0.158   4.816   2.556  0.1260  0.2757  0.2434
  851TIP3    H124044   0.179   4.773   2.473 -1.4352  0.4849 -0.2767
  851TIP3    H224045   0.120   4.746   2.609 -0.2697  0.4871  0.2374
  852TIP3   OH224046   6.287   1.925   3.480 -0.0861 -0.4194  0.1029
  852TIP3    H124047   6.302   1.941   3.574 -0.4932  0.4855  0.0112
  852TIP3    H224048   6.343   1.989   3.436  1.1803 -1.7699 -0.2951
  853TIP3   OH224049   1.569   4.678  11.329 -0.4322  0.5393 -0.5985
  853TIP3    H124050   1.508   4.640  11.392 -0.2741  1.9846  0.4683
  853TIP3    H224051   1.623   4.605  11.300  0.9910  0.2020  2.6714
  854TIP3   OH224052   3.641   1.182   4.337 -0.0548  0.1569 -0.4519
  854TIP3    H124053   3.735   1.196   4.322  0.1862 -0.3467  0.5747
  854TIP3    H224054   3.599   1.216   4.258  1.1942 -2.6797 -2.4219
  855TIP3   OH224055   6.452   4.631  14.574 -0.0235  0.3078 -0.0667
  855TIP3    H124056   6.462   4.657  14.483  0.4124  1.7472  0.3702
  855TIP3    H224057   6.531   4.580  14.593  0.3489  0.8153 -0.2327
  856TIP3   OH224058   0.504   3.177   0.703 -0.2581 -0.0050  0.0176
  856TIP3    H124059   0.594   3.209   0.706 -0.1804 -0.2745  0.4547
  856TIP3    H224060   0.484   3.172   0.609 -0.7521  2.7132 -0.0725
  857TIP3   OH224061   2.442   4.638   1.249 -0.1097 -0.0606 -0.0143
  857TIP3    H124062   2.438   4.594   1.164  1.0609 -0.3234  0.0532
  857TIP3    H224063   2.392   4.719   1.237 -2.4331 -1.4680 -0.0812
  858TIP3   OH224064   5.688   4.625  10.672 -1.0717 -0.4671 -0.0175
  858TIP3    H124065   5.666   4.594  10.584  0.6723  1.2429 -1.0894
  858TIP3    H224066   5.678   4.547  10.728 -1.3810 -1.7732 -1.8473
  859TIP3   OH224067   1.339   5.404  14.935 -0.0393 -0.4637 -0.4109
  859TIP3    H124068   1.419   5.434  14.977 -0.6817  0.9482 -0.1940
  859TIP3    H224069   1.364   5.321  14.894  1.2366 -0.5972  0.6048
  860TIP3   OH224070   0.938   3.224  15.978  0.6789 -0.7319  0.8635
  860TIP3    H124071   0.940   3.211  15.883  1.8759 -1.8782  1.0276
  860TIP3    H224072   0.980   3.310  15.991 -0.1033 -0.2613  0.3200
  861TIP3   OH224073   2.550   4.470  11.309  0.0219  0.0560  0.0621
  861TIP3    H124074   2.548   4.515  11.225  1.6933 -1.4545 -0.8088
  861TIP3    H224075   2.555   4.377  11.287  2.4696 -0.2733  1.8086
  862TIP3   OH224076   0.156   5.781   2.015  0.2602  0.1438  0.2165
  862TIP3    H124077   0.083   5.816   2.065 -0.2123 -1.4324  0.6635
  862TIP3    H224078   0.212   5.737   2.080  1.9324  1.8401 -0.0316
  863TIP3   OH224079   4.863   3.958   1.578 -0.1042  0.0185 -0.2690
  863TIP3    H124080   4.791   3.901   1.549 -0.4130 -0.3064  1.0946
  863TIP3    H224081   4.937   3.935   1.522 -0.5391 -0.9572 -0.4429
  864TIP3   OH224082   1.806   3.131  14.097 -0.3209 -0.9299  0.1381
  864TIP3    H124083   1.862   3.100  14.168  0.3367 -0.9000 -0.3650
  864TIP3    H224084   1.753   3.200  14.137  0.9705 -0.0066  0.2818
  865TIP3   OH224085   3.237   3.076   2.637  0.0583 -0.1515 -0.0621
  865TIP3    H124086   3.278   3.084   2.551 -1.5186 -0.8218 -0.8980
  865TIP3    H224087   3.158   3.129   2.631  0.0258 -0.0690  1.0376
  866TIP3   OH224088   4.290   6.591   3.517 -0.2893  0.0244 -0.0929
  866TIP3    H124089   4.346   6.516   3.499  3.1569  2.4696  0.0289
  866TIP3    H224090   4.269   6.583   3.610  0.4297 -0.4985  0.0282
  867TIP3   OH224091   3.928   6.625  16.931 -0.3351  0.5993 -0.1705
  867TIP3    H124092   4.011   6.640  16.887 -0.8837 -0.1367 -1.5000
  867TIP3    H224093   3.890   6.549  16.886 -1.8845  1.1424  0.1608
  868TIP3   OH224094   5.142   2.517  15.489  0.1769 -0.1419 -0.2854
  868TIP3    H124095   5.089   2.474  15.422 -0.7810 -1.1915  1.1152
  868TIP3    H224096   5.231   2.489  15.471 -0.0540 -0.3184 -1.1868
  869TIP3   OH224097   6.560   5.366   0.831 -0.0137 -0.0106  0.7208
  869TIP3    H124098   6.524   5.423   0.898  0.9179 -1.2121  2.2721
  869TIP3    H224099   6.523   5.399   0.749 -1.6167  1.1091  1.8688
  870TIP3   OH224100   2.595   3.700  13.633 -0.7865  0.0932  0.5049
  870TIP3    H124101   2.617   3.609  13.655  2.3632  1.0327  1.5469
  870TIP3    H224102   2.595   3.701  13.537 -0.5346 -0.9342  0.4823
  871TIP3   OH224103   4.682   1.399  17.280 -0.3186 -0.0566  0.0586
  871TIP3    H124104   4.622   1.472  17.296  0.1794  0.5880 -0.9669
  871TIP3    H224105   4.643   1.353  17.205 -2.1408 -2.5075  2.4206
  872TIP3   OH224106   4.770   0.739  15.642 -0.1269  0.5766  0.1990
  872TIP3    H124107   4.696   0.689  15.676  1.7821  0.1172  3.7874
  872TIP3    H224108   4.731   0.794  15.573 -3.3503 -1.3227  0.4145
  873TIP3   OH224109   6.090   5.936  16.061  0.6857  0.6978  0.3116
  873TIP3    H124110   6.145   6.015  16.060 -0.1880  1.3088 -0.3747
  873TIP3    H224111   6.015   5.959  16.006 -0.0506 -0.2752  0.9054
  874TIP3   OH224112   5.970   0.412   3.729 -0.1238 -0.4264  0.4169
  874TIP3    H124113   5.933   0.365   3.804 -0.2408  0.1707  0.7377
  874TIP3    H224114   5.901   0.473   3.702 -0.4549 -1.3185 -0.7968
  875TIP3   OH224115   0.315   6.417   5.143 -0.0658  0.5333 -0.0249
  875TIP3    H124116   0.386   6.383   5.088  0.4647  0.9110  0.4106
  875TIP3    H224117   0.273   6.340   5.179  1.4007  0.3207  1.3050
  876TIP3   OH224118   3.365   3.925  14.164  0.3019  0.2184  0.0427
  876TIP3    H124119   3.362   4.006  14.113  0.0580 -0.6914 -1.4416
  876TIP3    H224120   3.286   3.878  14.138  0.9997 -0.9740  0.0377
  877TIP3   OH224121   4.281   2.613  12.776  0.6934 -0.0855 -0.1746
  877TIP3    H124122   4.273   2.631  12.682 -0.4511 -1.9001 -0.4592
  877TIP3    H224123   4.276   2.699  12.818  0.9934  0.7216 -1.7638
  878TIP3   OH224124   6.156   2.533  12.928  0.4325  0.3838 -0.4116
  878TIP3    H124125   6.223   2.474  12.894  0.2588 -0.6954  1.0948
  878TIP3    H224126   6.102   2.554  12.852  1.1309 -0.5411 -1.1732
  879TIP3   OH224127   2.468   4.025   2.573 -0.1772 -0.7610  0.3793
  879TIP3    H124128   2.416   4.088   2.624 -0.4597 -0.3189 -0.4368
  879TIP3    H224129   2.550   4.071   2.556 -0.0811 -0.9099  0.4433
  880TIP3   OH224130   3.883   4.443  13.119  0.6438  0.3464 -0.2739
  880TIP3    H124131   3.815   4.470  13.182  0.9895 -1.6932  1.0106
  880TIP3    H224132   3.842   4.372  13.069  1.6933 -0.6545  0.2749
  881TIP3   OH224133   0.943   4.166  16.587 -0.5921 -0.1735  0.1266
  881TIP3    H124134   0.848   4.152  16.585 -0.5130 -0.5611 -1.2832
  881TIP3    H224135   0.980   4.089  16.544  0.3958 -0.2815  1.1634
  882TIP3   OH224136   2.335   2.965  13.734  0.4107 -0.1576  0.2813
  882TIP3    H124137   2.327   2.988  13.826  0.7916 -0.6167  0.4297
  882TIP3    H224138   2.429   2.951  13.720  0.5360  1.3593 -0.5325
  883TIP3   OH224139   4.902   1.523   3.114 -0.0995  0.4216 -0.0047
  883TIP3    H124140   4.906   1.564   3.200 -1.0255  0.0455  0.2294
  883TIP3    H224141   4.825   1.563   3.073 -0.3837 -0.3043 -0.1822
  884TIP3   OH224142   0.015   6.069  13.616 -0.3609  0.6594 -0.1600
  884TIP3    H124143  -0.048   6.000  13.598  2.1427 -1.4123 -1.4867
  884TIP3    H224144   0.044   6.098  13.529  3.3128 -1.2294  0.3039
  885TIP3   OH224145   1.253   4.378  11.679 -0.4778  0.3689 -0.1130
  885TIP3    H124146   1.209   4.461  11.699 -0.9989  0.6380 -2.2124
  885TIP3    H224147   1.344   4.402  11.663 -0.3409  0.3389  0.6133
  886TIP3   OH224148   3.113   4.667  16.914 -0.1064  0.4896 -0.0138
  886TIP3    H124149   3.049   4.615  16.866  0.6106 -0.1402 -0.2847
  886TIP3    H224150   3.095   4.757  16.887 -0.1268  0.2036 -0.9644
  887TIP3   OH224151   4.750   1.935   1.881 -0.2053 -0.1669 -0.2286
  887TIP3    H124152   4.750   2.030   1.893  1.2730 -0.3164  1.1667
  887TIP3    H224153   4.736   1.900   1.969 -1.6444 -1.2465 -0.8733
  888TIP3   OH224154   1.619   0.167   5.528  0.2137 -0.0244  0.4746
  888TIP3    H124155   1.567   0.227   5.475 -1.4148 -0.5320  1.4505
  888TIP3    H224156   1.559   0.095   5.548  0.2174  0.9867  4.4500
  889TIP3   OH224157   5.975   1.589  16.313 -0.0643  0.6975 -0.0873
  889TIP3    H124158   6.041   1.652  16.285 -0.4623  1.1677  0.0217
  889TIP3    H224159   5.919   1.578  16.236 -0.7488  1.4628  0.2881
  890TIP3   OH224160   6.546   5.305  14.211  0.0811  0.7741  0.6830
  890TIP3    H124161   6.542   5.401  14.207  1.2045  0.8947  2.1373
  890TIP3    H224162   6.472   5.280  14.266  0.5333  0.8884  1.3414
  891TIP3   OH224163   5.195   1.463   4.135  0.0542  0.0491 -0.1262
  891TIP3    H124164   5.114   1.442   4.088  0.8008 -0.0618 -1.3866
  891TIP3    H224165   5.245   1.517   4.074  1.4268 -0.8504  0.1878
  892TIP3   OH224166   1.658   2.110   4.164  0.2798  0.0881  0.3775
  892TIP3    H124167   1.617   2.196   4.175  1.9331  1.1827 -1.5366
  892TIP3    H224168   1.614   2.071   4.089 -0.4134 -0.7098  1.1942
  893TIP3   OH224169   2.627   3.324  11.301 -0.2506 -0.3320  0.0203
  893TIP3    H124170   2.643   3.245  11.249 -1.7239 -0.6182 -0.0001
  893TIP3    H224171   2.628   3.395  11.236 -0.4124 -0.4992 -0.1671
  894TIP3   OH224172   2.887   4.527   3.456  0.4035  0.8550 -0.3481
  894TIP3    H124173   2.812   4.529   3.516  0.7810  1.7281  0.1093
  894TIP3    H224174   2.908   4.434   3.448 -1.5599  0.4881 -1.5403
  895TIP3   OH224175   5.037   3.475  11.592  0.3836  0.3340 -0.2860
  895TIP3    H124176   5.091   3.422  11.651 -1.2149  0.6216  1.4941
  895TIP3    H224177   4.978   3.412  11.551 -0.2203  0.4737  0.3658
  896TIP3   OH224178   0.149   3.360  16.195 -0.3556 -1.0016 -0.3648
  896TIP3    H124179   0.152   3.425  16.124 -0.2714 -1.7732 -1.0677
  896TIP3    H224180   0.091   3.292  16.163 -2.3641 -0.1588  1.3477
  897TIP3   OH224181   6.326   1.299  11.055 -0.1243  0.0142 -0.3869
  897TIP3    H124182   6.322   1.213  11.099 -1.7873  0.2774  0.0067
  897TIP3    H224183   6.383   1.351  11.111 -1.3643  0.0123  0.9233
  898TIP3   OH224184   0.909   1.391  10.972 -0.0586 -0.7359 -0.1981
  898TIP3    H124185   0.842   1.323  10.960 -2.2663  0.9423  2.0584
  898TIP3    H224186   0.966   1.356  11.040 -1.0331 -0.4490  0.7703
  899TIP3   OH224187   0.994   2.427  16.663  0.1230 -0.3299  0.3089
  899TIP3    H124188   0.937   2.356  16.692  0.8054 -0.9686  0.0958
  899TIP3    H224189   1.080   2.387  16.655  0.5232  0.5352  0.2320
  900TIP3   OH224190   6.203   5.228   3.969  0.9865  0.2529 -0.2694
  900TIP3    H124191   6.196   5.302   3.908  0.2249  0.6188  0.2476
  900TIP3    H224192   6.191   5.268   4.056 -2.1037 -0.8423 -0.1579
  901TIP3   OH224193   3.746   6.454   1.745  0.6724  0.1583  0.1186
  901TIP3    H124194   3.677   6.393   1.770  1.2584 -0.3768  0.4558
  901TIP3    H224195   3.770   6.427   1.656  1.8325 -0.9622  0.7454
  902TIP3   OH224196   4.260   4.897   3.156  0.2009  0.1603  0.0756
  902TIP3    H124197   4.324   4.938   3.098 -0.0319  0.5391  0.0833
  902TIP3    H224198   4.305   4.820   3.190  0.8242  0.6676  0.4353
  903TIP3   OH224199   2.490   6.553   2.255 -0.0636  0.3104  0.1259
  903TIP3    H124200   2.496   6.639   2.213  0.5329  0.5272  0.6442
  903TIP3    H224201   2.450   6.496   2.189  0.4791  0.7483 -0.5789
  904TIP3   OH224202   4.507   2.196   6.001 -0.5000 -0.1671  0.2448
  904TIP3    H124203   4.462   2.196   6.085 -1.5217 -1.7818 -0.2662
  904TIP3    H224204   4.436   2.198   5.936  0.1917 -1.3924 -0.5653
  905TIP3   OH224205   5.851   1.090  15.397 -0.6429 -0.2022  0.0798
  905TIP3    H124206   5.897   1.018  15.440  0.3570 -0.9102 -2.0896
  905TIP3    H224207   5.919   1.134  15.345 -1.4855  1.5932  0.4720
  906TIP3   OH224208   4.832   2.884  11.077 -0.1710 -0.2155  0.1054
  906TIP3    H124209   4.763   2.830  11.038 -0.5088 -0.7129  1.3498
  906TIP3    H224210   4.810   2.887  11.170  1.2539 -0.0161  0.4508
  907TIP3   OH224211   1.401   0.873   0.784  0.0612 -0.6098  0.4965
  907TIP3    H124212   1.395   0.804   0.849 -0.9473  0.0592  1.1255
  907TIP3    H224213   1.331   0.854   0.722 -0.0318 -0.3041  0.5095
  908TIP3   OH224214   4.200   5.176   1.086 -0.3243 -0.4021 -0.3213
  908TIP3    H124215   4.114   5.148   1.057  0.3162 -1.8953 -0.8124
  908TIP3    H224216   4.197   5.272   1.081 -1.1164 -0.5325 -2.7185
  909TIP3   OH224217   4.590   1.136  13.354 -0.0340 -0.2913 -0.4355
  909TIP3    H124218   4.658   1.171  13.412 -1.6305  0.3376  1.1060
  909TIP3    H224219   4.559   1.212  13.305  0.5056 -0.6170 -1.2948
  910TIP3   OH224220   0.160   3.392   2.491  0.2967  0.6159 -0.4602
  910TIP3    H124221   0.066   3.389   2.476 -0.1715 -1.5800  2.6004
  910TIP3    H224222   0.194   3.318   2.441  0.2043  0.4100 -0.2160
  911TIP3   OH224223   1.450   0.671  12.370  0.3386 -0.9470  0.5905
  911TIP3    H124224   1.452   0.717  12.454  0.7831 -0.2953  0.2369
  911TIP3    H224225   1.540   0.676  12.339 -0.1859  0.4604 -0.7825
  912TIP3   OH224226   3.138   5.643  12.862 -0.0441 -0.2847 -0.0272
  912TIP3    H124227   3.185   5.561  12.878 -0.5698 -0.9740 -1.9167
  912TIP3    H224228   3.135   5.652  12.767  0.4318  2.2105  0.1503
  913TIP3   OH224229   1.312   4.655  13.457 -0.2635 -0.0987 -0.1231
  913TIP3    H124230   1.363   4.724  13.499 -0.4394  1.5610 -2.5112
  913TIP3    H224231   1.364   4.576  13.470  0.1808  0.5459  2.2400
  914TIP3   OH224232   4.815   5.458  16.107 -0.0361 -0.7199  0.4232
  914TIP3    H124233   4.723   5.482  16.106  0.3473  0.9438  1.6010
  914TIP3    H224234   4.815   5.363  16.121 -1.5607 -0.7579  0.2446
  915TIP3   OH224235   0.693   6.302   1.742  0.9443  0.1577  0.6775
  915TIP3    H124236   0.693   6.216   1.699  1.8084  0.0799  0.8134
  915TIP3    H224237   0.634   6.290   1.817  0.5781 -0.1339  0.3500
  916TIP3   OH224238   3.586   5.389   4.373 -0.1407 -0.1292  0.2496
  916TIP3    H124239   3.539   5.453   4.426  1.1070  1.7022 -0.7930
  916TIP3    H224240   3.523   5.361   4.307 -0.3488  0.9503 -0.0211
  917TIP3   OH224241   3.602   4.615  15.100  0.1107  0.4766  0.0272
  917TIP3    H124242   3.684   4.598  15.147  1.0825  2.4640 -0.8541
  917TIP3    H224243   3.569   4.696  15.138 -1.0795  0.0526 -0.1040
  918TIP3   OH224244   0.382   1.829   1.047  0.0192 -1.0703 -0.7431
  918TIP3    H124245   0.334   1.781   1.115  1.6297 -2.0990 -0.2953
  918TIP3    H224246   0.426   1.900   1.095 -1.9190  0.5547 -1.3221
  919TIP3   OH224247   1.549   0.603   1.465 -0.7176 -0.2341 -0.0190
  919TIP3    H124248   1.480   0.537   1.457 -0.4953 -0.3153 -1.5447
  919TIP3    H224249   1.511   0.682   1.426 -0.5218  0.1757  0.6218
  920TIP3   OH224250   5.941   0.676  17.164  0.1627 -0.2093 -0.8420
  920TIP3    H124251   5.963   0.758  17.209 -0.3102 -0.8034  0.5236
  920TIP3    H224252   6.020   0.622  17.173 -0.3261 -0.7492  0.2873
  921TIP3   OH224253   2.423   1.562   2.308  0.1192 -0.6756  0.5315
  921TIP3    H124254   2.332   1.583   2.283 -0.1989  0.4579  2.5830
  921TIP3    H224255   2.459   1.646   2.337  1.9066 -1.0883 -0.4793
  922TIP3   OH224256   5.833   0.885   6.113 -0.2793 -0.1282 -0.2868
  922TIP3    H124257   5.892   0.830   6.165 -0.9667  0.4970  1.1902
  922TIP3    H224258   5.775   0.924   6.178 -0.9176  0.9619 -1.5151
  923TIP3   OH224259   4.135   3.635   4.899 -0.2488 -0.0617 -0.7766
  923TIP3    H124260   4.121   3.555   4.848 -1.3122  0.4686 -1.3283
  923TIP3    H224261   4.184   3.692   4.840 -0.4132  0.0900 -0.7661
  924TIP3   OH224262   3.483   3.579   3.307 -0.6075  0.0933 -0.4614
  924TIP3    H124263   3.539   3.530   3.367  1.9039  2.6310 -0.6274
  924TIP3    H224264   3.464   3.518   3.236 -0.3433 -1.6712  0.9651
  925TIP3   OH224265   1.750   5.163   0.833 -0.3952 -0.0497 -0.3719
  925TIP3    H124266   1.754   5.234   0.769  1.2698  0.2477  0.0364
  925TIP3    H224267   1.754   5.083   0.780 -0.2595  0.1828 -0.7126
  926TIP3   OH224268   1.386   0.846  12.838 -0.5258 -0.0348  0.3363
  926TIP3    H124269   1.409   0.769  12.786 -0.5267 -0.1072  0.4407
  926TIP3    H224270   1.453   0.910  12.816  0.3480 -0.5725  1.3656
  927TIP3   OH224271   4.764   5.065   4.271  0.1367 -0.5393  0.2663
  927TIP3    H124272   4.805   5.014   4.341  0.5212 -0.3664  0.1670
  927TIP3    H224273   4.770   5.009   4.194  0.1370 -0.5362  0.2641
  928TIP3   OH224274   0.016   0.257   5.869 -0.1948  0.0948  0.3711
  928TIP3    H124275  -0.052   0.273   5.935  1.7384 -0.8569  2.6733
  928TIP3    H224276   0.006   0.165   5.846  1.0949 -0.3881  1.6715
  929TIP3   OH224277   3.819   4.052   3.839  0.3304 -0.2569 -0.5505
  929TIP3    H124278   3.777   4.137   3.832  0.4500  0.2069  3.1974
  929TIP3    H224279   3.913   4.072   3.841  0.3595 -0.4689  0.2911
  930TIP3   OH224280   3.269   5.581  13.511  0.3748  0.4852  0.0897
  930TIP3    H124281   3.349   5.529  13.499  0.1665  0.2209 -0.1769
  930TIP3    H224282   3.278   5.619  13.598  1.3269  1.3951 -0.3955
  931TIP3   OH224283   4.830   6.397  11.430  0.5673  0.2061  0.2440
  931TIP3    H124284   4.880   6.450  11.492 -1.8329 -0.6795  3.0793
  931TIP3    H224285   4.856   6.307  11.450 -0.3565 -0.0990  0.0879
  932TIP3   OH224286   4.421   0.926   3.986 -0.2232 -0.1386  0.3091
  932TIP3    H124287   4.415   0.942   3.892 -2.5649 -1.0749  0.2797
  932TIP3    H224288   4.489   0.859   3.994 -1.3574 -1.4746 -0.9139
  933TIP3   OH224289   2.785   0.413   4.015 -0.5783  0.7749 -0.0013
  933TIP3    H124290   2.816   0.358   4.087 -1.3193  0.5207  0.1298
  933TIP3    H224291   2.858   0.472   3.996 -0.4057  0.9069  1.0215
  934TIP3   OH224292   0.855   2.845   2.972  0.1115 -0.1707  0.2094
  934TIP3    H124293   0.767   2.876   2.950 -0.0238  1.0542  2.3509
  934TIP3    H224294   0.913   2.890   2.911 -0.8774 -2.6823 -2.7556
  935TIP3   OH224295   1.569   2.037  16.003  0.1449 -0.4096  0.1579
  935TIP3    H124296   1.497   2.056  16.063 -0.5793  1.4313 -1.2132
  935TIP3    H224297   1.625   2.115  16.007 -0.2330  0.0236 -1.9423
  936TIP3   OH224298   0.856   2.565  14.256 -0.4802  0.4282 -0.0314
  936TIP3    H124299   0.763   2.585  14.268 -1.0744 -3.1124  1.9935
  936TIP3    H224300   0.901   2.647  14.277 -3.1185  2.3116 -1.3673
  937TIP3   OH224301   5.751   0.473   0.551  0.3105  0.0669 -0.8065
  937TIP3    H124302   5.671   0.453   0.599 -0.2157  1.6731 -0.9904
  937TIP3    H224303   5.723   0.481   0.459  0.7511  0.2284 -0.9290
  938TIP3   OH224304   5.642   3.914   2.664 -0.6387 -0.1476  0.4034
  938TIP3    H124305   5.572   3.875   2.717 -0.8301 -1.9219 -1.0834
  938TIP3    H224306   5.640   3.865   2.582  0.6641  1.5112 -0.6618
  939TIP3   OH224307   1.606   3.981  16.586 -0.0649  0.1013 -0.3635
  939TIP3    H124308   1.638   4.049  16.645 -2.7926  0.2203  1.0999
  939TIP3    H224309   1.684   3.948  16.542  1.8497  1.2896  1.9953
  940TIP3   OH224310   5.941   1.427   4.162  0.3862 -0.1651 -0.1515
  940TIP3    H124311   5.946   1.379   4.080  1.3168  0.2061 -0.3198
  940TIP3    H224312   5.966   1.363   4.229  0.3360 -0.2723 -0.2356
  941TIP3   OH224313   3.747   2.878   6.180  0.5378 -0.5084  0.3024
  941TIP3    H124314   3.787   2.932   6.249  0.7228  3.2933 -2.6097
  941TIP3    H224315   3.655   2.873   6.204  0.1236  2.8605 -0.3419
  942TIP3   OH224316   2.495   1.395  12.903  0.2985 -0.5085 -0.3818
  942TIP3    H124317   2.589   1.376  12.907  0.2254 -0.6118  0.7859
  942TIP3    H224318   2.459   1.324  12.849  0.8874 -0.4777 -0.8170
  943TIP3   OH224319   0.151   3.639   0.487 -0.2806 -0.5653 -0.1563
  943TIP3    H124320   0.129   3.702   0.555  2.9429  0.4201  0.0297
  943TIP3    H224321   0.119   3.555   0.521 -2.2128  0.5080  0.7774
  944TIP3   OH224322   3.386   1.282   0.878 -0.1247 -0.1202 -0.2354
  944TIP3    H124323   3.356   1.204   0.925  2.3451  0.4823  2.4917
  944TIP3    H224324   3.312   1.343   0.882 -0.7461 -0.9321  0.9089
  945TIP3   OH224325   1.719   3.230  13.474  0.0879 -0.1526  0.2338
  945TIP3    H124326   1.756   3.156  13.424  0.9761  0.8160 -0.5815
  945TIP3    H224327   1.690   3.191  13.556  0.6944 -1.3870 -0.1156
  946TIP3   OH224328   0.586   4.597  12.497 -0.0231  0.0505  0.4532
  946TIP3    H124329   0.624   4.580  12.411  1.8997 -0.3118  1.3475
  946TIP3    H224330   0.554   4.511  12.526 -0.3157  0.0979  0.2740
  947TIP3   OH224331   4.558   1.683  11.980  0.4183 -0.0155 -0.0605
  947TIP3    H124332   4.638   1.712  11.937  0.6592 -2.4838 -1.4115
  947TIP3    H224333   4.514   1.763  12.008  2.9293  1.3944 -0.0799
  948TIP3   OH224334   2.440   1.888  11.242  0.1138  0.0580  0.0439
  948TIP3    H124335   2.491   1.819  11.285 -0.2707 -0.3998 -0.2295
  948TIP3    H224336   2.396   1.933  11.314  0.5050  0.1343  0.2396
  949TIP3   OH224337   0.298   2.725  15.152 -0.4917 -0.0608 -0.6686
  949TIP3    H124338   0.269   2.748  15.241 -0.3363  0.3097 -0.7110
  949TIP3    H224339   0.284   2.631  15.146  1.7312 -0.4916  0.5884
  950TIP3   OH224340   3.403   4.297  11.428 -0.5338 -0.0804 -0.2530
  950TIP3    H124341   3.341   4.283  11.356 -3.1159 -1.6440  2.1599
  950TIP3    H224342   3.386   4.387  11.457 -1.0835 -0.2075 -0.1695
  951TIP3   OH224343   1.569   0.173  13.396 -0.1900  0.1428  1.2809
  951TIP3    H124344   1.605   0.085  13.389 -1.0354 -0.3425  2.8760
  951TIP3    H224345   1.575   0.194  13.489  1.2625  2.3181  0.7403
  952TIP3   OH224346   1.010   4.879  15.974  0.2511  0.1847 -0.5322
  952TIP3    H124347   1.038   4.820  16.044 -0.0375 -0.3750 -0.8896
  952TIP3    H224348   0.937   4.928  16.013 -1.5839 -1.8881 -1.2366
  953TIP3   OH224349   5.883   0.856  13.945  0.1050  0.3190 -0.4303
  953TIP3    H124350   5.880   0.903  14.028 -2.1409 -0.9739  0.2741
  953TIP3    H224351   5.792   0.830  13.929  0.7412 -0.7011 -2.5679
  954TIP3   OH224352   5.088   0.221  15.219 -0.3284 -0.1788  0.1879
  954TIP3    H124353   5.027   0.267  15.276 -0.4773 -2.0867  1.6322
  954TIP3    H224354   5.158   0.191  15.278  1.8265  1.6323 -1.3676
  955TIP3   OH224355   0.983   2.817  14.247 -0.1762 -0.1934  0.2139
  955TIP3    H124356   1.015   2.849  14.332  3.0506  0.2597 -1.0787
  955TIP3    H224357   1.046   2.851  14.184 -1.4850 -2.0511 -2.1586
  956TIP3   OH224358   3.566   0.346  16.675 -0.0970 -0.1498  0.0818
  956TIP3    H124359   3.474   0.366  16.688  0.1228  0.1527  1.2205
  956TIP3    H224360   3.608   0.430  16.657  0.2829 -0.0029  1.5933
  957TIP3   OH224361   4.534   6.607   5.359  0.3107  0.0675  0.0157
  957TIP3    H124362   4.509   6.517   5.339 -1.9201  0.9007 -1.2006
  957TIP3    H224363   4.586   6.601   5.439  0.7952 -2.3522 -0.4576
  958TIP3   OH224364   6.531   4.237   0.319 -0.2073 -0.0389  0.0945
  958TIP3    H124365   6.507   4.313   0.266 -0.1514  0.2699  0.5171
  958TIP3    H224366   6.592   4.189   0.263 -2.5738 -1.4049 -1.4428
  959TIP3   OH224367   3.595   5.974   2.457  0.1694  0.0566 -0.3966
  959TIP3    H124368   3.590   5.879   2.441 -1.2144  0.2748 -1.2984
  959TIP3    H224369   3.506   5.999   2.480  0.6663  1.0452  0.4852
  960TIP3   OH224370   1.427   0.704   0.129 -0.1142 -0.4240 -0.1828
  960TIP3    H124371   1.484   0.705   0.052 -1.3636 -1.9003 -1.1450
  960TIP3    H224372   1.472   0.648   0.192  0.0121 -0.7060 -0.5260
  961TIP3   OH224373   4.774   3.005   2.950  0.1787 -0.4737  0.3191
  961TIP3    H124374   4.731   3.073   2.898  0.9497  0.7689  1.2913
  961TIP3    H224375   4.814   2.948   2.886 -1.0780 -0.4262 -0.5343
  962TIP3   OH224376   3.884   4.344  14.499 -0.2471 -0.3924 -0.2529
  962TIP3    H124377   3.893   4.409  14.430  0.1568  0.2282  0.3871
  962TIP3    H224378   3.943   4.273  14.473 -1.6179 -1.0676 -1.5918
  963TIP3   OH224379   0.180   5.106  12.096 -0.4741  0.0508 -0.2930
  963TIP3    H124380   0.135   5.177  12.049 -0.6512  0.7423  0.9003
  963TIP3    H224381   0.236   5.150  12.160 -1.4994 -0.8775  1.3023
  964TIP3   OH224382   5.456   4.070   0.087  0.4139  0.8164  0.0897
  964TIP3    H124383   5.417   4.060   0.174  0.4073 -1.1333 -0.1175
  964TIP3    H224384   5.549   4.054   0.101  0.4826  0.9816 -0.1816
  965TIP3   OH224385   6.777   2.051  16.866 -0.0878  0.1310  0.4479
  965TIP3    H124386   6.708   2.108  16.900  0.4211  1.4981 -0.7513
  965TIP3    H224387   6.841   2.112  16.828  0.9202 -1.2081 -0.0307
  966TIP3   OH224388   4.841   4.316   3.902 -0.0533 -0.2142 -0.2635
  966TIP3    H124389   4.886   4.368   3.968  0.0226  0.6497 -0.9793
  966TIP3    H224390   4.809   4.239   3.949  3.6995 -1.7733 -0.0975
  967TIP3   OH224391   4.109   3.227  13.353 -0.3323 -0.4303  0.2516
  967TIP3    H124392   4.131   3.246  13.444 -0.1116 -1.5711  0.4499
  967TIP3    H224393   4.088   3.134  13.353 -1.4423 -0.1876 -0.6587
  968TIP3   OH224394   3.839   5.687  12.469  0.0261 -0.0590 -0.1976
  968TIP3    H124395   3.827   5.761  12.528  1.5592 -1.0507  1.4157
  968TIP3    H224396   3.801   5.612  12.516  0.1611 -0.6502 -1.0021
  969TIP3   OH224397   3.410   0.649  15.271  0.4660 -0.0851 -0.0847
  969TIP3    H124398   3.425   0.608  15.186 -2.3872  0.6189 -0.9821
  969TIP3    H224399   3.388   0.577  15.330  1.5958 -0.4727 -0.1199
  970TIP3   OH224400   6.742   4.063  16.244  0.4511 -0.0114  0.1094
  970TIP3    H124401   6.712   4.091  16.331 -2.6198 -0.8644 -0.6127
  970TIP3    H224402   6.723   4.136  16.187  0.4641 -0.2783 -0.2378
  971TIP3   OH224403   6.393   3.974   5.492  0.0082  0.0476  0.2165
  971TIP3    H124404   6.471   4.017   5.457  0.6692 -0.8132  0.5913
  971TIP3    H224405   6.425   3.888   5.522 -0.8613  0.1359  1.4191
  972TIP3   OH224406   3.380   2.805   3.319 -0.1632  0.7117 -0.3715
  972TIP3    H124407   3.355   2.719   3.352  1.8319  0.3270  0.2341
  972TIP3    H224408   3.310   2.863   3.347 -1.5196 -0.6858 -0.7502
  973TIP3   OH224409   4.128   2.295   0.463  0.5598 -0.4037  0.2006
  973TIP3    H124410   4.177   2.368   0.426 -0.8902  1.4277  1.8054
  973TIP3    H224411   4.185   2.262   0.533  1.1918 -0.8056 -0.4890
  974TIP3   OH224412   5.150   0.550  12.921 -0.6676 -0.0708  0.4290
  974TIP3    H124413   5.219   0.604  12.960 -1.7494  2.5365 -1.1033
  974TIP3    H224414   5.182   0.530  12.833 -1.4332  0.3131  0.0609
  975TIP3   OH224415   5.969   4.180  12.737 -0.1458  0.2148 -0.3208
  975TIP3    H124416   5.879   4.175  12.770 -0.1187 -1.0569 -0.3918
  975TIP3    H224417   5.962   4.225  12.654 -0.5128  1.4981  0.3982
  976TIP3   OH224418   6.017   6.163  13.318 -0.1591  0.3042  0.2918
  976TIP3    H124419   6.071   6.086  13.301  2.3988  2.3098 -0.9112
  976TIP3    H224420   6.019   6.172  13.413  1.9870  0.5896  0.2369
  977TIP3   OH224421   4.181   2.247   5.544  0.2359 -0.8826 -0.2499
  977TIP3    H124422   4.230   2.328   5.553  0.2021 -0.6375 -2.0825
  977TIP3    H224423   4.089   2.275   5.537  0.1702 -1.1189 -0.3451
  978TIP3   OH224424   4.777   1.073  17.186  0.0626  0.0682  0.8863
  978TIP3    H124425   4.697   1.086  17.135 -0.1160 -1.1502  0.8445
  978TIP3    H224426   4.844   1.122  17.138 -0.4294  0.2106  0.3341
  979TIP3   OH224427   1.151   0.289   3.342 -0.3832  0.4706  0.6413
  979TIP3    H124428   1.100   0.255   3.415  0.3905 -0.2043  0.8643
  979TIP3    H224429   1.242   0.277   3.368 -0.0855 -0.8575 -0.9241
  980TIP3   OH224430   0.755   5.782   4.032  0.1788 -0.0917  0.1098
  980TIP3    H124431   0.763   5.694   3.994  1.8812  0.2764 -0.4312
  980TIP3    H224432   0.833   5.828   4.002 -0.0872  1.2370  1.3991
  981TIP3   OH224433   5.293   0.542   5.976  0.5583 -0.7687 -0.8786
  981TIP3    H124434   5.311   0.589   6.057 -3.4678  1.0752 -0.9144
  981TIP3    H224435   5.222   0.481   5.998 -0.4685 -0.3784 -2.9134
  982TIP3   OH224436   0.585   3.393   1.508 -0.1981 -0.6197  0.2220
  982TIP3    H124437   0.506   3.340   1.521 -0.4857 -0.2591 -0.0445
  982TIP3    H224438   0.597   3.439   1.591 -0.8545  0.1052 -0.0769
  983TIP3   OH224439   3.050   2.715  12.775  0.9729 -0.1582  0.2986
  983TIP3    H124440   3.136   2.711  12.815  0.6584 -1.3959  0.8832
  983TIP3    H224441   3.016   2.625  12.781 -0.4713  0.3706  0.3425
  984TIP3   OH224442   3.125   1.939   4.158  0.1547 -0.0186  0.3871
  984TIP3    H124443   3.099   1.895   4.077  1.1067 -1.9062  1.0874
  984TIP3    H224444   3.069   1.902   4.225  1.9799 -1.2977  1.2408
  985TIP3   OH224445   6.276   2.424  13.773  0.0043 -0.2771  0.2851
  985TIP3    H124446   6.302   2.499  13.827 -0.3846  0.5841 -0.7059
  985TIP3    H224447   6.354   2.368  13.772  1.0587  1.1487 -0.7133
  986TIP3   OH224448   1.031   3.713  16.386  0.8062  0.3190 -0.1221
  986TIP3    H124449   0.986   3.706  16.302  1.1559 -0.5823 -0.2438
  986TIP3    H224450   1.105   3.651  16.379  0.9903  0.4334  0.7423
  987TIP3   OH224451   0.358   4.345   2.747 -0.2715  0.6026 -0.0566
  987TIP3    H124452   0.300   4.383   2.680  0.0983  0.4696 -0.4543
  987TIP3    H224453   0.379   4.258   2.714 -0.2311  0.4690  0.3217
  988TIP3   OH224454   0.734   6.488  12.186  0.7191  0.0858 -0.5184
  988TIP3    H124455   0.785   6.534  12.252  0.1130 -0.1129  0.0980
  988TIP3    H224456   0.742   6.395  12.210 -1.3240  0.1620  0.6214
  989TIP3   OH224457   0.605   5.850   2.302  0.1250 -0.1686 -0.3625
  989TIP3    H124458   0.653   5.919   2.348  0.6040  0.9348 -2.4763
  989TIP3    H224459   0.515   5.859   2.333  0.2412  1.2445 -0.4336
  990TIP3   OH224460   4.433   1.349   0.781 -0.4467  0.3406  0.0985
  990TIP3    H124461   4.377   1.409   0.830  0.2290  1.9055 -0.9855
  990TIP3    H224462   4.373   1.302   0.723 -1.0092 -0.1556  1.0868
  991TIP3   OH224463   6.547   6.008   5.844  0.0627  0.1075  0.0442
  991TIP3    H124464   6.499   6.077   5.889 -1.0997  0.5330 -1.8019
  991TIP3    H224465   6.593   6.053   5.773  1.1401 -0.6916  0.2145
  992TIP3   OH224466   0.803   2.667  15.470  0.1754  0.1281 -0.4485
  992TIP3    H124467   0.791   2.754  15.431  1.1552 -0.1605 -1.4382
  992TIP3    H224468   0.717   2.627  15.467 -0.6659  1.7225  1.6367
  993TIP3   OH224469   2.499   4.232   2.881 -0.0417 -0.0274 -0.6441
  993TIP3    H124470   2.438   4.252   2.810  0.8487  0.1287 -1.3689
  993TIP3    H224471   2.551   4.312   2.891 -0.5222  0.1540  0.5619
  994TIP3   OH224472   0.894   3.184  14.264 -0.0389  0.5584 -0.1730
  994TIP3    H124473   0.891   3.204  14.358  0.4166  0.5916 -0.1668
  994TIP3    H224474   0.966   3.237  14.230  0.8477 -0.6668 -0.2414
  995TIP3   OH224475   2.970   0.445  14.480 -0.3758  0.0548  0.1093
  995TIP3    H124476   3.002   0.452  14.571 -0.9443 -0.3067  0.3415
  995TIP3    H224477   2.895   0.503  14.476 -0.2776  0.1606 -0.1634
  996TIP3   OH224478   1.138   0.207   0.086 -0.9685 -0.0815  0.2446
  996TIP3    H124479   1.056   0.157   0.094  0.9871 -2.8167  5.4402
  996TIP3    H224480   1.193   0.154   0.029 -1.0912 -0.6968  0.6988
  997TIP3   OH224481   0.339   0.371  12.760 -0.5037  0.2124  0.4729
  997TIP3    H124482   0.293   0.357  12.843  0.6665  0.5373  1.1836
  997TIP3    H224483   0.411   0.308  12.761 -0.3650  0.3546 -0.2129
  998TIP3   OH224484   4.348   2.456  17.125  0.1331  0.1050 -0.0258
  998TIP3    H124485   4.290   2.428  17.055 -1.3369 -0.2960  1.3463
  998TIP3    H224486   4.398   2.529  17.087  1.1579 -1.7175 -2.2890
  999TIP3   OH224487   3.715   6.204  13.501  0.1151 -0.0183 -0.1415
  999TIP3    H124488   3.641   6.193  13.441 -1.0718 -3.7250  1.8642
  999TIP3    H224489   3.676   6.231  13.584  1.1671 -0.4687  0.5146
 1000TIP3   OH224490   0.637   0.785   4.407  0.0680  0.2942 -0.0468
 1000TIP3    H124491   0.640   0.735   4.488 -2.7884 -1.3911 -0.9018
 1000TIP3    H224492   0.704   0.745   4.351  0.5037 -0.0003  0.6805
 1001TIP3   OH224493   3.562   2.347   0.239  0.2818  0.2947  0.1658
 1001TIP3    H124494   3.573   2.269   0.184  2.1956  0.3695  0.4100
 1001TIP3    H224495   3.598   2.322   0.324 -0.3825  1.0042  0.6686
 1002TIP3   OH224496   3.394   4.875  14.146 -0.7082  0.1929 -0.2632
 1002TIP3    H124497   3.365   4.966  14.142 -0.5462  0.2043 -1.5158
 1002TIP3    H224498   3.385   4.851  14.238 -0.2808  1.6266  0.1720
 1003TIP3   OH224499   3.400   1.339   3.010  0.3627  0.3184 -0.1031
 1003TIP3    H124500   3.472   1.286   2.974  1.0653  1.2443 -0.0747
 1003TIP3    H224501   3.331   1.275   3.029 -0.4984 -0.0903 -4.1525
 1004TIP3   OH224502   5.465   5.516   6.108  0.2860  0.0984 -0.2750
 1004TIP3    H124503   5.371   5.520   6.121  0.4869  0.9461  0.9636
 1004TIP3    H224504   5.483   5.582   6.041 -0.0100 -0.2342 -0.6909
 1005TIP3   OH224505   6.544   2.770   1.867  0.4685  0.5369 -0.2948
 1005TIP3    H124506   6.456   2.795   1.838  0.1199  0.8793  1.0016
 1005TIP3    H224507   6.599   2.845   1.843  0.2732  0.6135 -0.5051
 1006TIP3   OH224508   0.650   1.415  15.494 -0.0925  0.0128  0.0937
 1006TIP3    H124509   0.640   1.342  15.433 -1.1958  0.7860 -0.6648
 1006TIP3    H224510   0.713   1.473  15.452  0.0545 -0.0315  0.2526
 1007TIP3   OH224511   0.829   3.963  13.778 -0.0395  0.2442 -0.0915
 1007TIP3    H124512   0.749   3.980  13.728 -0.1381 -0.0944 -0.0495
 1007TIP3    H224513   0.888   3.921  13.715 -0.0331  0.1465 -0.0212
 1008TIP3   OH224514   1.471   5.256   4.793 -0.2250  0.0058  0.4155
 1008TIP3    H124515   1.411   5.235   4.864  0.6202 -3.0939  0.2788
 1008TIP3    H224516   1.487   5.172   4.749  1.3550  1.3975 -1.7799
 1009TIP3   OH224517   1.256   5.484  11.315 -0.2548  0.0917 -0.1710
 1009TIP3    H124518   1.270   5.422  11.386  1.5557  1.7183  0.9385
 1009TIP3    H224519   1.317   5.456  11.247 -0.6925 -0.3812 -0.3715
 1010TIP3   OH224520   5.660   6.761   4.311 -0.1355  0.0596 -0.0212
 1010TIP3    H124521   5.733   6.702   4.292  0.1120 -0.0143  1.1085
 1010TIP3    H224522   5.678   6.794   4.399 -2.2022 -1.1215  0.9050
 1011TIP3   OH224523   0.831   3.475   2.838  0.5013  0.1154  0.4355
 1011TIP3    H124524   0.743   3.482   2.802 -0.2855  1.6144  2.5807
 1011TIP3    H224525   0.869   3.563   2.828  1.2279 -0.1430  0.8312
 1012TIP3   OH224526   4.153   1.077   1.400 -0.0299  0.1756 -0.0565
 1012TIP3    H124527   4.180   1.151   1.346 -0.6448  1.1122  0.9055
 1012TIP3    H224528   4.196   1.091   1.484 -0.9853  0.0165  0.4719
 1013TIP3   OH224529   1.346   5.089   3.922 -0.5931  0.7434 -0.1242
 1013TIP3    H124530   1.341   5.156   3.854 -0.9473  1.2429  0.4013
 1013TIP3    H224531   1.378   5.011   3.875 -2.4883  0.5892 -1.2238
 1014TIP3   OH224532   4.616   4.093   5.609  0.6523  0.0688 -0.0329
 1014TIP3    H124533   4.682   4.074   5.543  0.2037  0.5284 -0.6140
 1014TIP3    H224534   4.558   4.017   5.608 -0.1535  0.6855 -1.1483
 1015TIP3   OH224535   1.075   4.246  16.960  0.3524  0.0010 -0.0112
 1015TIP3    H124536   1.113   4.239  17.047 -1.2283 -0.1990  0.6909
 1015TIP3    H224537   1.017   4.169  16.954  3.4415 -2.2560 -2.7708
 1016TIP3   OH224538   6.286   1.376  11.548  0.0599 -0.5326  0.0480
 1016TIP3    H124539   6.273   1.341  11.636  1.1909 -2.8376 -0.6777
 1016TIP3    H224540   6.239   1.315  11.490  1.2615 -0.3504 -1.1467
 1017TIP3   OH224541   3.784   5.930   0.855 -0.0228  0.2968  0.0246
 1017TIP3    H124542   3.691   5.942   0.835 -0.2321  1.4882  1.6012
 1017TIP3    H224543   3.814   6.017   0.882  1.4275 -0.1916 -0.0010
 1018TIP3   OH224544   3.895   4.229   2.161  0.5091  0.6299  0.4649
 1018TIP3    H124545   3.936   4.212   2.246  0.9105  3.1319  0.8173
 1018TIP3    H224546   3.936   4.166   2.102  1.8628  0.3418  1.6719
 1019TIP3   OH224547   3.985   0.480   4.886 -0.5007 -0.0645  0.2324
 1019TIP3    H124548   4.041   0.528   4.824 -1.3702  0.4947 -0.1238
 1019TIP3    H224549   4.014   0.389   4.878 -0.4044  0.0446 -0.7791
 1020TIP3   OH224550   5.197   6.642   5.911  0.4915  0.0898 -0.1866
 1020TIP3    H124551   5.246   6.560   5.909 -1.4666 -1.1425  0.8072
 1020TIP3    H224552   5.258   6.705   5.948  1.9346 -0.9721 -0.6894
 1021TIP3   OH224553   4.276   4.586  16.636  0.3418 -0.1147  0.0825
 1021TIP3    H124554   4.330   4.511  16.610  2.7501  1.3605  0.6273
 1021TIP3    H224555   4.263   4.574  16.730 -0.6858 -0.7020 -0.1268
 1022TIP3   OH224556   5.709   1.753  14.763 -1.0722 -0.3383 -0.1388
 1022TIP3    H124557   5.761   1.748  14.683  2.1049  2.8029  1.5990
 1022TIP3    H224558   5.750   1.688  14.821 -0.0493  0.9871  0.6586
 1023TIP3   OH224559   0.077   1.766   6.430 -0.0129  0.2230 -0.0481
 1023TIP3    H124560   0.171   1.750   6.423 -0.0133  0.9953 -2.4347
 1023TIP3    H224561   0.039   1.682   6.455  1.0098 -0.9188 -2.2146
 1024TIP3   OH224562   4.083   5.110   5.936  0.2774  0.6813  0.0174
 1024TIP3    H124563   4.030   5.190   5.933  0.4434  0.8706  1.6158
 1024TIP3    H224564   4.127   5.113   6.021  2.6248  0.3703 -1.1269
 1025TIP3   OH224565   4.708   2.997   2.115  0.0665  0.0814  0.4231
 1025TIP3    H124566   4.754   3.004   2.031 -0.2595 -3.1269 -0.0892
 1025TIP3    H224567   4.634   3.057   2.107  0.7418  0.7373 -1.1214
 1026TIP3   OH224568   2.161   4.988   5.159  0.2608 -0.0660 -0.0567
 1026TIP3    H124569   2.239   4.949   5.120  0.9020  0.2078  0.9448
 1026TIP3    H224570   2.144   5.066   5.105  0.6933 -0.1142 -0.2673
 1027TIP3   OH224571   1.591   4.770  16.538 -0.9023 -0.2121  0.4506
 1027TIP3    H124572   1.630   4.750  16.453 -1.3761 -1.6087  0.5492
 1027TIP3    H224573   1.564   4.685  16.572 -0.3664  0.2953  2.1732
 1028TIP3   OH224574   4.588   3.359  11.932  0.6010  0.0005 -0.3335
 1028TIP3    H124575   4.656   3.308  11.888  0.3877 -0.3347 -0.2771
 1028TIP3    H224576   4.595   3.446  11.894  0.6697 -0.1910 -0.7617
 1029TIP3   OH224577   4.422   0.865  15.389  0.7681 -0.4828 -0.0181
 1029TIP3    H124578   4.341   0.817  15.371  1.6536 -2.1632  0.3720
 1029TIP3    H224579   4.431   0.925  15.315 -2.1737  1.5938  1.2012
 1030TIP3   OH224580   0.015   1.016   5.462 -0.3949 -0.1956 -0.2471
 1030TIP3    H124581  -0.053   0.956   5.494 -1.4032  0.4263 -1.1870
 1030TIP3    H224582  -0.011   1.101   5.496  1.5249 -0.3884  1.8506
 1031TIP3   OH224583   0.995   5.181  14.563  0.2048  0.0570 -0.3663
 1031TIP3    H124584   0.928   5.219  14.506  1.4984  0.9913 -1.2950
 1031TIP3    H224585   1.001   5.242  14.636 -1.3777 -1.0849  0.7501
 1032TIP3   OH224586   1.966   5.327  14.408 -0.0794  0.5246  0.0202
 1032TIP3    H124587   2.025   5.368  14.472 -0.5499  2.1873 -0.5784
 1032TIP3    H224588   1.972   5.233  14.426 -0.1211  0.9566  2.4249
 1033TIP3   OH224589   1.821   0.023   3.333  0.0423  0.4200  0.0480
 1033TIP3    H124590   1.873   0.093   3.295 -1.5701  1.4151 -0.3742
 1033TIP3    H224591   1.797   0.056   3.420 -0.8730  0.4619 -0.2238
 1034TIP3   OH224592   2.320   6.108  11.144 -0.2872  0.2744 -0.1184
 1034TIP3    H124593   2.406   6.129  11.109  0.6160 -0.8300  1.3856
 1034TIP3    H224594   2.336   6.042  11.211 -2.4904 -1.2768 -1.0438
 1035TIP3   OH224595   2.548   6.360  12.853  0.1591  0.4161 -0.2923
 1035TIP3    H124596   2.462   6.378  12.816  0.4978  1.7529 -0.4453
 1035TIP3    H224597   2.554   6.264  12.853 -2.3289  0.1938  2.0672
 1036TIP3   OH224598   2.741   1.623   2.362 -0.4111  0.1332 -0.0824
 1036TIP3    H124599   2.698   1.586   2.440 -0.5447 -0.6857 -0.5324
 1036TIP3    H224600   2.755   1.547   2.305  0.0939  0.6624 -0.6642
 1037TIP3   OH224601   0.058   4.007   5.143  0.5846 -0.1048 -0.1691
 1037TIP3    H124602   0.079   4.085   5.194 -0.9034  1.0079 -1.2084
 1037TIP3    H224603   0.097   4.024   5.057 -0.5247 -0.0725 -0.6801
 1038TIP3   OH224604   4.524   3.328   5.260 -0.6719 -0.6294 -0.2620
 1038TIP3    H124605   4.603   3.359   5.304 -0.8821 -2.4980  1.5048
 1038TIP3    H224606   4.557   3.278   5.185 -0.2323  0.4702 -0.8016
 1039TIP3   OH224607   5.015   4.442  17.127  0.2873 -0.1305  0.3631
 1039TIP3    H124608   4.952   4.438  17.055  2.3956  1.1353 -1.6245
 1039TIP3    H224609   5.020   4.535  17.149 -0.1919 -0.4928  2.0072
 1040TIP3   OH224610   3.296   5.841  15.307 -0.3176  0.4616 -0.2779
 1040TIP3    H124611   3.291   5.752  15.273 -1.8753 -0.0774  1.2984
 1040TIP3    H224612   3.389   5.858  15.315  0.0285 -0.4513 -2.0436
 1041TIP3   OH224613   3.927   0.980  14.317 -0.3097 -0.1994 -0.0004
 1041TIP3    H124614   3.869   0.910  14.346 -0.1522 -1.2346 -2.0490
 1041TIP3    H224615   4.012   0.937  14.305  0.1478  0.6583  0.1427
 1042TIP3   OH224616   5.818   3.941  15.396 -0.1238 -0.1486 -0.3535
 1042TIP3    H124617   5.894   3.952  15.453 -0.2462 -0.3215 -0.1601
 1042TIP3    H224618   5.850   3.968  15.309 -0.6163  2.5433  0.2405
 1043TIP3   OH224619   6.256   5.284   5.171  0.0779  0.3451 -0.2607
 1043TIP3    H124620   6.216   5.199   5.191  1.1617 -0.3368 -0.8965
 1043TIP3    H224621   6.209   5.315   5.094 -0.2535  0.2752 -0.0892
 1044TIP3   OH224622   5.233   4.511  14.964 -0.4631  0.2105 -0.1917
 1044TIP3    H124623   5.174   4.472  14.899  0.9440 -0.2763 -1.2099
 1044TIP3    H224624   5.282   4.437  15.000  0.2917  0.7209 -0.1466
 1045TIP3   OH224625   0.426   0.121   0.219 -0.3724 -0.1282  0.7321
 1045TIP3    H124626   0.334   0.113   0.242 -0.3360 -4.3035 -0.1886
 1045TIP3    H224627   0.460   0.031   0.224  3.7468  1.3459  1.4209
 1046TIP3   OH224628   2.560   0.970   2.898 -0.1809  0.3110 -0.4690
 1046TIP3    H124629   2.476   0.924   2.902 -0.0456  0.1288  0.6127
 1046TIP3    H224630   2.580   0.976   2.805 -0.7897 -0.7526 -0.6750
 1047TIP3   OH224631   0.072   5.547   5.258  0.4685  0.1352 -0.6419
 1047TIP3    H124632   0.154   5.532   5.211  0.9341  0.4778  0.0549
 1047TIP3    H224633   0.013   5.583   5.192  0.8100 -0.3087 -1.1964
 1048TIP3   OH224634   4.913   1.674  12.700  0.0180 -0.4186 -0.2494
 1048TIP3    H124635   4.876   1.759  12.726  0.4167 -0.2093 -0.3609
 1048TIP3    H224636   5.005   1.680  12.724  0.1839 -0.5881 -0.8373
 1049TIP3   OH224637   2.000   4.034  14.632  0.1537  0.4271 -0.7030
 1049TIP3    H124638   2.087   3.995  14.637 -0.2681 -0.9124 -2.9485
 1049TIP3    H224639   1.982   4.065  14.721  2.8307  0.5634 -0.1761
 1050TIP3   OH224640   2.591   1.853  14.810  0.2176  0.6991 -0.2032
 1050TIP3    H124641   2.672   1.902  14.800  0.5912  0.7506  2.6775
 1050TIP3    H224642   2.588   1.794  14.734  2.7406  0.9803 -0.5344
 1051TIP3   OH224643   4.178   1.368  12.181  0.2612 -0.1400 -0.1386
 1051TIP3    H124644   4.134   1.453  12.186 -1.1110 -0.8008 -0.7353
 1051TIP3    H224645   4.181   1.349  12.088 -0.6053 -1.3433  0.0749
 1052TIP3   OH224646   3.646   4.129  11.452  0.0643  0.3264  0.3731
 1052TIP3    H124647   3.568   4.181  11.431  0.2223 -0.3152 -1.9143
 1052TIP3    H224648   3.611   4.046  11.484 -0.2389 -0.2759 -1.4413
 1053TIP3   OH224649   1.439   3.216   1.509 -0.5839  0.1946  0.3445
 1053TIP3    H124650   1.523   3.222   1.554  0.2458  0.7041 -1.2374
 1053TIP3    H224651   1.432   3.297   1.460  0.4249 -2.0019 -3.6424
 1054TIP3   OH224652   4.972   0.703   4.280  0.0473  0.5388  0.1440
 1054TIP3    H124653   4.905   0.662   4.335 -0.1013  0.3428 -0.1790
 1054TIP3    H224654   4.960   0.797   4.294 -0.9664  0.5437 -0.6869
 1055TIP3   OH224655   2.681   1.995   6.473 -0.0190  0.0331  0.7427
 1055TIP3    H124656   2.754   2.056   6.478 -0.3160  0.6703 -1.7216
 1055TIP3    H224657   2.720   1.909   6.491  1.0010  0.5648  1.1262
 1056TIP3   OH224658   3.865   5.343   3.377  0.3089  0.3423 -0.1132
 1056TIP3    H124659   3.942   5.286   3.376  0.0153 -0.1611  2.0845
 1056TIP3    H224660   3.877   5.397   3.455 -1.9052 -0.2707  0.6929
 1057TIP3   OH224661   0.013   0.426  15.117  0.0792  0.8773  0.4030
 1057TIP3    H124662   0.084   0.379  15.073 -1.0184  0.1494 -0.6381
 1057TIP3    H224663   0.038   0.427  15.209  1.7474  1.1988 -0.0363
 1058TIP3   OH224664   6.571   0.177   0.454 -0.0621  0.1418  0.0382
 1058TIP3    H124665   6.487   0.148   0.488  0.7602  0.0858  2.0757
 1058TIP3    H224666   6.630   0.102   0.464  0.9038  1.0175  1.1249
 1059TIP3   OH224667   5.719   6.208  11.842 -0.1041  0.9466  0.5580
 1059TIP3    H124668   5.776   6.285  11.838  0.8434  0.3960  2.7588
 1059TIP3    H224669   5.766   6.146  11.899 -0.9307 -1.1854 -0.9973
 1060TIP3   OH224670   1.635   3.123  12.277  0.3166  0.5734 -0.8679
 1060TIP3    H124671   1.683   3.058  12.226 -2.2634 -0.4047 -2.1243
 1060TIP3    H224672   1.543   3.108  12.256 -0.6842  1.5820  2.4463
 1061TIP3   OH224673   1.765   4.552  15.926 -0.3023 -0.0162 -0.0991
 1061TIP3    H124674   1.711   4.616  15.973  0.9076  0.3528  0.8167
 1061TIP3    H224675   1.848   4.596  15.911  1.2352 -1.9846  2.2340
 1062TIP3   OH224676   3.689   5.628   0.931 -0.0749  0.1889 -0.3053
 1062TIP3    H124677   3.619   5.662   0.874 -0.2615 -0.8410 -0.6888
 1062TIP3    H224678   3.753   5.700   0.934 -1.4220  1.3848  0.5354
 1063TIP3   OH224679   0.157   4.124   4.830 -0.2917 -0.3318  0.3973
 1063TIP3    H124680   0.154   4.030   4.812 -0.3169 -0.2694  0.0826
 1063TIP3    H224681   0.084   4.160   4.780 -0.6798 -0.2304  1.0291
 1064TIP3   OH224682   3.447   4.625   1.830 -0.8972  0.1478 -0.3526
 1064TIP3    H124683   3.496   4.706   1.842 -1.6832  0.5246  0.3248
 1064TIP3    H224684   3.442   4.613   1.735  0.9417 -0.1675 -0.4278
 1065TIP3   OH224685   1.282   4.860  17.170 -0.1708 -0.7747  0.2480
 1065TIP3    H124686   1.191   4.841  17.191 -0.6617  0.9778 -0.1815
 1065TIP3    H224687   1.278   4.913  17.091  1.0814  1.0131  1.3246
 1066TIP3   OH224688   4.377   0.599  14.013  0.1002 -0.0227 -0.0184
 1066TIP3    H124689   4.326   0.622  13.935 -0.6910  1.3532  0.8981
 1066TIP3    H224690   4.449   0.662  14.015 -1.9692  2.3612  2.3913
 1067TIP3   OH224691   2.181   5.480   3.557 -0.4120  0.0190  0.2105
 1067TIP3    H124692   2.270   5.509   3.537 -0.4209  0.8887  1.4262
 1067TIP3    H224693   2.159   5.420   3.485  1.3888 -0.7140  0.2620
 1068TIP3   OH224694   0.843   2.363  15.915  0.2039 -0.1661 -0.0484
 1068TIP3    H124695   0.780   2.415  15.965  0.9508  0.6803  0.0244
 1068TIP3    H224696   0.850   2.409  15.831  0.2644 -0.6063 -0.2879
 1069TIP3   OH224697   0.621   1.663   4.842  0.5163  0.6666 -0.3614
 1069TIP3    H124698   0.653   1.677   4.931  0.1857 -1.8579  0.1720
 1069TIP3    H224699   0.687   1.706   4.787  2.0630  0.0485  0.9630
 1070TIP3   OH224700   3.425   6.285   2.633  0.3119 -0.2111  0.1322
 1070TIP3    H124701   3.445   6.321   2.719  3.7971  1.9825 -1.5261
 1070TIP3    H224702   3.379   6.355   2.588 -2.5646 -1.7621  0.4972
 1071TIP3   OH224703   2.934   5.911  16.595  0.6747  0.5129  0.6578
 1071TIP3    H124704   2.976   5.971  16.533  0.5706 -1.1989 -1.0949
 1071TIP3    H224705   3.003   5.849  16.619  0.5004  0.7017  1.6530
 1072TIP3   OH224706   0.575   3.058   0.419 -0.1888  0.4716 -0.5904
 1072TIP3    H124707   0.510   3.123   0.391 -1.6322 -0.9535 -0.6395
 1072TIP3    H224708   0.573   2.992   0.350  0.2316 -0.3274  0.1577
 1073TIP3   OH224709   2.196   1.840   3.359  0.1590  0.0922  0.0089
 1073TIP3    H124710   2.201   1.817   3.266  1.1279  1.4352 -0.2876
 1073TIP3    H224711   2.232   1.764   3.405 -0.4147 -0.6148 -0.6913
 1074TIP3   OH224712   0.920   0.072   3.499 -0.4454 -0.2696  0.1833
 1074TIP3    H124713   0.926   0.035   3.411  3.4752  1.0701 -0.2016
 1074TIP3    H224714   0.889   0.162   3.485 -1.0502 -0.4615  0.2873
 1075TIP3   OH224715   0.033   6.441  14.258 -0.1326 -0.1050 -0.7354
 1075TIP3    H124716  -0.020   6.515  14.289 -0.0378 -0.1784 -0.3916
 1075TIP3    H224717   0.109   6.440  14.317  0.3010  0.0588 -1.2898
 1076TIP3   OH224718   3.223   1.055  12.005  0.5214 -0.1062  0.4247
 1076TIP3    H124719   3.315   1.070  12.026  1.0886 -0.9352 -1.3675
 1076TIP3    H224720   3.214   0.960  12.004 -0.1527 -0.0415 -0.1957
 1077TIP3   OH224721   5.212   4.870  15.497  0.4304 -0.2309 -0.5905
 1077TIP3    H124722   5.276   4.940  15.512  0.5577  0.0521 -2.3300
 1077TIP3    H224723   5.258   4.790  15.521  1.1547  0.0565 -0.9837
 1078TIP3   OH224724   1.442   4.207   2.699  0.5923 -0.3652  0.1176
 1078TIP3    H124725   1.371   4.208   2.763  1.4188 -0.2193  1.0443
 1078TIP3    H224726   1.517   4.170   2.746  1.5442  0.8491 -0.4050
 1079TIP3   OH224727   3.185   4.336  12.258  0.2217  0.2019  0.0652
 1079TIP3    H124728   3.136   4.309  12.336  0.4152 -1.0654 -0.2370
 1079TIP3    H224729   3.127   4.314  12.185  1.0587 -0.9334 -0.2713
 1080TIP3   OH224730   1.482   0.061   4.271 -0.3382  0.1644  0.0524
 1080TIP3    H124731   1.534   0.007   4.330  1.4173  1.0020 -0.6621
 1080TIP3    H224732   1.440  -0.001   4.212  0.4134 -0.5041  0.2100
 1081TIP3   OH224733   1.780   1.927  11.513 -0.2661  0.3097  0.0860
 1081TIP3    H124734   1.792   2.019  11.538 -2.8920  1.0133 -1.0802
 1081TIP3    H224735   1.780   1.928  11.418 -1.3482 -0.7349  0.0577
 1082TIP3   OH224736   3.413   6.455   0.319  0.3548  0.4894  0.5002
 1082TIP3    H124737   3.500   6.441   0.356  0.1309  2.3091  1.7761
 1082TIP3    H224738   3.408   6.393   0.247  1.7085 -1.4612  2.0290
 1083TIP3   OH224739   2.376   0.080   2.274  0.0445  0.5180 -0.5749
 1083TIP3    H124740   2.450   0.122   2.318  1.1508  0.1814 -2.0980
 1083TIP3    H224741   2.301   0.097   2.332  1.3297  0.7059  1.0601
 1084TIP3   OH224742   3.391   6.774  12.819  0.2116  0.8086 -0.8092
 1084TIP3    H124743   3.437   6.763  12.736  0.3358  1.5201 -0.8422
 1084TIP3    H224744   3.455   6.748  12.885 -0.1675 -0.5696 -0.9701
 1085TIP3   OH224745   2.046   4.581   1.087 -0.1493 -0.7462  0.1810
 1085TIP3    H124746   2.023   4.673   1.101 -0.2672 -0.6106 -0.8360
 1085TIP3    H224747   2.083   4.552   1.170 -1.5544 -0.2205  1.0011
 1086TIP3   OH224748   0.030   4.789  15.245 -0.0142 -0.8502  0.4375
 1086TIP3    H124749   0.031   4.696  15.222 -0.5601 -0.7736  0.0754
 1086TIP3    H224750   0.122   4.815  15.245  0.2054 -1.6256  1.5397
 1087TIP3   OH224751   2.885   0.135   3.757  0.3613  0.2424  0.0623
 1087TIP3    H124752   2.961   0.092   3.795  0.1693  1.6747  2.2016
 1087TIP3    H224753   2.869   0.210   3.815 -1.3011  1.2500 -1.6458
 1088TIP3   OH224754   5.040   2.166   3.389 -0.2930  0.3134 -0.1585
 1088TIP3    H124755   4.970   2.224   3.419 -1.7507 -1.1453 -0.6469
 1088TIP3    H224756   5.034   2.089   3.446  1.1676  0.3292  0.0394
 1089TIP3   OH224757   0.494   4.570   2.785 -0.4977 -0.1086 -0.2496
 1089TIP3    H124758   0.486   4.477   2.762 -0.6058 -0.3174  0.6020
 1089TIP3    H224759   0.423   4.585   2.847 -0.6580  0.6231 -0.6116
 1090TIP3   OH224760   0.343   3.341   4.315 -0.1650  0.6219  0.3770
 1090TIP3    H124761   0.376   3.375   4.398 -0.7676 -1.1209  1.3566
 1090TIP3    H224762   0.422   3.322   4.264  0.3587 -1.2752  1.7950
 1091TIP3   OH224763   1.331   3.116   1.124  0.1459  0.0995 -0.5363
 1091TIP3    H124764   1.274   3.064   1.180  1.0474 -0.0598  0.2353
 1091TIP3    H224765   1.405   3.139   1.179  0.6032  0.7222 -1.3931
 1092TIP3   OH224766   1.506   2.447   5.561  1.0453 -0.2476  0.3491
 1092TIP3    H124767   1.451   2.513   5.519  0.1716 -0.4308  1.2067
 1092TIP3    H224768   1.574   2.428   5.496  0.3938  0.3410 -0.5119
 1093TIP3   OH224769   5.773   4.596   3.744 -0.0926 -0.0105 -0.0745
 1093TIP3    H124770   5.772   4.553   3.829  0.3497 -0.5152 -0.3225
 1093TIP3    H224771   5.865   4.598   3.718 -0.0151  1.7428  0.2570
 1094TIP3   OH224772   3.103   6.700  16.004 -0.0393  0.2489 -0.0206
 1094TIP3    H124773   3.070   6.631  15.946 -1.3588  1.1500 -0.3825
 1094TIP3    H224774   3.110   6.777  15.947  1.1700  0.4882  0.4361
 1095TIP3   OH224775   6.711   3.150  13.257 -0.2459 -0.2162  0.2147
 1095TIP3    H124776   6.774   3.082  13.233 -0.0065  0.1285 -0.1431
 1095TIP3    H224777   6.754   3.232  13.232 -0.0009  0.1537  1.7973
 1096TIP3   OH224778   4.435   6.801   4.309  0.2655  0.1054 -0.0385
 1096TIP3    H124779   4.492   6.806   4.233 -0.6193 -0.1650 -0.7243
 1096TIP3    H224780   4.411   6.891   4.328 -0.3593  0.0856 -0.7254
 1097TIP3   OH224781   5.510   3.614   2.266  0.2374 -0.4918 -0.5018
 1097TIP3    H124782   5.580   3.552   2.288 -1.6010 -2.5670 -0.3641
 1097TIP3    H224783   5.501   3.608   2.171  0.4997  0.0500 -0.5611
 1098TIP3   OH224784   0.836   5.909  12.670  0.1268  0.5599  0.4568
 1098TIP3    H124785   0.919   5.893  12.626 -0.0248  1.3601 -0.1233
 1098TIP3    H224786   0.858   5.963  12.746  0.0400  1.3685 -0.0947
 1099TIP3   OH224787   4.564   0.824  16.014 -0.1948 -0.2532  0.3899
 1099TIP3    H124788   4.555   0.916  16.036  0.2448 -0.2764  0.6733
 1099TIP3    H224789   4.549   0.820  15.919  2.9820  0.5754 -0.2001
 1100TIP3   OH224790   4.705   6.480  16.583 -0.0384 -0.1519 -0.4296
 1100TIP3    H124791   4.672   6.554  16.532  1.1346  0.2113 -0.6764
 1100TIP3    H224792   4.762   6.520  16.649  0.0124 -0.7774 -0.0919
 1101TIP3   OH224793   4.918   2.172  16.233  0.3249  0.6359  0.2329
 1101TIP3    H124794   4.940   2.257  16.273 -1.7203  1.9898 -1.4499
 1101TIP3    H224795   5.002   2.139  16.201  1.3558  1.4089  2.0253
 1102TIP3   OH224796   1.199   4.624   5.312  0.0358  0.5501  0.0111
 1102TIP3    H124797   1.125   4.637   5.254  0.2409  0.5848 -0.2418
 1102TIP3    H224798   1.175   4.671   5.392 -0.0091  0.9614 -0.2427
 1103TIP3   OH224799   6.739   5.892   6.003  0.1464  0.5219  0.1032
 1103TIP3    H124800   6.692   5.948   5.941 -0.6046 -0.9146 -0.6669
 1103TIP3    H224801   6.675   5.873   6.072 -0.6905 -1.9680 -1.2782
 1104TIP3   OH224802   0.558   1.876  17.064  0.0408 -0.5647  0.1597
 1104TIP3    H124803   0.536   1.784  17.053  0.9833 -0.7938  0.1324
 1104TIP3    H224804   0.506   1.921  16.998 -3.3200 -0.6322  2.6461
 1105TIP3   OH224805   6.280   4.491  11.759  0.0292 -0.0454  0.4564
 1105TIP3    H124806   6.350   4.498  11.824  0.5518  2.2872 -0.2974
 1105TIP3    H224807   6.210   4.548  11.792 -1.0167 -1.3924  0.5899
 1106TIP3   OH224808   5.829   6.259  13.880  0.4818  0.3857  0.3487
 1106TIP3    H124809   5.806   6.211  13.801 -1.6667  0.1700  1.0585
 1106TIP3    H224810   5.890   6.201  13.927  1.7334  0.5096 -1.0988
 1107TIP3   OH224811   2.361   0.844   2.100  0.5037 -0.2290  0.1763
 1107TIP3    H124812   2.433   0.886   2.053  1.3478  0.8131  2.3266
 1107TIP3    H224813   2.342   0.903   2.173 -0.1505 -2.2117  1.6612
 1108TIP3   OH224814   2.883   3.643   3.914 -0.5085 -0.3975 -0.1067
 1108TIP3    H124815   2.900   3.714   3.852 -2.6811 -0.4516 -0.8083
 1108TIP3    H224816   2.964   3.593   3.916  0.1474  0.5682 -1.6307
 1109TIP3   OH224817   3.869   4.068   0.116 -0.4348 -0.0428 -0.1661
 1109TIP3    H124818   3.786   4.032   0.085  0.1860 -0.6182 -1.1834
 1109TIP3    H224819   3.927   3.992   0.126  0.3795  0.4835 -0.7672
 1110TIP3   OH224820   5.491   0.433   2.372  0.2448 -0.5392  0.5999
 1110TIP3    H124821   5.445   0.507   2.410  0.2375  0.4619 -1.2897
 1110TIP3    H224822   5.574   0.429   2.420  0.5018  1.0779  0.3267
 1111TIP3   OH224823   0.796   4.337   2.542  0.5509  0.0898  0.0129
 1111TIP3    H124824   0.731   4.393   2.498  0.4968 -1.1824 -1.5675
 1111TIP3    H224825   0.872   4.394   2.552 -0.6719  1.5145  1.6151
 1112TIP3   OH224826   2.866   4.480   4.652 -0.1473  0.1132 -0.4751
 1112TIP3    H124827   2.784   4.457   4.696  0.6695 -0.5691  0.7257
 1112TIP3    H224828   2.899   4.397   4.619  0.8200  0.1486  0.3814
 1113TIP3   OH224829   6.635   3.093  11.120 -0.3562 -0.1499 -0.2415
 1113TIP3    H124830   6.703   3.097  11.053 -1.0567  1.0467 -0.8889
 1113TIP3    H224831   6.553   3.104  11.073 -0.8628  0.5812  0.7945
 1114TIP3   OH224832   0.264   4.164   6.590  0.1350  0.6592 -0.5274
 1114TIP3    H124833   0.317   4.086   6.608 -2.2408 -1.1387 -1.1857
 1114TIP3    H224834   0.303   4.202   6.511 -1.5833 -2.5927 -3.0317
 1115TIP3   OH224835   2.430   3.213  13.132 -0.3320  0.1388  0.2378
 1115TIP3    H124836   2.478   3.130  13.137  0.2907  0.5620  2.0443
 1115TIP3    H224837   2.369   3.209  13.206 -0.0475  1.4135  0.5488
 1116TIP3   OH224838   6.669   1.835   1.677 -0.0907 -0.1399 -0.2921
 1116TIP3    H124839   6.671   1.817   1.583  2.8751  0.6179 -0.4328
 1116TIP3    H224840   6.674   1.931   1.683 -0.1399 -0.1889  0.6341
 1117TIP3   OH224841   5.575   4.813   2.927 -0.1334 -0.0530  1.0111
 1117TIP3    H124842   5.608   4.898   2.955  1.1009  0.1153 -0.7979
 1117TIP3    H224843   5.583   4.757   3.003  2.9262  0.4167  1.0836
 1118TIP3   OH224844   0.377   1.667   4.725 -0.4137  0.4770  0.7087
 1118TIP3    H124845   0.353   1.758   4.706 -0.4967  0.3490  0.1903
 1118TIP3    H224846   0.465   1.673   4.761 -0.4408  0.7678  0.7287
 1119TIP3   OH224847   3.909   2.253  10.957 -0.5858  0.2036 -0.1879
 1119TIP3    H124848   3.870   2.340  10.961 -2.2690 -0.5627  0.5411
 1119TIP3    H224849   3.895   2.216  11.044  0.2318 -0.7514 -0.4554
 1120TIP3   OH224850   3.269   5.085   6.381  0.7318  0.7168  0.1149
 1120TIP3    H124851   3.206   5.030   6.334  3.1633 -1.0347 -1.2244
 1120TIP3    H224852   3.244   5.174   6.359 -2.0957  0.1139  0.7107
 1121TIP3   OH224853   5.001   3.734  15.033  0.2599 -0.0326  0.2623
 1121TIP3    H124854   5.083   3.685  15.032  0.5046  0.3915 -1.3038
 1121TIP3    H224855   5.023   3.817  15.075  0.5306 -0.0892  0.2326
 1122TIP3   OH224856   3.096   2.680   2.343 -0.3145 -0.3011 -0.0031
 1122TIP3    H124857   3.138   2.743   2.285 -1.0938  1.4138  1.2595
 1122TIP3    H224858   3.025   2.642   2.291 -0.6605  0.8065 -0.3389
 1123TIP3   OH224859   5.164   4.817  11.397  0.6937 -0.3311  0.3059
 1123TIP3    H124860   5.114   4.738  11.417  1.7141 -0.7112  1.3828
 1123TIP3    H224861   5.237   4.786  11.342 -0.3529  0.2505 -1.4389
 1124TIP3   OH224862   1.416   3.251   1.915 -0.2938  0.4484 -0.4057
 1124TIP3    H124863   1.452   3.314   1.853 -1.3139  2.0481  0.5857
 1124TIP3    H224864   1.461   3.169   1.895  1.3145  1.5674 -1.4949
 1125TIP3   OH224865   4.562   4.858  11.856 -0.1028  0.6132 -0.0679
 1125TIP3    H124866   4.651   4.828  11.875 -0.8084  0.2606  2.8584
 1125TIP3    H224867   4.513   4.779  11.835 -0.0570  0.6699 -0.4018
 1126TIP3   OH224868   5.955   0.159   3.471 -0.1167 -0.8701  0.2656
 1126TIP3    H124869   5.866   0.185   3.448 -0.0853 -1.9508 -1.2103
 1126TIP3    H224870   6.005   0.241   3.473 -1.2965 -0.1723  1.9023
 1127TIP3   OH224871   3.890   4.874   0.234 -1.1668  0.3873  0.2654
 1127TIP3    H124872   3.887   4.784   0.202 -1.3858  0.5233 -0.1000
 1127TIP3    H224873   3.945   4.870   0.312 -1.7745 -0.1994  0.6732
 1128TIP3   OH224874   6.206   0.942  12.895  0.8339  0.5055 -0.2717
 1128TIP3    H124875   6.224   0.980  12.981  4.4142  3.1179 -2.0305
 1128TIP3    H224876   6.203   0.848  12.911  1.3390  0.9471  2.7264
 1129TIP3   OH224877   0.363   1.932  11.161 -0.0074  0.7961  0.3401
 1129TIP3    H124878   0.349   2.011  11.109  1.1277  0.2338 -0.8217
 1129TIP3    H224879   0.367   1.861  11.097  2.1912  0.1945  1.1176
 1130TIP3   OH224880   4.291   4.087  11.929 -0.7970  0.9394 -0.2805
 1130TIP3    H124881   4.308   4.047  12.014 -1.2668  2.1155  0.3817
 1130TIP3    H224882   4.300   4.015  11.867 -1.7460 -0.2325  0.8932
 1131TIP3   OH224883   5.532   4.039   4.177 -0.4202 -0.6831  0.3987
 1131TIP3    H124884   5.443   4.048   4.211 -0.6072 -0.0632 -0.2428
 1131TIP3    H224885   5.562   4.129   4.164  0.5481 -0.8696  1.2261
 1132TIP3   OH224886   2.087   6.375   1.444 -0.3707  0.1365 -0.0834
 1132TIP3    H124887   1.993   6.367   1.426 -0.4016 -2.0260  0.8817
 1132TIP3    H224888   2.114   6.452   1.395 -2.6270  0.7030 -0.4945
 1133TIP3   OH224889   0.816   3.114  14.583 -0.0844 -0.1634 -0.0358
 1133TIP3    H124890   0.781   3.065  14.657 -0.0175  0.8899  0.6924
 1133TIP3    H224891   0.777   3.201  14.590  0.2341  0.0652 -1.0031
 1134TIP3   OH224892   2.972   2.335   4.780 -0.0258  0.3336 -0.3086
 1134TIP3    H124893   2.992   2.308   4.869  2.5718 -1.3212 -1.3446
 1134TIP3    H224894   2.902   2.276   4.752  0.7045 -0.6330 -0.1151
 1135TIP3   OH224895   5.305   1.886   2.283  0.0598  0.4138  0.3064
 1135TIP3    H124896   5.257   1.829   2.223  1.6298  0.9556 -1.5069
 1135TIP3    H224897   5.362   1.826   2.332  0.9033  0.2756 -0.8173
 1136TIP3   OH224898   4.872   6.288  13.932 -0.1946 -0.1588 -0.1117
 1136TIP3    H124899   4.888   6.247  14.017  0.0826  0.9243  0.3692
 1136TIP3    H224900   4.920   6.234  13.869 -2.1320 -2.2212  0.1029
 1137TIP3   OH224901   5.918   5.836   4.283 -0.0009  0.3018  0.0121
 1137TIP3    H124902   5.976   5.769   4.248 -0.5173 -0.4885  0.6652
 1137TIP3    H224903   5.974   5.913   4.294  1.0423 -0.5911  1.0803
 1138TIP3   OH224904   5.324   0.184   2.036  0.7286  0.2012  0.2501
 1138TIP3    H124905   5.347   0.276   2.032 -1.3150  0.6822 -1.3808
 1138TIP3    H224906   5.354   0.148   1.953  1.0979 -0.5102  0.6828
 1139TIP3   OH224907   0.946   2.129  16.054 -0.6689 -0.2083  0.7010
 1139TIP3    H124908   0.908   2.200  16.003  0.8821  1.2413  1.5167
 1139TIP3    H224909   0.871   2.082  16.090 -1.7135  1.0246  0.1560
 1140TIP3   OH224910   5.658   3.626  15.348  0.0688  0.1332  0.2635
 1140TIP3    H124911   5.625   3.539  15.371 -1.7529  0.7771  0.1076
 1140TIP3    H224912   5.716   3.610  15.274 -0.4714 -0.9105  0.0553
 1141TIP3   OH224913   3.175   0.661  13.303 -0.7686  0.8546  0.4395
 1141TIP3    H124914   3.181   0.637  13.210 -0.2159 -0.2857  0.7628
 1141TIP3    H224915   3.144   0.751  13.302  0.1754  1.1910 -0.8890
 1142TIP3   OH224916   4.136   0.169   1.049 -0.2858  0.6814 -0.3124
 1142TIP3    H124917   4.142   0.103   1.118 -1.0301  2.4116  1.4301
 1142TIP3    H224918   4.225   0.176   1.015 -0.5235 -2.5781 -1.8647
 1143TIP3   OH224919   6.356   6.807   3.062 -0.4047  0.3385  0.1615
 1143TIP3    H124920   6.327   6.753   3.134 -1.1930  0.2484 -0.2175
 1143TIP3    H224921   6.372   6.893   3.101  1.5464 -0.3344  0.8981
 1144TIP3   OH224922   6.318   1.968   3.755  0.5066  0.1577 -0.3522
 1144TIP3    H124923   6.328   2.054   3.715  0.2191  0.2059 -0.3232
 1144TIP3    H224924   6.224   1.959   3.768  0.6291  0.2806  0.6359
 1145TIP3   OH224925   4.205   4.542   1.645 -0.0993  0.0524  0.0084
 1145TIP3    H124926   4.124   4.553   1.695  0.2817  0.4886  0.5331
 1145TIP3    H224927   4.273   4.530   1.712  0.5955  1.8101 -0.3540
 1146TIP3   OH224928   1.172   1.140   5.395 -0.0403 -0.9939  0.0977
 1146TIP3    H124929   1.118   1.105   5.467 -0.9391 -0.7447 -0.4515
 1146TIP3    H224930   1.109   1.179   5.335  0.8319  0.1014 -0.1195
 1147TIP3   OH224931   5.889   4.859  16.125 -0.2367  0.5372 -0.0009
 1147TIP3    H124932   5.828   4.933  16.131 -0.4807  0.4428 -1.1329
 1147TIP3    H224933   5.835   4.783  16.143 -0.4654  0.4556 -0.9822
 1148TIP3   OH224934   3.767   6.343  15.734 -0.1779 -0.2296  0.7965
 1148TIP3    H124935   3.849   6.313  15.774  0.9713  2.7476  0.8156
 1148TIP3    H224936   3.741   6.272  15.676  2.8578 -0.9403  0.2087
 1149TIP3   OH224937   4.237   3.198  15.214 -0.4835 -0.2649 -0.0418
 1149TIP3    H124938   4.164   3.138  15.228  0.2021 -0.8887  0.9147
 1149TIP3    H224939   4.290   3.191  15.294  0.1331  0.8578 -0.3485
 1150TIP3   OH224940   4.615   3.961   3.692 -0.2154  0.1351  0.2630
 1150TIP3    H124941   4.592   4.047   3.655  1.1480 -0.0912 -1.1523
 1150TIP3    H224942   4.540   3.939   3.748 -1.1344  1.6952 -0.3019
 1151TIP3   OH224943   0.590   3.638   0.362 -0.1591  0.4775  0.2887
 1151TIP3    H124944   0.576   3.725   0.399 -1.2181 -0.3506  1.9314
 1151TIP3    H224945   0.559   3.645   0.272  1.0095  2.1435  0.0139
 1152TIP3   OH224946   0.354   0.823  11.493  0.3173 -0.1590  0.2108
 1152TIP3    H124947   0.303   0.899  11.463  2.1440  0.8968 -0.3080
 1152TIP3    H224948   0.399   0.792  11.414  1.5801 -0.1923  0.9346
 1153TIP3   OH224949   2.831   1.635   3.925  0.1220 -0.3280 -0.6827
 1153TIP3    H124950   2.756   1.577   3.943  0.7290 -0.6683  0.8620
 1153TIP3    H224951   2.840   1.687   4.005 -0.3425  1.8498 -2.0196
 1154TIP3   OH224952   5.815   3.590  13.651 -0.4814  0.1471 -0.1207
 1154TIP3    H124953   5.858   3.520  13.701 -0.8210 -0.5818 -0.8266
 1154TIP3    H224954   5.881   3.659  13.646 -0.1992 -0.0471  0.7352
 1155TIP3   OH224955   4.177   4.652   3.675  0.2734  0.0634  0.1024
 1155TIP3    H124956   4.179   4.670   3.769  0.0131  1.2526 -0.1126
 1155TIP3    H224957   4.260   4.685   3.642 -0.1703  0.8116 -0.2813
 1156TIP3   OH224958   2.450   4.984  13.392 -0.0287 -0.1403 -0.4611
 1156TIP3    H124959   2.371   4.935  13.371 -1.9102  0.8702  3.6371
 1156TIP3    H224960   2.470   4.959  13.483  4.3955 -0.3365 -1.3679
 1157TIP3   OH224961   1.441   0.355   3.695  0.4518 -0.0802  0.0110
 1157TIP3    H124962   1.395   0.437   3.708 -0.5815 -0.4482 -1.1855
 1157TIP3    H224963   1.408   0.297   3.763 -0.0321 -0.0115 -0.1685
 1158TIP3   OH224964   2.112   2.918  12.156  0.1237 -0.3954 -0.3780
 1158TIP3    H124965   2.112   2.980  12.229 -1.8695  0.2683 -0.9062
 1158TIP3    H224966   2.159   2.963  12.086  0.1849 -0.1715 -0.1905
 1159TIP3   OH224967   5.910   0.387  13.520 -0.1213 -0.3725 -0.1233
 1159TIP3    H124968   5.902   0.481  13.540  3.3058 -0.1351  0.2781
 1159TIP3    H224969   5.835   0.348  13.565 -0.9115  2.0110  0.7432
 1160TIP3   OH224970   2.811   6.497   3.831 -0.2421 -0.7021 -0.0288
 1160TIP3    H124971   2.769   6.579   3.806 -0.7296 -0.8934  0.1626
 1160TIP3    H224972   2.741   6.432   3.830 -0.0989 -0.8815  0.9884
 1161TIP3   OH224973   1.044   0.295   5.183 -0.0753  0.6923 -0.2138
 1161TIP3    H124974   1.101   0.241   5.238  0.7177  2.3688  0.6408
 1161TIP3    H224975   1.079   0.284   5.095  0.4139  0.2443  0.0275
 1162TIP3   OH224976   5.758   6.233   3.834 -0.2552  0.0246 -0.2742
 1162TIP3    H124977   5.761   6.218   3.739  1.1059 -1.3203 -0.0374
 1162TIP3    H224978   5.820   6.170   3.870 -0.3588  0.9010  1.4784
 1163TIP3   OH224979   4.748   1.130  11.291 -0.6521 -0.4660 -0.0829
 1163TIP3    H124980   4.717   1.101  11.377  1.1217 -1.3051  0.3080
 1163TIP3    H224981   4.695   1.080  11.228 -1.9863  0.1845  0.5098
 1164TIP3   OH224982   6.215   0.997   4.194 -0.1181 -0.1565  0.1624
 1164TIP3    H124983   6.223   1.058   4.267 -4.0135 -0.3192  0.8140
 1164TIP3    H224984   6.197   0.912   4.234  1.8509 -1.0949 -0.8672
 1165TIP3   OH224985   4.660   0.746   2.350  0.0807  0.2984  0.4321
 1165TIP3    H124986   4.566   0.728   2.350 -0.2139  1.5900  2.4468
 1165TIP3    H224987   4.684   0.746   2.258 -2.2407  1.5450 -0.2392
 1166TIP3   OH224988   1.688   0.125   5.162  0.1553  0.1895 -0.2180
 1166TIP3    H124989   1.679   0.218   5.179  0.4385  0.0293  0.8904
 1166TIP3    H224990   1.708   0.087   5.248 -1.1458 -1.0390 -0.4334
 1167TIP3   OH224991   5.396   3.407  16.805  0.4751 -0.3650 -0.3787
 1167TIP3    H124992   5.368   3.413  16.714 -1.4968 -1.4227  0.1307
 1167TIP3    H224993   5.373   3.318  16.832  0.1667  0.2214  1.4144
 1168TIP3   OH224994   6.257   2.766  16.838  0.0258 -0.5071 -0.6992
 1168TIP3    H124995   6.297   2.681  16.817  0.8200 -0.1775 -0.5079
 1168TIP3    H224996   6.300   2.828  16.780  0.2171 -0.0510 -0.0736
 1169TIP3   OH224997   5.022   6.609   4.142  0.1220  0.5125 -0.4172
 1169TIP3    H124998   5.063   6.525   4.123  1.3427  0.9064  0.4667
 1169TIP3    H224999   5.005   6.608   4.236 -0.3653  1.0347 -0.4924
 1170TIP3   OH225000   5.989   2.299   5.290  0.2131  0.0501 -0.4792
 1170TIP3    H125001   5.956   2.380   5.329  0.6624  0.3136 -0.6483
 1170TIP3    H225002   5.946   2.229   5.341 -0.0146  0.3911 -0.1993
 1171TIP3   OH225003   4.142   3.208   0.949 -0.1839  0.3103  0.3123
 1171TIP3    H125004   4.144   3.303   0.961  0.0227  0.5152 -1.2653
 1171TIP3    H225005   4.163   3.195   0.857 -1.6311 -1.1883  0.1623
 1172TIP3   OH225006   3.291   2.590   2.935 -0.4429  0.0909  0.5802
 1172TIP3    H125007   3.273   2.662   2.875 -0.1117  0.4373  0.8908
 1172TIP3    H225008   3.385   2.596   2.951 -0.7140  0.7236  2.0421
 1173TIP3   OH225009   1.304   2.405   4.537  0.5333 -0.5411 -0.2051
 1173TIP3    H125010   1.382   2.429   4.486  2.1350 -1.2432  1.8237
 1173TIP3    H225011   1.300   2.472   4.606 -1.1880 -0.0054 -0.8130
 1174TIP3   OH225012   1.651   5.314   5.149  0.1726  0.3470  0.0674
 1174TIP3    H125013   1.670   5.365   5.071  1.0012 -0.5351 -0.3260
 1174TIP3    H225014   1.622   5.378   5.214 -0.8815  1.0257 -1.0762
 1175TIP3   OH225015   5.554   1.606   5.858  0.0175 -0.3734 -0.3544
 1175TIP3    H125016   5.523   1.630   5.946  0.7704  1.0804 -0.4579
 1175TIP3    H225017   5.648   1.590   5.870  0.0828 -0.3554 -0.8548
 1176TIP3   OH225018   3.080   0.678   3.173  0.4526 -0.0289 -0.0109
 1176TIP3    H125019   3.065   0.748   3.109  0.6893  0.2102  0.1975
 1176TIP3    H225020   3.162   0.701   3.215  0.1370 -0.0153  0.6057
 1177TIP3   OH225021   1.329   5.400   0.071 -0.6689 -0.0160 -0.4276
 1177TIP3    H125022   1.247   5.351   0.061 -0.9103  0.4268 -0.6420
 1177TIP3    H225023   1.303   5.482   0.112 -0.3573  0.1896 -0.6396
 1178TIP3   OH225024   2.295   1.460  12.191  0.5478 -0.3191  0.0723
 1178TIP3    H125025   2.234   1.418  12.130 -0.1562  2.4107 -1.1905
 1178TIP3    H225026   2.242   1.477  12.269 -0.1278  1.3334 -0.7237
 1179TIP3   OH225027   4.811   2.605   4.713 -0.5229 -0.2120 -0.3194
 1179TIP3    H125028   4.770   2.549   4.779 -0.2327 -0.2446 -0.1662
 1179TIP3    H225029   4.738   2.636   4.659 -0.6559 -0.9782 -0.5899
 1180TIP3   OH225030   0.430   2.793   1.771  0.0774 -0.1844 -0.1197
 1180TIP3    H125031   0.470   2.873   1.806  2.0462 -0.0266 -2.6181
 1180TIP3    H225032   0.486   2.768   1.698 -1.1577 -3.2455 -0.0973
 1181TIP3   OH225033   6.049   4.109   2.131  0.4361 -0.7180 -0.1256
 1181TIP3    H125034   6.053   4.114   2.227  0.5582  0.4225 -0.1885
 1181TIP3    H225035   6.021   4.019   2.113  1.0609 -1.1303  0.9601
 1182TIP3   OH225036   1.906   2.326   6.202  0.5489 -0.8778 -0.0118
 1182TIP3    H125037   1.859   2.392   6.151  1.6432 -0.5139 -0.5834
 1182TIP3    H225038   1.964   2.377   6.259 -0.1434 -1.2996  1.0980
 1183TIP3   OH225039   4.891   4.923   5.888  0.0994  0.0147 -0.1519
 1183TIP3    H125040   4.879   4.933   5.794 -0.8678 -0.3157 -0.0659
 1183TIP3    H225041   4.825   4.859   5.915 -0.1064  0.6366  0.8687
 1184TIP3   OH225042   5.087   2.420  16.060 -0.6962 -0.1015  0.0068
 1184TIP3    H125043   5.049   2.422  16.148 -0.5343  0.6218  0.0601
 1184TIP3    H225044   5.017   2.383  16.005 -1.5592  1.4149  0.0668
 1185TIP3   OH225045   3.201   3.070  12.494 -0.5673 -0.0213  0.0644
 1185TIP3    H125046   3.278   3.069  12.550 -1.0840  0.8223  0.8153
 1185TIP3    H225047   3.152   2.991  12.518 -1.2440  0.7949  1.4891
 1186TIP3   OH225048   2.369   6.643  15.294 -0.4771 -0.2495 -0.0602
 1186TIP3    H125049   2.432   6.702  15.252 -1.8897  0.2114 -1.5754
 1186TIP3    H225050   2.340   6.585  15.223  0.0036 -1.9835  1.1556
 1187TIP3   OH225051   0.063   0.531  15.611  0.3130  0.1550  0.2133
 1187TIP3    H125052   0.152   0.524  15.578  0.9107 -1.1045  1.9909
 1187TIP3    H225053   0.013   0.569  15.539  1.7417 -1.5966 -1.7404
 1188TIP3   OH225054   1.447   2.276   0.324  0.9024  0.4138 -0.2940
 1188TIP3    H125055   1.400   2.359   0.330 -0.3845 -0.1677 -1.9470
 1188TIP3    H225056   1.377   2.210   0.326  1.8996 -0.6256  0.8768
 1189TIP3   OH225057   2.142   5.697  17.103 -0.3480  0.4803  0.0711
 1189TIP3    H125058   2.072   5.652  17.056  0.7529 -1.1015 -0.0952
 1189TIP3    H225059   2.222   5.663  17.065  0.5309  0.8960  1.5177
 1190TIP3   OH225060   2.738   4.758  14.978 -0.4761  0.2698  0.7969
 1190TIP3    H125061   2.707   4.695  15.043  1.2645 -0.5046  0.9007
 1190TIP3    H225062   2.677   4.831  14.985 -1.2220 -0.4663  2.2305
 1191TIP3   OH225063   5.776   4.413  14.139  0.2123 -0.4816  0.4547
 1191TIP3    H125064   5.775   4.404  14.234 -0.2977 -1.3097  0.3713
 1191TIP3    H225065   5.867   4.433  14.118  0.5648 -1.4550  1.0146
 1192TIP3   OH225066   2.813   3.568  17.245 -0.1928  0.2473 -0.1323
 1192TIP3    H125067   2.781   3.653  17.274 -0.2592  0.4038 -0.6596
 1192TIP3    H225068   2.898   3.587  17.205 -0.6265  0.1998 -1.0903
 1193TIP3   OH225069   5.106   3.066  15.596 -0.4252 -0.0199  0.0743
 1193TIP3    H125070   5.056   3.142  15.565  0.2281  0.1666 -0.5276
 1193TIP3    H225071   5.115   3.010  15.519 -1.1474 -0.8480  0.5817
 1194TIP3   OH225072   0.258   4.332   0.043 -1.0610  0.0571  0.6117
 1194TIP3    H125073   0.255   4.345  -0.052 -0.8658 -3.6277  0.0183
 1194TIP3    H225074   0.283   4.240   0.053 -0.4343  0.5816  4.2591
 1195TIP3   OH225075   4.255   5.309   2.005  0.1129  0.1383 -0.0532
 1195TIP3    H125076   4.313   5.235   2.021 -1.5934 -1.2280 -0.0816
 1195TIP3    H225077   4.286   5.377   2.065  0.8886 -1.0249  0.8758
 1196TIP3   OH225078   5.074   3.344  12.688  0.0866 -0.4468 -0.2696
 1196TIP3    H125079   5.148   3.325  12.631  0.2888  0.6603 -0.3711
 1196TIP3    H225080   5.067   3.439  12.689  0.2083 -0.4379  1.7077
 1197TIP3   OH225081   2.948   4.550   1.347 -0.1204  0.2321 -0.4904
 1197TIP3    H125082   2.886   4.618   1.373  0.4543  2.2982 -4.1045
 1197TIP3    H225083   2.894   4.483   1.305 -0.3870 -0.2146  0.5564
 1198TIP3   OH225084   6.087   0.210   0.639  0.5782 -0.3178 -0.2814
 1198TIP3    H125085   6.094   0.171   0.726  1.1042 -1.1625 -0.6926
 1198TIP3    H225086   6.078   0.304   0.655 -0.1024 -0.5471  0.7066
 1199TIP3   OH225087   0.242   6.612   5.477 -0.0934  0.3020 -0.3851
 1199TIP3    H125088   0.236   6.613   5.382 -0.5479 -0.5670 -0.3771
 1199TIP3    H225089   0.218   6.523   5.502 -0.6738  0.7066  0.5819
 1200TIP3   OH225090   0.568   3.486   1.842  0.4191 -0.6550 -0.3955
 1200TIP3    H125091   0.627   3.560   1.850  0.0886 -0.6757  2.9179
 1200TIP3    H225092   0.481   3.522   1.858  0.2446 -1.7123  1.1480
 1201TIP3   OH225093   6.731   0.438  11.530  0.0532  0.0995  0.2136
 1201TIP3    H125094   6.752   0.485  11.610  0.9181 -0.7678  0.5008
 1201TIP3    H225095   6.641   0.408  11.543  0.0859  0.2256  0.7251
 1202TIP3   OH225096   4.256   4.320  17.056  0.5846 -0.1395  0.1618
 1202TIP3    H125097   4.216   4.248  17.007 -1.0170  0.5256  0.4686
 1202TIP3    H225098   4.243   4.297  17.148 -0.0051  0.5682  0.2630
 1203TIP3   OH225099   2.403   6.478  13.071  0.4764 -0.7318 -0.1137
 1203TIP3    H125100   2.329   6.421  13.049  1.1772 -1.6560 -0.0984
 1203TIP3    H225101   2.441   6.501  12.986  0.8567 -1.1833 -0.0673
 1204TIP3   OH225102   5.992   0.095   1.317 -0.8054 -0.0290 -0.1705
 1204TIP3    H125103   5.904   0.061   1.332 -1.3266  0.8048 -1.2559
 1204TIP3    H225104   5.978   0.185   1.286  0.3642 -0.4142 -1.8369
 1205TIP3   OH225105   1.117   2.480  15.970  0.0806 -0.1867  0.4831
 1205TIP3    H125106   1.134   2.447  16.058 -1.2136 -0.8561  0.4942
 1205TIP3    H225107   1.039   2.432  15.941  0.0058  0.6305 -0.7051
 1206TIP3   OH225108   2.285   4.683  11.390  0.9081 -0.6175  0.0825
 1206TIP3    H125109   2.312   4.679  11.298 -4.5296  0.4997 -1.7766
 1206TIP3    H225110   2.250   4.595  11.408 -0.5646 -0.0271  0.1629
 1207TIP3   OH225111   2.162   4.437  14.542  0.0610 -0.3002  0.0803
 1207TIP3    H125112   2.188   4.356  14.587 -1.7475 -1.3983 -0.7746
 1207TIP3    H225113   2.228   4.448  14.473 -0.3319 -1.7087 -0.5384
 1208TIP3   OH225114   2.796   4.943   3.974  0.6287  0.2581 -0.2207
 1208TIP3    H125115   2.877   4.949   3.923  1.1208  0.5331  0.5853
 1208TIP3    H225116   2.807   4.866   4.029  0.6855  0.7414  0.4611
 1209TIP3   OH225117   2.559   1.238  15.294 -0.2564  0.6966  0.1060
 1209TIP3    H125118   2.556   1.281  15.208  1.0738 -0.0377 -0.3186
 1209TIP3    H225119   2.531   1.306  15.355 -0.9679  1.3067 -0.8842
 1210TIP3   OH225120   2.444   3.549   3.067 -0.0252  0.1021 -0.9154
 1210TIP3    H125121   2.420   3.495   2.991  1.2320  0.9155 -1.9077
 1210TIP3    H225122   2.384   3.624   3.063  0.2537  0.3071 -1.3003
 1211TIP3   OH225123   2.799   1.983  16.271 -0.0693  0.7348  0.5158
 1211TIP3    H125124   2.713   1.942  16.280 -1.0188  2.3270 -0.9561
 1211TIP3    H225125   2.840   1.937  16.198 -1.0425  2.2159 -0.9852
 1212TIP3   OH225126   1.280   1.596   3.916  0.1801  0.0512  0.1836
 1212TIP3    H125127   1.187   1.618   3.921 -0.2818 -2.0246  1.1964
 1212TIP3    H225128   1.319   1.668   3.866 -2.1402  0.4162 -1.1843
 1213TIP3   OH225129   0.615   1.151  12.429  0.2787  0.1928 -0.3085
 1213TIP3    H125130   0.524   1.183  12.429 -0.1785 -1.0728  0.2720
 1213TIP3    H225131   0.660   1.208  12.366 -0.3603  2.3364  1.1041
 1214TIP3   OH225132   0.435   0.299   0.447  0.5417  0.6003  0.0020
 1214TIP3    H125133   0.436   0.243   0.369  1.2097  0.0801  0.3781
 1214TIP3    H225134   0.471   0.382   0.416  0.9960  0.3307 -0.2011
 1215TIP3   OH225135   5.487   5.995   5.958 -0.0139 -0.6844 -0.0999
 1215TIP3    H125136   5.470   5.967   6.048  1.0566 -0.5376  0.1550
 1215TIP3    H225137   5.574   6.033   5.961 -0.1508 -0.2719 -1.1161
 1216TIP3   OH225138   1.772   1.197  12.064 -1.0359 -0.4001  0.4345
 1216TIP3    H125139   1.793   1.125  12.005 -2.2405  0.1294 -0.6553
 1216TIP3    H225140   1.677   1.200  12.066 -1.0068  1.9291 -0.4720
 1217TIP3   OH225141   5.644   2.410   3.257 -0.1165  0.2766  0.5106
 1217TIP3    H125142   5.636   2.324   3.298  0.9451 -0.0333  0.0976
 1217TIP3    H225143   5.679   2.466   3.326  3.5413 -0.6889 -0.4276
 1218TIP3   OH225144   1.402   0.736   5.883  0.0530  0.0869 -0.2257
 1218TIP3    H125145   1.458   0.793   5.936  0.0179  0.0707 -0.1726
 1218TIP3    H225146   1.343   0.695   5.945  0.0565  0.0170 -0.2692
 1219TIP3   OH225147   1.518   4.285  16.448  0.4262 -0.1196  0.0088
 1219TIP3    H125148   1.516   4.371  16.406  0.9728  0.8962  1.9917
 1219TIP3    H225149   1.588   4.239  16.402 -1.7479 -0.5723 -2.9913
 1220TIP3   OH225150   3.037   2.851   0.329  0.6644  0.0698 -0.1013
 1220TIP3    H125151   3.115   2.795   0.331 -0.2181 -1.2602 -1.8566
 1220TIP3    H225152   3.064   2.929   0.281  0.8714 -0.4484 -0.8209
 1221TIP3   OH225153   4.991   5.272  15.436 -0.0593  0.4402 -0.1060
 1221TIP3    H125154   5.013   5.268  15.343 -0.3362  0.8481 -0.1865
 1221TIP3    H225155   4.937   5.194  15.452  0.1820  0.2467 -0.2329
 1222TIP3   OH225156   6.193   0.159  13.058 -0.3649 -0.5422  0.0760
 1222TIP3    H125157   6.202   0.220  12.985 -0.1159 -0.3214  0.2899
 1222TIP3    H225158   6.252   0.087  13.036 -0.8457 -0.8243 -0.2972
 1223TIP3   OH225159   0.984   4.193  12.086 -0.5022 -0.4787  0.5268
 1223TIP3    H125160   1.039   4.194  12.164 -0.8139  2.8980  0.7877
 1223TIP3    H225161   0.908   4.140  12.111  0.1147 -0.6936  1.9898
 1224TIP3   OH225162   6.700   0.056  14.139 -0.2761 -0.1415  0.9380
 1224TIP3    H125163   6.705   0.128  14.202 -2.1841  0.7385  0.1010
 1224TIP3    H225164   6.607   0.047  14.119 -0.1401 -3.2653  1.4734
 1225TIP3   OH225165   1.304   0.106   3.878 -0.0062  0.0148  0.0685
 1225TIP3    H125166   1.267   0.039   3.820 -0.5721 -0.3992  0.8936
 1225TIP3    H225167   1.399   0.098   3.866 -0.1261  0.2831 -1.1799
 1226TIP3   OH225168   6.213   0.027  14.535 -0.2466 -0.4702 -0.3993
 1226TIP3    H125169   6.227   0.105  14.481  1.3717 -0.5037 -0.0486
 1226TIP3    H225170   6.253   0.049  14.619 -1.0290 -1.1611  0.1618
 1227TIP3   OH225171   5.208   2.000   5.815 -0.0615 -0.5526  0.7011
 1227TIP3    H125172   5.147   2.058   5.771 -0.4032  0.0574  1.9597
 1227TIP3    H225173   5.294   2.041   5.803 -0.0038 -0.9522 -0.3080
 1228TIP3   OH225174   5.399   4.630  13.028 -0.2479  0.2433  0.0111
 1228TIP3    H125175   5.397   4.564  13.098 -2.3938 -0.5024 -0.7172
 1228TIP3    H225176   5.402   4.579  12.947  1.0500  1.0866 -0.4758
 1229TIP3   OH225177   6.170   2.805   6.263  0.6068  0.2683 -0.0704
 1229TIP3    H125178   6.193   2.897   6.249 -0.7675  0.6986  0.4460
 1229TIP3    H225179   6.140   2.775   6.177 -1.7771  1.1502  0.4091
 1230TIP3   OH225180   3.097   3.722  11.984 -0.0782  0.0295 -0.5296
 1230TIP3    H125181   3.147   3.762  12.056 -0.2984 -0.8778  0.1312
 1230TIP3    H225182   3.153   3.650  11.954 -1.0747 -1.1543  0.3815
 1231TIP3   OH225183   5.827   4.079  14.723  0.8205 -0.1090 -0.1914
 1231TIP3    H125184   5.868   4.129  14.793  2.1971  1.0097 -1.7805
 1231TIP3    H225185   5.753   4.133  14.695  0.3053 -0.5295  0.3266
 1232TIP3   OH225186   0.628   6.290   5.654  0.5996 -0.5010 -0.3138
 1232TIP3    H125187   0.609   6.200   5.679  3.3281 -1.6842 -2.3490
 1232TIP3    H225188   0.578   6.303   5.573 -0.0563 -0.0454  0.1558
 1233TIP3   OH225189   1.323   4.091  10.356  0.2895 -0.7386  0.4971
 1233TIP3    H125190   1.353   4.119  10.270 -0.9783  0.2386  0.3482
 1233TIP3    H225191   1.326   3.995  10.352 -0.2500 -0.7190 -0.8302
 1234TIP3   OH225192   2.628   4.207  14.058  0.6613  0.3635  0.4611
 1234TIP3    H125193   2.661   4.265  13.990  0.9187  0.0734  0.3389
 1234TIP3    H225194   2.533   4.220  14.057  0.6648  0.3498  0.0427
 1235TIP3   OH225195   1.975   0.878   4.453  0.3162 -0.4311 -0.0642
 1235TIP3    H125196   2.019   0.847   4.532  0.6691 -0.9635 -0.4723
 1235TIP3    H225197   1.971   0.973   4.464  0.1805 -0.5207  0.6892
 1236TIP3   OH225198   3.921   4.259  16.324 -0.1432 -0.1603 -0.5617
 1236TIP3    H125199   3.846   4.267  16.265 -1.8097  0.4696  1.5627
 1236TIP3    H225200   3.901   4.183  16.378  0.4876  0.3427  0.3911
 1237TIP3   OH225201   1.216   2.751   6.403 -0.2829 -0.4953 -0.8080
 1237TIP3    H125202   1.299   2.766   6.359  0.1727  0.0748  0.2225
 1237TIP3    H225203   1.195   2.660   6.385  1.2655 -1.0483  0.0582
 1238TIP3   OH225204   2.398   5.112  16.431 -0.0923  0.4186  0.0080
 1238TIP3    H125205   2.418   5.169  16.505  0.5008  0.8373 -0.4683
 1238TIP3    H225206   2.358   5.035  16.470  0.2066  0.6413  0.7651
 1239TIP3   OH225207   4.498   6.195   2.741  0.1903  0.6207 -0.4566
 1239TIP3    H125208   4.531   6.206   2.830  0.4416  0.8720 -0.5797
 1239TIP3    H225209   4.491   6.284   2.706 -2.6149  0.7287  0.2635
 1240TIP3   OH225210   3.445   3.736  11.839 -0.0008  0.2995  0.0848
 1240TIP3    H125211   3.427   3.828  11.823 -2.9285 -0.3218 -0.5393
 1240TIP3    H225212   3.414   3.691  11.760 -0.5859 -1.3853  1.2342
 1241TIP3   OH225213   2.974   6.621  15.431  0.2817  0.3946 -0.1957
 1241TIP3    H125214   3.062   6.640  15.464 -0.3778  0.6093  1.5036
 1241TIP3    H225215   2.930   6.578  15.505 -0.6111 -0.9367 -1.4951
 1242TIP3   OH225216   6.247   1.507   2.211  0.4454 -0.4766  0.2922
 1242TIP3    H125217   6.169   1.534   2.162  0.9041 -0.1047 -0.2407
 1242TIP3    H225218   6.307   1.473   2.144  0.8493 -0.5069  0.6657
 1243TIP3   OH225219   5.472   4.794  13.307  0.4521  0.3586  0.2168
 1243TIP3    H125220   5.482   4.715  13.360  0.0789 -0.4145 -0.8645
 1243TIP3    H225221   5.539   4.787  13.239 -0.8937 -0.0397 -1.1106
 1244TIP3   OH225222   4.786   0.378   2.382  0.0928 -0.2063  0.0903
 1244TIP3    H125223   4.818   0.372   2.472  0.7970  0.4885 -0.0963
 1244TIP3    H225224   4.698   0.341   2.385  0.6018 -1.3938  0.7992
 1245TIP3   OH225225   4.576   4.735  11.116  0.4658  0.1601  0.4865
 1245TIP3    H125226   4.540   4.824  11.118 -0.5007 -0.1990 -0.4604
 1245TIP3    H225227   4.503   4.680  11.088  0.5093 -1.2363  2.9822
 1246TIP3   OH225228   1.214   1.230  16.427 -0.0535  0.4206 -0.3206
 1246TIP3    H125229   1.133   1.190  16.395  0.8055 -1.5456 -0.0776
 1246TIP3    H225230   1.187   1.283  16.502 -1.4379  1.6560 -1.6309
 1247TIP3   OH225231   5.405   2.150   5.975  0.2646 -0.1926 -0.5827
 1247TIP3    H125232   5.343   2.168   6.046 -0.3082  0.9704 -1.3670
 1247TIP3    H225233   5.478   2.210   5.992 -0.2468  0.6732 -1.4472
 1248TIP3   OH225234   2.305   0.295  16.063  0.5775 -0.4626  0.1598
 1248TIP3    H125235   2.393   0.317  16.033  0.4035  0.3630  0.2345
 1248TIP3    H225236   2.249   0.362  16.024 -0.1815 -1.6427 -0.8138
 1249TIP3   OH225237   1.328   5.995  14.029  0.4450  0.3824  0.4463
 1249TIP3    H125238   1.235   6.013  14.013  0.2824 -1.2114 -0.5053
 1249TIP3    H225239   1.346   5.915  13.979  2.2919  0.5802  0.7602
 1250TIP3   OH225240   6.222   3.677   0.887 -0.9188  0.6554 -0.5935
 1250TIP3    H125241   6.210   3.584   0.907 -1.9331  1.0808  0.8681
 1250TIP3    H225242   6.317   3.689   0.886 -0.7929  0.1315  1.9160
 1251TIP3   OH225243   3.224   3.937   4.868  0.0713  0.5868  0.1974
 1251TIP3    H125244   3.187   3.995   4.801 -0.2922 -0.2856 -0.3560
 1251TIP3    H225245   3.303   3.901   4.828 -0.7833 -0.8502 -0.2041
 1252TIP3   OH225246   3.316   4.170  17.200  0.1408  0.2539 -0.3730
 1252TIP3    H125247   3.390   4.204  17.150  1.4762 -0.4133  1.0890
 1252TIP3    H225248   3.297   4.238  17.265 -0.5193  0.4099 -0.7196
 1253TIP3   OH225249   4.454   2.187   3.928  0.0474 -0.2426 -0.1177
 1253TIP3    H125250   4.406   2.127   3.871 -0.5010 -0.3120  0.3955
 1253TIP3    H225251   4.385   2.238   3.971  0.4068 -0.7327  1.0572
 1254TIP3   OH225252   0.182   2.168   2.307  0.2415  0.3540 -0.2470
 1254TIP3    H125253   0.139   2.099   2.356  0.1961  0.1719 -0.5405
 1254TIP3    H225254   0.143   2.163   2.219  1.5149 -0.4381 -0.7927
 1255TIP3   OH225255   2.418   5.304  13.571 -0.5420  0.5006  0.2121
 1255TIP3    H125256   2.451   5.325  13.484 -0.1271 -0.3667  0.1596
 1255TIP3    H225257   2.424   5.386  13.620  0.2274  0.7239 -0.2587
 1256TIP3   OH225258   1.999   0.301   1.838  0.4160 -0.6328 -0.1427
 1256TIP3    H125259   1.947   0.242   1.785  1.4030 -1.7578  0.1298
 1256TIP3    H225260   2.006   0.381   1.785 -1.1089 -0.6548 -0.4055
 1257TIP3   OH225261   2.805   5.613   1.962  0.3186 -0.2431 -0.7398
 1257TIP3    H125262   2.900   5.613   1.946  0.4102  0.4271 -0.2241
 1257TIP3    H225263   2.793   5.550   2.033  0.5469  0.6503  0.1065
 1258TIP3   OH225264   1.350   2.807   6.648  0.2181 -0.4235 -0.6563
 1258TIP3    H125265   1.288   2.802   6.575  0.4328  3.5138 -1.2449
 1258TIP3    H225266   1.301   2.848   6.719  1.0170 -0.9581  0.2191
 1259TIP3   OH225267   5.270   0.024  13.109 -0.4793 -0.0445  0.1272
 1259TIP3    H125268   5.331  -0.033  13.061  0.6402  1.1642  0.0779
 1259TIP3    H225269   5.219  -0.036  13.163  1.4025 -1.0331  0.8632
 1260TIP3   OH225270   6.694   4.025   0.199  0.1576 -0.4317 -0.0457
 1260TIP3    H125271   6.694   3.983   0.285  0.2509 -0.2335  0.0522
 1260TIP3    H225272   6.744   3.965   0.143 -1.7514 -1.6220 -0.4937
 1261TIP3   OH225273   2.407   5.847  15.004 -0.0114 -0.0507  0.1156
 1261TIP3    H125274   2.317   5.817  14.999 -1.2877  3.4709  0.2135
 1261TIP3    H225275   2.427   5.876  14.915  0.7888 -0.1621  0.2564
 1262TIP3   OH225276   0.182   0.219   5.521 -0.2917  0.1767 -0.0735
 1262TIP3    H125277   0.197   0.168   5.601 -0.5295  0.9902  0.5031
 1262TIP3    H225278   0.234   0.175   5.454 -2.7659 -2.5937 -0.3051
 1263TIP3   OH225279   0.337   5.569   3.537 -0.3741 -0.5629  0.1178
 1263TIP3    H125280   0.263   5.628   3.552 -0.4643 -0.6521  0.0233
 1263TIP3    H225281   0.332   5.506   3.609  0.2282  0.0555  0.7084
 1264TIP3   OH225282   4.703   6.809   1.004  0.3561 -0.5926 -0.1145
 1264TIP3    H125283   4.669   6.829   1.091  1.2125  0.3009  0.0183
 1264TIP3    H225284   4.751   6.888   0.978  0.2325 -0.9084 -1.3335
 1265TIP3   OH225285   5.350   6.774   2.592  0.1039  0.1681  0.2841
 1265TIP3    H125286   5.293   6.818   2.529 -0.4773  1.2209  1.5162
 1265TIP3    H225287   5.430   6.754   2.543  0.0647  1.8967 -0.5305
 1266TIP3   OH225288   6.183   2.659  13.962 -0.5468  0.1090  0.4308
 1266TIP3    H125289   6.110   2.677  14.022 -0.0752  0.8525  0.7881
 1266TIP3    H225290   6.229   2.743  13.954  0.6159 -0.4989  0.6772
 1267TIP3   OH225291   2.318   5.251   5.566 -0.0626  0.0778  0.2299
 1267TIP3    H125292   2.267   5.331   5.551  0.0951  0.0252 -0.6376
 1267TIP3    H225293   2.402   5.269   5.524  0.2361 -0.2596  0.6884
 1268TIP3   OH225294   0.779   1.420   3.462  0.5846 -0.3204  0.1426
 1268TIP3    H125295   0.700   1.382   3.424  0.3521  0.4675 -0.1734
 1268TIP3    H225296   0.849   1.396   3.400  0.8782 -2.3546  1.2207
 1269TIP3   OH225297   1.285   2.008  16.967  0.1271 -0.1561  0.4825
 1269TIP3    H125298   1.195   1.987  16.942  0.0175 -0.3211  1.0071
 1269TIP3    H225299   1.292   2.103  16.954  1.1981 -0.6841 -3.7043
 1270TIP3   OH225300   2.616   6.536  15.876  0.1636 -0.1058  0.0671
 1270TIP3    H125301   2.591   6.499  15.791  0.7940  0.4403 -0.3597
 1270TIP3    H225302   2.545   6.511  15.935  0.6144 -2.0583 -0.1929
 1271TIP3   OH225303   0.329   0.361   2.503 -0.0956 -0.4638 -0.1140
 1271TIP3    H125304   0.324   0.392   2.593  1.4787  1.0984 -0.5427
 1271TIP3    H225305   0.419   0.328   2.494  0.1947  0.6857 -1.5061
 1272TIP3   OH225306   5.172   2.074  13.558 -0.5069 -0.2704 -0.8580
 1272TIP3    H125307   5.134   1.988  13.572  0.5081 -0.8098 -1.4060
 1272TIP3    H225308   5.097   2.134  13.565 -1.1147 -1.1232  0.1407
 1273TIP3   OH225309   5.353   2.402  11.296  0.4795 -0.5390 -0.5572
 1273TIP3    H125310   5.433   2.408  11.347  0.3661 -1.7765 -0.2004
 1273TIP3    H225311   5.284   2.429  11.357  0.3531 -1.9387 -0.0566
 1274TIP3   OH225312   4.463   0.582   3.292 -0.1580 -0.2936 -0.3917
 1274TIP3    H125313   4.469   0.597   3.387 -1.3336 -0.6580 -0.2451
 1274TIP3    H225314   4.533   0.635   3.255 -0.2249  0.5348  0.6268
 1275TIP3   OH225315   3.394   1.635  11.404  0.5100  0.1287 -0.2173
 1275TIP3    H125316   3.319   1.668  11.356 -1.4802 -1.1787  1.8844
 1275TIP3    H225317   3.455   1.604  11.337 -1.0832  0.6735 -1.9304
 1276TIP3   OH225318   1.700   6.432  16.749 -0.7919 -0.7164  0.6611
 1276TIP3    H125319   1.705   6.431  16.653  0.6318  2.3193  0.6380
 1276TIP3    H225320   1.753   6.357  16.776 -0.8829 -1.3706 -0.9052
 1277TIP3   OH225321   5.132   0.778  13.595  0.1747 -0.2283  0.1720
 1277TIP3    H125322   5.119   0.870  13.616 -1.2725 -0.7225  1.5034
 1277TIP3    H225323   5.225   0.762  13.614  0.1453  0.6508  1.0773
 1278TIP3   OH225324   2.942   5.660   4.669  0.5150 -0.1483 -0.0708
 1278TIP3    H125325   2.886   5.618   4.604  1.1465  1.0839 -1.4254
 1278TIP3    H225326   3.016   5.600   4.678  0.1617 -0.5909 -0.0766
 1279TIP3   OH225327   4.736   0.346  12.199  0.1084  0.7291 -0.0498
 1279TIP3    H125328   4.678   0.303  12.261  1.2314  0.1875  0.6227
 1279TIP3    H225329   4.712   0.439  12.205  0.9161  0.8367  1.9711
 1280TIP3   OH225330   6.255   0.635   2.121 -0.5961 -0.0589 -0.3784
 1280TIP3    H125331   6.302   0.664   2.199 -0.0351  1.3061 -1.2029
 1280TIP3    H225332   6.270   0.705   2.057 -2.4170 -0.3782 -1.1766
 1281TIP3   OH225333   1.768   5.669  11.444  0.5809 -0.2224  0.0211
 1281TIP3    H125334   1.688   5.683  11.392  0.4402 -0.5754  0.1404
 1281TIP3    H225335   1.774   5.574  11.453 -0.2046 -0.1050  1.9199
 1282TIP3   OH225336   4.705   1.681   5.680 -0.4677  0.7179 -0.4381
 1282TIP3    H125337   4.795   1.708   5.658 -0.2494  0.7809  0.5090
 1282TIP3    H225338   4.662   1.672   5.595  1.2367 -2.0621 -1.0913
 1283TIP3   OH225339   5.220   4.887   1.617  0.4071  0.2311 -0.2401
 1283TIP3    H125340   5.158   4.825   1.578 -0.2480  0.2786  0.7073
 1283TIP3    H225341   5.299   4.835   1.631  0.8379  0.3472 -2.0976
 1284TIP3   OH225342   3.022   3.045   2.300 -0.5770 -0.4745 -0.0667
 1284TIP3    H125343   2.984   3.122   2.342 -0.2053 -0.6759  0.6495
 1284TIP3    H225344   3.094   3.079   2.246  0.2979 -0.4366  1.1173
 1285TIP3   OH225345   1.316   5.305  11.498 -0.1986 -0.4295 -0.4453
 1285TIP3    H125346   1.400   5.298  11.543  0.0977 -2.0942 -1.2326
 1285TIP3    H225347   1.253   5.264  11.557 -0.1180 -0.9553 -0.7188
 1286TIP3   OH225348   2.489   3.991  16.715  0.2675  0.0309  0.8715
 1286TIP3    H125349   2.561   3.928  16.722  0.4018 -0.0501 -0.9531
 1286TIP3    H225350   2.425   3.962  16.779  0.8040 -1.3439  0.7974
 1287TIP3   OH225351   0.554   4.720  13.047 -0.6365 -0.5112 -0.5278
 1287TIP3    H125352   0.605   4.712  13.127 -0.0271 -2.2332 -1.0764
 1287TIP3    H225353   0.588   4.799  13.005 -0.6048  0.1152  0.6453
 1288TIP3   OH225354   0.433   3.969  15.336 -0.5364  0.7829 -0.3600
 1288TIP3    H125355   0.513   4.004  15.375  0.1101 -0.2557 -0.7283
 1288TIP3    H225356   0.363   4.021  15.375  0.3386  1.9110 -0.2715
 1289TIP3   OH225357   1.355   1.036   5.219  0.1123 -0.3613  0.1025
 1289TIP3    H125358   1.382   0.945   5.233 -1.1899 -0.9587 -1.0922
 1289TIP3    H225359   1.270   1.043   5.263 -0.1314  0.0643 -0.4282
 1290TIP3   OH225360   4.438   4.435   4.917  0.1881  0.3540 -0.1185
 1290TIP3    H125361   4.437   4.499   4.988  0.7823 -0.8864  1.0524
 1290TIP3    H225362   4.509   4.375   4.941 -1.1785 -1.4607 -0.5116
 1291TIP3   OH225363   3.054   4.978  13.253  0.1683 -0.7718 -0.0320
 1291TIP3    H125364   3.108   4.920  13.307 -1.4550 -0.0838  2.3756
 1291TIP3    H225365   3.070   5.065  13.288 -3.1481 -0.6516  1.3240
 1292TIP3   OH225366   4.587   1.677   1.458 -0.3474  0.0271  0.4243
 1292TIP3    H125367   4.593   1.741   1.530 -1.8083 -0.0107  0.6012
 1292TIP3    H225368   4.677   1.666   1.428  0.2448  0.2767  2.0586
 1293TIP3   OH225369   5.100   1.304  13.604 -0.5463  0.0210  0.2717
 1293TIP3    H125370   5.102   1.316  13.509 -1.6981  2.2101  0.4840
 1293TIP3    H225371   5.121   1.391  13.639 -1.5496 -0.4231  2.0195
 1294TIP3   OH225372   3.228   4.235  11.669 -0.1694  0.4769 -0.3396
 1294TIP3    H125373   3.170   4.174  11.714  0.3184  0.1564 -0.1461
 1294TIP3    H225374   3.264   4.184  11.596  0.8332  0.2969  0.2717
 1295TIP3   OH225375   3.443   2.006  11.382 -0.3387 -0.0051 -0.0360
 1295TIP3    H125376   3.530   2.004  11.422 -0.1099 -0.2402 -0.5490
 1295TIP3    H225377   3.450   1.950  11.305 -0.4115  1.4959 -1.1670
 1296TIP3   OH225378   2.822   5.371   5.056 -0.0761 -0.0616 -0.4333
 1296TIP3    H125379   2.812   5.464   5.077 -1.7624 -0.4335  0.5201
 1296TIP3    H225380   2.907   5.347   5.090  1.1018  1.5152 -2.1373
 1297TIP3   OH225381   5.555   3.387  15.420  0.6155 -1.0542  0.1431
 1297TIP3    H125382   5.465   3.356  15.423  0.3869 -0.3641  0.5397
 1297TIP3    H225383   5.604   3.315  15.380  0.1638 -2.0545  1.3726
 1298TIP3   OH225384   4.887   4.492   6.565 -0.0668  0.1121 -0.2947
 1298TIP3    H125385   4.794   4.477   6.580  0.0183 -0.1737 -0.0549
 1298TIP3    H225386   4.904   4.580   6.600 -0.1089 -0.0957  0.2466
 1299TIP3   OH225387   4.660   3.894   1.823  0.1419 -0.3590 -0.2835
 1299TIP3    H125388   4.649   3.835   1.748 -1.5764 -1.2361  0.6115
 1299TIP3    H225389   4.676   3.835   1.897  0.9650  0.4517  0.1913
 1300TIP3   OH225390   4.943   2.004  14.965  0.0501 -0.4545 -0.2295
 1300TIP3    H125391   4.961   2.037  14.877  0.4475 -1.6394 -0.6069
 1300TIP3    H225392   4.896   1.921  14.950 -1.6074  0.2780  0.6898
 1301TIP3   OH225393   6.093   4.251   1.381 -0.3641 -0.6915  0.4159
 1301TIP3    H125394   6.097   4.162   1.346  1.4520 -0.8741  1.0564
 1301TIP3    H225395   6.008   4.283   1.353 -1.0931 -2.6706  0.2866
 1302TIP3   OH225396   0.469   2.730   0.750 -0.2548  0.4131  0.0954
 1302TIP3    H125397   0.542   2.784   0.718 -0.0715 -0.4178 -0.9129
 1302TIP3    H225398   0.407   2.730   0.677  0.4286 -2.0127 -0.5252
 1303TIP3   OH225399   1.693   5.671  12.413 -0.6632 -0.0201 -0.5855
 1303TIP3    H125400   1.710   5.719  12.494 -0.5392 -0.1646 -0.5267
 1303TIP3    H225401   1.607   5.703  12.384 -0.6232  0.1684 -0.4975
 1304TIP3   OH225402   1.126   3.804  15.403 -0.0298  0.0571 -0.1898
 1304TIP3    H125403   1.173   3.887  15.411  0.3805 -0.0688 -1.2508
 1304TIP3    H225404   1.192   3.742  15.374 -0.5244 -0.4581 -0.2219
 1305TIP3   OH225405   1.797   4.405  10.834 -0.1485  0.1957  0.5893
 1305TIP3    H125406   1.759   4.354  10.763  1.3897 -0.6493  0.3354
 1305TIP3    H225407   1.736   4.394  10.907 -2.1187  1.6687 -0.7690
 1306TIP3   OH225408   2.558   2.565   1.182  0.1490  0.4606  0.1543
 1306TIP3    H125409   2.565   2.656   1.152  2.2423  0.6514  1.1084
 1306TIP3    H225410   2.630   2.555   1.245  0.4828 -2.0783 -0.5616
 1307TIP3   OH225411   5.813   0.671  15.171  0.5182 -0.3184  0.1312
 1307TIP3    H125412   5.755   0.697  15.242  2.1166 -0.6532  1.6229
 1307TIP3    H225413   5.790   0.580  15.154 -0.1966 -0.0928 -0.0903
 1308TIP3   OH225414   5.733   6.788   6.386  0.0639 -0.4496 -0.6825
 1308TIP3    H125415   5.760   6.717   6.327 -1.2558  0.4833 -2.4753
 1308TIP3    H225416   5.654   6.754   6.428  1.1258 -1.2000  0.7497
 1309TIP3   OH225417   3.746   2.766   1.039 -0.0321  0.7147  0.3273
 1309TIP3    H125418   3.829   2.750   1.082 -0.5406 -0.9817  0.7167
 1309TIP3    H225419   3.690   2.805   1.106  0.1303  0.8855  0.3608
 1310TIP3   OH225420   3.728   2.443  15.024  0.0850  0.3684 -0.2079
 1310TIP3    H125421   3.770   2.517  14.981 -1.0858  1.7340  0.9580
 1310TIP3    H225422   3.635   2.453  15.004  0.0474 -1.4574 -1.0209
 1311TIP3   OH225423   3.951   4.605   4.613 -0.1480  0.0756  0.0303
 1311TIP3    H125424   3.984   4.640   4.530 -1.0725 -1.9227 -1.2195
 1311TIP3    H225425   3.959   4.677   4.674 -2.0862  2.5377 -2.4716
 1312TIP3   OH225426   3.772   2.775  11.546  0.4369  0.4446 -0.5621
 1312TIP3    H125427   3.778   2.817  11.632 -0.5834 -1.7395  0.6053
 1312TIP3    H225428   3.683   2.792  11.517  0.8246  1.3103 -1.2931
 1313TIP3   OH225429   0.398   3.081  12.267  0.6302 -0.0228 -0.2619
 1313TIP3    H125430   0.358   3.163  12.239  1.1998 -0.0582 -1.1621
 1313TIP3    H225431   0.457   3.106  12.338  0.6796  0.3124 -0.4237
 1314TIP3   OH225432   6.459   5.945   1.288  0.1352  0.1957 -0.2982
 1314TIP3    H125433   6.552   5.941   1.266 -0.6731 -2.7558 -3.4762
 1314TIP3    H225434   6.431   6.031   1.258  1.6981  0.9519  0.3358
 1315TIP3   OH225435   1.609   1.478  13.439  0.1610  0.3107 -0.1141
 1315TIP3    H125436   1.548   1.465  13.512  0.9328 -1.0940  0.3022
 1315TIP3    H225437   1.696   1.464  13.477  0.5865 -0.1923 -1.2399
 1316TIP3   OH225438   1.453   3.910   2.912 -0.2540  0.0331 -0.9569
 1316TIP3    H125439   1.456   3.998   2.949  0.0986 -0.4214  0.1371
 1316TIP3    H225440   1.364   3.901   2.877 -1.0573  0.0079  1.0120
 1317TIP3   OH225441   2.593   6.142   5.625 -0.4060 -0.6317  0.6897
 1317TIP3    H125442   2.653   6.182   5.688  1.5390 -0.1077 -1.4053
 1317TIP3    H225443   2.511   6.191   5.635  1.0956  2.1470  0.0977
 1318TIP3   OH225444   5.248   1.968  13.271  0.2221  0.2210 -0.1608
 1318TIP3    H125445   5.285   2.056  13.269 -0.7071  0.6560  1.1213
 1318TIP3    H225446   5.291   1.926  13.346  2.1246 -1.0887 -1.9476
 1319TIP3   OH225447   5.289   2.676   6.846 -0.2715  0.5841  0.0020
 1319TIP3    H125448   5.372   2.722   6.835 -0.2152  0.0603 -1.9428
 1319TIP3    H225449   5.250   2.714   6.925  1.6200  1.1119  0.6863
 1320TIP3   OH225450   1.950   0.164  14.559  0.0288 -0.1909  0.2074
 1320TIP3    H125451   1.987   0.141  14.644 -0.5206  0.1035  0.5347
 1320TIP3    H225452   1.867   0.116  14.556 -0.7931  1.1454  0.5974
 1321TIP3   OH225453   0.354   4.212   4.447 -0.0747  0.0121 -0.0589
 1321TIP3    H125454   0.285   4.154   4.480 -1.1924  1.4550  0.1620
 1321TIP3    H225455   0.345   4.292   4.498  2.9176 -0.3907  1.2040
 1322TIP3   OH225456   6.269   1.962   2.796 -0.6150  0.2987  0.0743
 1322TIP3    H125457   6.270   1.870   2.771 -0.5351  0.2830  0.1359
 1322TIP3    H225458   6.358   1.979   2.829 -0.5179  0.4864 -0.2746
 1323TIP3   OH225459   5.182   5.465  15.793 -0.2155  0.3118  0.1397
 1323TIP3    H125460   5.237   5.406  15.844  0.8099  1.1439  0.0138
 1323TIP3    H225461   5.182   5.427  15.704 -1.1130 -0.5366  0.4958
 1324TIP3   OH225462   5.331   2.495  14.231  0.0608  0.2501  0.2796
 1324TIP3    H125463   5.411   2.544  14.212  1.1664 -1.9202 -0.7868
 1324TIP3    H225464   5.285   2.492  14.147  0.0794 -0.6465  0.2970
 1325TIP3   OH225465   0.820   1.556  14.130 -0.1081 -0.2255  0.6936
 1325TIP3    H125466   0.898   1.562  14.074  0.3464  0.4321  1.3799
 1325TIP3    H225467   0.837   1.618  14.201 -0.9025 -0.6775  1.2881
 1326TIP3   OH225468   3.609   3.512   5.992  0.1864 -0.7512 -0.1148
 1326TIP3    H125469   3.674   3.549   6.052  0.3083 -1.9651  0.5245
 1326TIP3    H225470   3.533   3.569   6.001  0.6120 -0.2386  0.3203
 1327TIP3   OH225471   4.485   3.313   0.079 -0.0211 -0.1611  0.1626
 1327TIP3    H125472   4.533   3.242   0.123 -0.2537 -0.0638  0.5771
 1327TIP3    H225473   4.535   3.392   0.101 -0.1075 -0.1181  0.2018
 1328TIP3   OH225474   5.331   4.684  15.143  0.7281  0.4535  0.6920
 1328TIP3    H125475   5.324   4.614  15.078  0.5615  0.2298  0.9495
 1328TIP3    H225476   5.375   4.755  15.097 -0.0060  0.5508  0.1216
 1329TIP3   OH225477   5.265   0.428   0.211  0.1699  0.1592 -0.0883
 1329TIP3    H125478   5.255   0.356   0.149  0.6379 -0.7692  0.8980
 1329TIP3    H225479   5.263   0.507   0.157  0.3206 -0.6207 -1.2476
 1330TIP3   OH225480   2.911   4.865  16.807  0.7573 -0.3936 -0.4042
 1330TIP3    H125481   2.876   4.866  16.718 -1.7942  1.4059  0.5376
 1330TIP3    H225482   2.886   4.779  16.842  0.5288 -0.5631 -0.9803
 1331TIP3   OH225483   0.628   4.982  15.583 -0.4852  0.2630  0.2145
 1331TIP3    H125484   0.642   4.914  15.649 -0.8599 -0.0900 -0.0677
 1331TIP3    H225485   0.636   4.936  15.500  0.8477  0.8756 -0.0070
 1332TIP3   OH225486   2.778   0.312   1.188 -0.1692 -0.6950  0.0451
 1332TIP3    H125487   2.870   0.328   1.167 -0.9267  0.6894 -2.4207
 1332TIP3    H225488   2.737   0.293   1.104 -2.6793  1.5422  0.6871
 1333TIP3   OH225489   2.334   3.224   6.523 -0.3644  0.5261  0.2978
 1333TIP3    H125490   2.384   3.148   6.554  0.2062  0.6027 -0.4257
 1333TIP3    H225491   2.248   3.188   6.499  0.3176 -0.1053 -1.2161
 1334TIP3   OH225492   0.299   6.654   4.565  0.1575 -0.2493 -0.5670
 1334TIP3    H125493   0.296   6.707   4.645  3.0706  0.8857 -1.1315
 1334TIP3    H225494   0.238   6.697   4.505 -1.0632 -0.3515  0.5776
 1335TIP3   OH225495   0.188   4.139  11.587 -0.6387  0.4805  0.2841
 1335TIP3    H125496   0.114   4.078  11.589  0.9098 -1.5330 -1.3962
 1335TIP3    H225497   0.241   4.110  11.513  1.3573  2.4754  0.8706
 1336TIP3   OH225498   4.726   4.129   4.059  0.2280  0.2338 -0.6810
 1336TIP3    H125499   4.642   4.173   4.071  0.1935  0.4151 -1.5972
 1336TIP3    H225500   4.771   4.141   4.143  0.3431  2.2541 -1.0163
 1337TIP3   OH225501   2.542   1.465   5.513  0.3815 -0.0314 -0.2107
 1337TIP3    H125502   2.582   1.507   5.437  1.8752 -0.4705  0.3249
 1337TIP3    H225503   2.545   1.371   5.494  2.2713 -0.2568  1.0987
 1338TIP3   OH225504   1.108   6.691  13.507 -0.0113  0.0507  0.0780
 1338TIP3    H125505   1.118   6.599  13.533  1.0333 -0.2103 -1.1812
 1338TIP3    H225506   1.096   6.738  13.589 -2.0719 -1.4008  0.6435
 1339TIP3   OH225507   1.605   6.572   1.514  0.0863  0.2620  0.1626
 1339TIP3    H125508   1.559   6.656   1.509  0.0513  0.1646 -1.8045
 1339TIP3    H225509   1.698   6.595   1.517  0.2315  0.4063 -3.0036
 1340TIP3   OH225510   3.825   3.653  12.561  0.6244  0.0603  0.3030
 1340TIP3    H125511   3.754   3.683  12.617 -0.3085 -0.2649 -0.6960
 1340TIP3    H225512   3.873   3.732  12.538  0.6676  0.2642  1.0903
 1341TIP3   OH225513   1.794   1.518   2.856  0.0024  0.3202  0.2811
 1341TIP3    H125514   1.856   1.485   2.922 -0.7081  0.5588  1.0852
 1341TIP3    H225515   1.709   1.486   2.887 -0.3607  0.6378 -0.4036
 1342TIP3   OH225516   0.855   5.539  15.981 -0.4800 -0.3596  0.2073
 1342TIP3    H125517   0.866   5.580  16.067 -0.5842 -0.4301  0.2546
 1342TIP3    H225518   0.922   5.471  15.978  1.5694  1.6269 -0.9758
 1343TIP3   OH225519   3.538   6.727  16.004 -0.5518  0.6710 -0.1107
 1343TIP3    H125520   3.480   6.768  15.939 -0.3609 -0.0399 -0.7412
 1343TIP3    H225521   3.599   6.676  15.952 -0.4794 -0.0152  0.6388
 1344TIP3   OH225522   3.354   0.765  12.276 -0.1438 -0.2125  0.0458
 1344TIP3    H125523   3.440   0.787  12.313  0.6241 -1.0066 -1.2122
 1344TIP3    H225524   3.299   0.748  12.352  0.5423  1.2544  0.8976
 1345TIP3   OH225525   1.312   3.203  16.682  0.3092 -0.1858  0.1927
 1345TIP3    H125526   1.337   3.185  16.773 -1.6023  0.6774  0.9172
 1345TIP3    H225527   1.307   3.299  16.677 -1.0052 -0.2780 -0.4188
 1346TIP3   OH225528   2.758   1.194   0.708 -0.1427 -0.2007 -0.1263
 1346TIP3    H125529   2.775   1.262   0.773 -0.3018 -1.8867  1.7523
 1346TIP3    H225530   2.703   1.131   0.754  2.2570 -2.9668 -0.8721
 1347TIP3   OH225531   2.498   4.236   4.444  0.3321  0.0950 -0.1580
 1347TIP3    H125532   2.434   4.173   4.478 -0.6808  1.5118  0.5835
 1347TIP3    H225533   2.583   4.198   4.468 -0.2735 -0.8216  0.5950
 1348TIP3   OH225534   6.220   0.372   5.967  0.7773  0.3929 -0.3879
 1348TIP3    H125535   6.164   0.342   5.896  0.2536 -1.5641  0.7922
 1348TIP3    H225536   6.166   0.362   6.046  2.6308 -1.2189  0.7312
 1349TIP3   OH225537   4.627   2.260   3.722 -0.2351 -0.4712 -0.1223
 1349TIP3    H125538   4.532   2.267   3.711 -0.2505  0.0272  0.3313
 1349TIP3    H225539   4.642   2.275   3.815  0.1513 -2.1027  0.0922
 1350TIP3   OH225540   5.535   2.785  14.502 -0.0141 -0.1262 -0.2059
 1350TIP3    H125541   5.477   2.710  14.488 -1.2172  0.4660  1.3794
 1350TIP3    H225542   5.490   2.859  14.459  1.4822 -0.4143 -2.3271
 1351TIP3   OH225543   2.845   2.423  12.489 -0.0190  0.2093 -0.1651
 1351TIP3    H125544   2.923   2.439  12.543 -0.7049 -0.2293  0.9828
 1351TIP3    H225545   2.860   2.337  12.450 -1.2857 -1.3008  2.5349
 1352TIP3   OH225546   5.958   6.514  15.038 -0.4879 -0.4639  0.7061
 1352TIP3    H125547   5.941   6.608  15.045 -0.0495 -0.4849  2.1164
 1352TIP3    H225548   5.978   6.486  15.127  0.6191 -1.6642  0.1005
 1353TIP3   OH225549   4.249   4.160  16.361  0.3320  0.1307  0.2082
 1353TIP3    H125550   4.206   4.121  16.437  0.7225  0.8418  0.7892
 1353TIP3    H225551   4.292   4.085  16.318 -0.1331 -0.3177  0.5167
 1354TIP3   OH225552   1.289   2.477  12.799 -0.3276  0.3288  0.2741
 1354TIP3    H125553   1.339   2.546  12.755  0.8321  0.0712  1.1526
 1354TIP3    H225554   1.256   2.423  12.727  0.4810  0.6404 -0.3479
 1355TIP3   OH225555   1.880   5.328  15.990 -0.6822  0.4145 -0.1854
 1355TIP3    H125556   1.897   5.396  15.925  3.1260 -0.9371 -0.7404
 1355TIP3    H225557   1.800   5.286  15.960 -1.8241  3.1436 -1.0971
 1356TIP3   OH225558   2.246   1.338   4.847  0.2488  0.3149  0.2882
 1356TIP3    H125559   2.237   1.347   4.753  1.9257  2.0680  0.2621
 1356TIP3    H225560   2.339   1.315   4.860  0.4403  1.7502  1.5958
 1357TIP3   OH225561   1.440   5.667   2.730  0.1143  0.2841 -0.3805
 1357TIP3    H125562   1.421   5.600   2.664 -0.2505 -0.6270  0.6405
 1357TIP3    H225563   1.356   5.682   2.774  0.4316  0.6305  0.1163
 1358TIP3   OH225564   6.573   0.678  12.707  0.0967 -0.6660 -0.3790
 1358TIP3    H125565   6.477   0.681  12.705  0.1207  0.0906 -0.6946
 1358TIP3    H225566   6.598   0.767  12.732  0.7356 -0.6411 -1.0943
 1359TIP3   OH225567   5.627   0.019   0.134 -0.5424  0.1154  0.3354
 1359TIP3    H125568   5.630  -0.004   0.042  2.4339  0.2278  0.3584
 1359TIP3    H225569   5.588   0.107   0.135  1.9884  1.3393 -1.1342
 1360TIP3   OH225570   3.303   1.925   1.491 -0.2262  0.1102  0.2140
 1360TIP3    H125571   3.378   1.985   1.494  0.5163 -0.8374  1.7661
 1360TIP3    H225572   3.342   1.841   1.465 -0.8965 -0.1772  0.1462
 1361TIP3   OH225573   3.683   1.691   2.055  0.1526 -0.3304 -1.0144
 1361TIP3    H125574   3.692   1.777   2.096  1.9299 -1.0743  0.2135
 1361TIP3    H225575   3.678   1.710   1.961  0.3500  1.1097 -0.7515
 1362TIP3   OH225576   6.145   2.926  15.884 -0.2059  0.5158 -0.5584
 1362TIP3    H125577   6.098   2.890  15.959  3.3647  1.3256  2.2506
 1362TIP3    H225578   6.169   2.850  15.831 -0.1135 -0.4177  0.7990
 1363TIP3   OH225579   1.549   0.443  10.905 -0.4737  0.5954  0.7764
 1363TIP3    H125580   1.538   0.407  10.817 -1.2280  2.0369  0.2453
 1363TIP3    H225581   1.490   0.391  10.960  0.9179 -1.1095  0.6801
 1364TIP3   OH225582   4.568   3.840  16.037 -0.5154  0.8517 -0.2182
 1364TIP3    H125583   4.558   3.821  15.944  0.8735  0.2067 -0.2359
 1364TIP3    H225584   4.519   3.770  16.081  0.6081 -0.0775 -0.4169
 1365TIP3   OH225585   5.287   1.520   6.776 -0.6974 -0.1107  0.0043
 1365TIP3    H125586   5.284   1.616   6.781 -0.6247 -0.1484  0.9329
 1365TIP3    H225587   5.202   1.495   6.740 -0.4758  0.3389 -0.8267
 1366TIP3   OH225588   6.631   0.923  12.775 -0.4361  0.1036 -0.1997
 1366TIP3    H125589   6.658   0.982  12.846 -0.7677 -0.4579  0.3991
 1366TIP3    H225590   6.566   0.973  12.726  0.1588  0.6849 -0.4222
 1367TIP3   OH225591   0.830   4.423   2.903 -0.1881 -0.0987 -0.3954
 1367TIP3    H125592   0.824   4.332   2.873  0.1362  0.1649 -1.2854
 1367TIP3    H225593   0.923   4.436   2.920 -0.3933 -0.2947  0.9023
 1368TIP3   OH225594   0.964   2.987  16.132  0.2413 -0.2410  0.1402
 1368TIP3    H125595   0.953   3.082  16.124  0.4442 -0.1984  0.3422
 1368TIP3    H225596   1.016   2.962  16.056  0.2458 -0.1805  0.1255
 1369TIP3   OH225597   2.669   2.232   0.510 -0.0020  0.1402 -0.5265
 1369TIP3    H125598   2.637   2.144   0.529  0.2244  0.1520 -0.0851
 1369TIP3    H225599   2.591   2.280   0.483 -0.4101  0.2250  0.7415
 1370TIP3   OH225600   5.724   4.562  16.777 -0.5434 -0.0011  0.5725
 1370TIP3    H125601   5.774   4.643  16.789 -1.5851  0.5707  1.1464
 1370TIP3    H225602   5.635   4.592  16.759 -1.2410 -1.0220  2.2209
 1371TIP3   OH225603   5.274   4.714   2.544 -0.7059  0.3118 -0.2799
 1371TIP3    H125604   5.261   4.656   2.469 -2.2320 -0.8527  0.8465
 1371TIP3    H225605   5.335   4.781   2.512 -1.5247  0.0035 -2.6301
 1372TIP3   OH225606   1.742   5.469  16.378  0.1733  0.0074 -0.1561
 1372TIP3    H125607   1.717   5.393  16.431  2.5998 -0.9186 -0.2893
 1372TIP3    H225608   1.662   5.521  16.372 -1.9282 -3.2166 -1.2249
 1373TIP3   OH225609   4.516   4.953  14.203  0.0314  0.0944 -0.0960
 1373TIP3    H125610   4.431   4.974  14.165  0.5745  0.5516 -1.0700
 1373TIP3    H225611   4.497   4.883  14.266 -1.0432  0.0904 -0.4114
 1374TIP3   OH225612   5.145   0.565  14.447 -0.5579 -0.1648  0.9002
 1374TIP3    H125613   5.142   0.498  14.379  0.1620  1.1394 -0.4191
 1374TIP3    H225614   5.108   0.521  14.525 -0.5333 -1.9313 -0.0613
 1375TIP3   OH225615   2.963   4.944  14.306 -0.2466  0.0601  0.3749
 1375TIP3    H125616   2.996   4.892  14.380  0.4682  1.4036  1.0381
 1375TIP3    H225617   2.892   4.892  14.269 -0.2756 -0.8713  1.7019
 1376TIP3   OH225618   5.351   0.646  12.387 -0.4713  0.3542  0.3316
 1376TIP3    H125619   5.359   0.709  12.458  0.0975  1.3077 -0.5574
 1376TIP3    H225620   5.262   0.612  12.394 -0.6125  0.8887  1.1221
 1377TIP3   OH225621   4.271   2.113  11.204  0.3968 -0.6398  0.1623
 1377TIP3    H125622   4.226   2.197  11.203 -0.3441 -0.9907  1.8901
 1377TIP3    H225623   4.203   2.049  11.185  0.7043 -0.9689  0.1565
 1378TIP3   OH225624   5.091   3.029  13.535 -0.6528 -0.5434 -0.1151
 1378TIP3    H125625   5.099   3.116  13.496 -3.1021 -0.7816 -1.2661
 1378TIP3    H225626   5.181   2.997  13.541  0.4126  2.5786  1.6328
 1379TIP3   OH225627   2.418   3.830  12.329 -0.1525  0.5969  0.2485
 1379TIP3    H125628   2.501   3.861  12.295 -0.0900 -0.3192 -0.4666
 1379TIP3    H225629   2.388   3.899  12.388  0.5618  1.4324 -0.3626
 1380TIP3   OH225630   1.936   1.238   3.164 -0.5857 -0.0234  0.1805
 1380TIP3    H125631   1.935   1.307   3.099 -2.1860  0.6874  0.9386
 1380TIP3    H225632   2.029   1.217   3.176 -0.1924  0.9894 -1.0926
 1381TIP3   OH225633   3.234   4.460  11.227  0.0416 -0.3088 -0.1805
 1381TIP3    H125634   3.288   4.537  11.247  1.5879 -0.9882 -1.6665
 1381TIP3    H225635   3.267   4.429  11.142 -2.5436 -0.8720 -1.0122
 1382TIP3   OH225636   0.562   0.556   6.708 -0.2354  0.3756  0.4698
 1382TIP3    H125637   0.516   0.625   6.756 -1.5199  0.1335 -0.3825
 1382TIP3    H225638   0.620   0.603   6.649  0.1132  0.6940  1.0535
 1383TIP3   OH225639   0.733   0.194   0.516  0.2589  0.1589 -0.0625
 1383TIP3    H125640   0.826   0.197   0.538  0.3265 -0.6183 -0.2400
 1383TIP3    H225641   0.722   0.112   0.468 -0.3389  0.6923 -0.8597
 1384TIP3   OH225642   0.781   2.193   2.131 -0.0518 -0.2778 -0.4008
 1384TIP3    H125643   0.729   2.133   2.185  3.2222 -1.4123  1.6615
 1384TIP3    H225644   0.795   2.145   2.049 -1.1869 -0.4350 -0.5196
 1385TIP3   OH225645   4.060   2.944  13.384  0.0140 -0.4053  0.4126
 1385TIP3    H125646   4.106   2.892  13.450  1.3661 -2.9866 -2.4333
 1385TIP3    H225647   4.007   2.880  13.336 -0.0016  1.1941 -1.7578
 1386TIP3   OH225648   3.502   3.053   4.149  0.3594  0.5742 -0.2989
 1386TIP3    H125649   3.519   3.140   4.112 -1.4361  1.3350  0.6078
 1386TIP3    H225650   3.406   3.048   4.155  0.5740  0.2040  3.6167
 1387TIP3   OH225651   6.783   2.521  15.290 -0.2067  0.6310  0.5630
 1387TIP3    H125652   6.739   2.438  15.271 -0.2382  0.5106  1.1634
 1387TIP3    H225653   6.761   2.577  15.216 -2.2594  0.9299  1.3679
 1388TIP3   OH225654   0.011   2.017  15.343  0.1736  0.1906  0.4973
 1388TIP3    H125655  -0.025   2.024  15.254 -1.4925  1.7939  1.2443
 1388TIP3    H225656   0.034   1.925  15.353 -2.9512 -0.7608 -0.3773
 1389TIP3   OH225657   1.906   6.561   3.249  0.6243  0.3354  0.0273
 1389TIP3    H125658   1.927   6.646   3.287 -0.3313  0.4258  0.3563
 1389TIP3    H225659   1.842   6.580   3.181  1.2813  0.0057 -0.6982
 1390TIP3   OH225660   2.745   6.307  13.920  0.2356 -0.4126  0.2839
 1390TIP3    H125661   2.823   6.346  13.881 -1.9619  2.8304 -1.0996
 1390TIP3    H225662   2.773   6.279  14.008  2.7742  1.2427  0.0478
 1391TIP3   OH225663   2.713   0.885   3.780 -0.1725 -0.6214  0.0034
 1391TIP3    H125664   2.631   0.835   3.773 -0.0004 -1.0572  1.0029
 1391TIP3    H225665   2.714   0.916   3.871  0.3855  0.0662 -0.2326
 1392TIP3   OH225666   0.281   0.684   4.380 -1.4622  0.0799  0.3262
 1392TIP3    H125667   0.245   0.659   4.295 -1.6313 -1.9014  0.9764
 1392TIP3    H225668   0.288   0.603   4.429 -0.7792  1.1197  2.0083
 1393TIP3   OH225669   4.736   4.413  17.136 -0.2813  0.1543 -0.3285
 1393TIP3    H125670   4.655   4.464  17.140  0.3441  1.1176  0.1783
 1393TIP3    H225671   4.785   4.440  17.214  0.1085 -1.1301 -0.1172
 1394TIP3   OH225672   0.463   0.506  17.119 -0.1818 -0.2059  0.3640
 1394TIP3    H125673   0.449   0.429  17.175 -1.5602  1.4192  2.3728
 1394TIP3    H225674   0.538   0.550  17.158  1.0405 -0.8791 -1.2010
 1395TIP3   OH225675   6.791   4.284  13.283 -0.3420  0.3742 -0.1917
 1395TIP3    H125676   6.722   4.262  13.221  0.7355  0.6074 -1.4895
 1395TIP3    H225677   6.752   4.353  13.338 -0.6189  1.6772 -1.9554
 1396TIP3   OH225678   3.698   5.777   1.423 -0.4549 -0.4689 -0.4980
 1396TIP3    H125679   3.666   5.859   1.461 -1.8640 -0.7629 -1.0218
 1396TIP3    H225680   3.646   5.765   1.344 -1.1891 -2.5280  0.2542
 1397TIP3   OH225681   4.314   3.843  12.631  0.4592 -0.2965  0.4776
 1397TIP3    H125682   4.268   3.863  12.712  0.5734  1.7313  0.0618
 1397TIP3    H225683   4.405   3.831  12.658  0.3435 -0.5147  0.7704
 1398TIP3   OH225684   2.664   4.605   5.439 -0.3462  0.2407 -0.0739
 1398TIP3    H125685   2.683   4.549   5.514 -0.9619  0.6053  0.3618
 1398TIP3    H225686   2.745   4.654   5.424 -0.5228  0.8517  0.9541
 1399TIP3   OH225687   1.485   4.422   4.077  0.3179  0.0003 -0.2632
 1399TIP3    H125688   1.440   4.338   4.089  0.1351 -0.1760 -2.0452
 1399TIP3    H225689   1.466   4.471   4.157  1.0612 -1.9304  1.1371
 1400TIP3   OH225690   3.409   6.687   3.834 -0.1809 -0.2373  0.0348
 1400TIP3    H125691   3.432   6.638   3.755  0.7479  0.1738  0.0472
 1400TIP3    H225692   3.463   6.648   3.903  1.9414  1.9783 -0.3024
 1401TIP3   OH225693   3.212   4.029  15.036 -0.1937  0.1972  0.3573
 1401TIP3    H125694   3.130   4.067  15.068 -0.2403  0.9154 -0.6347
 1401TIP3    H225695   3.205   4.030  14.941  0.1496 -1.5323  0.2794
 1402TIP3   OH225696   0.756   5.639   3.143 -0.5003 -0.0708  0.4169
 1402TIP3    H125697   0.677   5.591   3.168 -1.1050  1.0974  0.7867
 1402TIP3    H225698   0.747   5.723   3.187  1.0743 -0.0226  0.6652
 1403TIP3   OH225699   4.137   1.377  15.944 -0.1701  0.0844  0.0118
 1403TIP3    H125700   4.100   1.315  16.006  0.0150 -0.6466 -0.5979
 1403TIP3    H225701   4.071   1.445  15.935 -1.4671 -1.2848 -1.1837
 1404TIP3   OH225702   5.907   2.674  12.219  0.3094 -0.0599 -0.1595
 1404TIP3    H125703   5.905   2.639  12.308 -4.0336 -0.6663 -0.4031
 1404TIP3    H225704   5.874   2.763  12.227  0.3915  0.0643 -1.1073
 1405TIP3   OH225705   3.239   1.741   2.471 -0.1213  0.2536  0.2750
 1405TIP3    H125706   3.176   1.678   2.435 -0.7427  0.7594  0.4696
 1405TIP3    H225707   3.319   1.690   2.484 -0.4537 -0.3677 -0.0853
 1406TIP3   OH225708   2.526   0.658   4.463  0.0461  0.0630  0.0335
 1406TIP3    H125709   2.589   0.644   4.392 -1.2693 -2.9948 -0.5936
 1406TIP3    H225710   2.510   0.571   4.499 -1.7156  1.1611  2.0380
 1407TIP3   OH225711   3.839   6.179   4.210  0.3008  0.1829 -0.1880
 1407TIP3    H125712   3.913   6.134   4.252 -0.2397 -0.0823  0.4936
 1407TIP3    H225713   3.825   6.131   4.129 -0.4425 -1.0616  0.6551
 1408TIP3   OH225714   3.171   0.760  11.505 -0.5575 -0.4011  0.9493
 1408TIP3    H125715   3.085   0.794  11.531 -0.4096  1.4948 -0.9433
 1408TIP3    H225716   3.185   0.793  11.416  2.1693 -0.6022  1.2472
 1409TIP3   OH225717   4.685   5.002   6.131  0.3718  0.1987  0.0780
 1409TIP3    H125718   4.753   4.973   6.071  0.9659  0.7250  0.4929
 1409TIP3    H225719   4.707   4.961   6.215  0.0416  0.1806  0.1594
 1410TIP3   OH225720   6.436   6.440  13.104 -1.0021 -0.0505  0.1999
 1410TIP3    H125721   6.354   6.419  13.150 -1.1025 -1.4360 -0.6008
 1410TIP3    H225722   6.408   6.474  13.019 -0.7324 -1.4613 -0.4587
 1411TIP3   OH225723   5.055   4.257  14.480  0.7828 -0.0477 -0.1662
 1411TIP3    H125724   4.983   4.232  14.538 -0.2875  1.4813 -0.7960
 1411TIP3    H225725   5.124   4.193  14.498  0.2346  0.0115  2.3131
 1412TIP3   OH225726   6.272   4.127   4.990  0.0158 -0.2039  0.5792
 1412TIP3    H125727   6.234   4.186   5.055  1.8546  1.4828  0.1864
 1412TIP3    H225728   6.325   4.066   5.041  0.6826  0.5190  0.7810
 1413TIP3   OH225729   4.247   5.027  14.113  0.4618  0.3372  0.2926
 1413TIP3    H125730   4.179   4.965  14.140  1.7326 -1.5988 -0.8631
 1413TIP3    H225731   4.199   5.098  14.071 -1.0154  0.1261  1.5567
 1414TIP3   OH225732   3.904   2.779   5.012  0.1667  0.0772  0.1670
 1414TIP3    H125733   3.892   2.843   5.082 -1.7350 -0.4790  0.3787
 1414TIP3    H225734   3.907   2.694   5.056 -2.4157 -0.4069 -0.4605
 1415TIP3   OH225735   4.162   0.365   3.605  0.4139  0.1505 -0.0112
 1415TIP3    H125736   4.164   0.460   3.601  1.7216  0.1327 -0.2674
 1415TIP3    H225737   4.142   0.344   3.696 -0.4236  0.6693 -0.0774
 1416TIP3   OH225738   6.330   1.426   5.077  0.6474 -0.6139 -0.2750
 1416TIP3    H125739   6.295   1.340   5.052 -2.8536 -0.8230  4.4644
 1416TIP3    H225740   6.400   1.406   5.139  0.9778 -0.1037 -0.4883
 1417TIP3   OH225741   3.412   2.623  13.754  0.1836  0.9631 -0.0308
 1417TIP3    H125742   3.399   2.714  13.728  1.7340  0.6515 -2.0102
 1417TIP3    H225743   3.346   2.574  13.703 -1.0240  1.0071  1.4468
 1418TIP3   OH225744   1.209   5.551   1.469  0.0789  0.3062  0.5327
 1418TIP3    H125745   1.198   5.555   1.564 -0.8051  0.6460  0.4233
 1418TIP3    H225746   1.252   5.633   1.445  0.6662  0.0433  0.6849
 1419TIP3   OH225747   6.023   3.727  15.651 -0.4926  0.2813 -0.4947
 1419TIP3    H125748   6.059   3.673  15.580 -0.4091  1.0958 -1.0868
 1419TIP3    H225749   6.043   3.817  15.624 -1.5106  0.6579 -0.0122
 1420TIP3   OH225750   0.823   1.555   0.519  0.4026 -0.5630  0.4584
 1420TIP3    H125751   0.913   1.579   0.543  0.2625  1.0712 -0.5877
 1420TIP3    H225752   0.772   1.569   0.599  0.6213  1.0381  0.3164
 1421TIP3   OH225753   0.545   2.106  16.467  0.5322  0.0548  0.4719
 1421TIP3    H125754   0.500   2.190  16.475 -0.5006 -0.2402 -1.9082
 1421TIP3    H225755   0.621   2.114  16.526  0.9402  2.9703 -0.3538
 1422TIP3   OH225756   0.875   3.149   4.027  0.2603  0.2385  0.2182
 1422TIP3    H125757   0.784   3.177   4.018 -0.2836 -0.9877  1.6296
 1422TIP3    H225758   0.926   3.216   3.981 -1.3202  1.1396 -0.2492
 1423TIP3   OH225759   3.737   4.538  13.888  0.4568 -0.3105  0.2234
 1423TIP3    H125760   3.725   4.491  13.806  0.5416 -1.9711  1.1465
 1423TIP3    H225761   3.831   4.553  13.894  0.7133 -2.1810  1.0902
 1424TIP3   OH225762   6.179   4.440  14.389  0.0605  0.2083 -0.8269
 1424TIP3    H125763   6.166   4.526  14.349  0.4554  0.4138 -0.5086
 1424TIP3    H225764   6.266   4.413  14.360  0.9855  1.0205  1.1243
 1425TIP3   OH225765   6.135   6.706  15.490  0.0339  0.2485  0.6309
 1425TIP3    H125766   6.203   6.751  15.439 -0.2567  0.2840  0.2752
 1425TIP3    H225767   6.164   6.715  15.581  0.2534  0.6999  0.5218
 1426TIP3   OH225768   0.719   5.603  13.121  0.2001 -0.0015 -0.7971
 1426TIP3    H125769   0.793   5.647  13.162  0.6946  0.3218 -2.0119
 1426TIP3    H225770   0.657   5.589  13.192  0.8537  0.9319 -0.0344
 1427TIP3   OH225771   6.136   2.454   6.571  0.6365 -0.4262 -0.2325
 1427TIP3    H125772   6.083   2.512   6.625  0.4555 -0.6181 -0.2047
 1427TIP3    H225773   6.087   2.372   6.567 -0.4999  0.3333 -2.6454
 1428TIP3   OH225774   5.216   2.165  14.450  0.5146 -0.1798  0.2122
 1428TIP3    H125775   5.277   2.093  14.468  0.0592 -0.1255  2.0450
 1428TIP3    H225776   5.165   2.134  14.375  0.5921 -1.5987  0.7240
 1429TIP3   OH225777   5.682   2.928   1.894 -0.1100 -0.0793  0.3489
 1429TIP3    H125778   5.612   2.863   1.880  0.2288 -0.5173  0.6608
 1429TIP3    H225779   5.753   2.899   1.837  0.0308  0.0381  0.4672
 1430TIP3   OH225780   6.058   4.456  14.662 -0.4751  0.6880 -0.5288
 1430TIP3    H125781   6.115   4.453  14.586 -0.9517 -0.0340 -0.8655
 1430TIP3    H225782   6.053   4.548  14.686  2.2256  0.6056  0.5650
 1431TIP3   OH225783   5.833   1.045  16.343 -0.5126  0.3978 -0.1838
 1431TIP3    H125784   5.836   0.962  16.295  0.7606  0.5129 -0.3168
 1431TIP3    H225785   5.739   1.061  16.357 -0.7397 -1.5032  0.6343
 1432TIP3   OH225786   5.799   3.505  12.543  0.2085  0.6515  0.6184
 1432TIP3    H125787   5.751   3.587  12.537  0.1781  0.5514 -0.7367
 1432TIP3    H225788   5.753   3.454  12.610 -1.3014  0.7403 -0.3431
 1433TIP3   OH225789   0.637   3.339   0.200 -0.1001 -0.3175 -0.6218
 1433TIP3    H125790   0.695   3.310   0.270 -0.1569  0.3988 -0.2699
 1433TIP3    H225791   0.668   3.427   0.179  1.7106 -1.5626 -3.4440
 1434TIP3   OH225792   5.423   6.695  10.805  0.3285 -0.0970 -0.0491
 1434TIP3    H125793   5.336   6.676  10.840 -0.4013  1.1149 -1.1788
 1434TIP3    H225794   5.465   6.749  10.872  0.4054 -1.0829  0.7123
 1435TIP3   OH225795   1.987   5.816  13.805 -0.3405  0.1522  0.4191
 1435TIP3    H125796   1.978   5.782  13.894  1.3020  0.0152  0.5492
 1435TIP3    H225797   1.905   5.862  13.788 -1.4738 -1.5155  1.2677
 1436TIP3   OH225798   3.296   0.213  12.843  0.8256 -0.1217  0.0478
 1436TIP3    H125799   3.358   0.283  12.864  1.2033 -0.8343  1.3433
 1436TIP3    H225800   3.350   0.134  12.837  0.0530 -0.7384  1.1397
 1437TIP3   OH225801   2.002   4.481  16.447  0.3094 -0.2370  0.2644
 1437TIP3    H125802   2.026   4.570  16.471 -0.8190  0.0572  0.3360
 1437TIP3    H225803   2.079   4.428  16.470  0.9485  0.6965  0.3030
 1438TIP3   OH225804   5.327   0.363  17.160 -0.2833  0.1589  0.1538
 1438TIP3    H125805   5.254   0.382  17.102 -0.2373  0.4363  0.1884
 1438TIP3    H225806   5.287   0.324  17.238 -0.5267  1.7194  0.8140
 1439TIP3   OH225807   0.955   5.894  11.770  0.2515 -0.2423  0.0094
 1439TIP3    H125808   0.979   5.975  11.814 -0.9989  0.4459 -0.5271
 1439TIP3    H225809   0.908   5.923  11.691 -0.1934 -1.4798 -0.1876
 1440TIP3   OH225810   3.459   1.806  15.706  0.1824 -0.3148 -0.5984
 1440TIP3    H125811   3.500   1.724  15.677  1.4236  0.1839 -0.3054
 1440TIP3    H225812   3.441   1.793  15.799 -0.7632 -0.7023 -0.8313
 1441TIP3   OH225813   3.266   4.463  15.994 -0.6245 -0.4677  0.5249
 1441TIP3    H125814   3.294   4.497  16.079 -0.6025  0.1521  0.2698
 1441TIP3    H225815   3.243   4.371  16.011 -1.3562 -0.1405  1.3650
 1442TIP3   OH225816   2.723   1.471  15.476  0.3605  0.3885  0.3979
 1442TIP3    H125817   2.701   1.503  15.564  2.6330  1.8608  0.4615
 1442TIP3    H225818   2.645   1.489  15.424 -0.4856  0.8215  1.7760
 1443TIP3   OH225819   3.843   4.637  11.640  0.0679 -0.0262  0.1932
 1443TIP3    H125820   3.782   4.696  11.596 -0.2430  1.3351  2.3302
 1443TIP3    H225821   3.868   4.684  11.720  0.9488 -2.1881  1.2395
 1444TIP3   OH225822   4.533   0.570  17.079  0.4603 -0.3534  0.5372
 1444TIP3    H125823   4.596   0.640  17.098 -0.0165  0.2518 -0.0959
 1444TIP3    H225824   4.447   0.613  17.083  0.2338 -0.6519 -0.9613
 1445TIP3   OH225825   0.253   0.084   1.325  0.3141 -0.3804 -0.1679
 1445TIP3    H125826   0.220   0.048   1.407 -1.5569  0.1162 -0.6776
 1445TIP3    H225827   0.320   0.021   1.297  0.4432 -0.9452  1.3441
 1446TIP3   OH225828   2.134   2.924  13.989 -0.2227 -0.1735 -0.1411
 1446TIP3    H125829   2.222   2.959  14.000 -0.4415  0.5514 -0.6374
 1446TIP3    H225830   2.126   2.857  14.057  1.7141 -2.2914 -1.9376
 1447TIP3   OH225831   3.184   6.003  10.910 -0.8315 -0.3029  0.3223
 1447TIP3    H125832   3.096   6.041  10.907 -0.5480  0.2502 -1.3146
 1447TIP3    H225833   3.178   5.924  10.858 -0.5719 -0.7622  0.9799
 1448TIP3   OH225834   1.757   6.671   0.274  0.1858  0.1812 -0.1119
 1448TIP3    H125835   1.695   6.694   0.344  0.9730  0.5495  0.4737
 1448TIP3    H225836   1.782   6.581   0.294  1.7544  0.8666  1.1102
 1449TIP3   OH225837   4.645   0.607   2.609 -0.2004  0.1699 -0.0290
 1449TIP3    H125838   4.550   0.609   2.596 -0.6270  1.2553  2.7954
 1449TIP3    H225839   4.681   0.640   2.527 -2.2700 -0.1993 -1.1182
 1450TIP3   OH225840   6.065   4.142   6.082 -0.7612  0.7918  0.6425
 1450TIP3    H125841   6.014   4.220   6.102 -0.9784  1.3737 -1.9714
 1450TIP3    H225842   6.030   4.111   5.998  1.5879 -0.1553 -0.0284
 1451TIP3   OH225843   0.262   3.359   1.543  0.4478 -0.1359  0.7247
 1451TIP3    H125844   0.285   3.270   1.516 -0.8258 -0.6580  1.3297
 1451TIP3    H225845   0.169   3.354   1.564  0.5284  1.1830  1.4171
 1452TIP3   OH225846   2.949   0.289  15.015 -0.4796 -0.4428  0.5892
 1452TIP3    H125847   2.885   0.218  15.010 -0.9438 -0.0353  0.6520
 1452TIP3    H225848   2.898   0.364  15.048  0.2803 -0.4140  1.7240
 1453TIP3   OH225849   3.067   4.251  16.910 -0.0315  0.5636 -0.2038
 1453TIP3    H125850   3.127   4.317  16.877  0.2151  1.4018  1.8481
 1453TIP3    H225851   3.094   4.237  17.001 -2.5273  0.4812  0.5597
 1454TIP3   OH225852   3.070   2.152  14.395 -0.6666  1.2160  0.0240
 1454TIP3    H125853   3.000   2.109  14.443  1.1494 -2.4949 -0.4756
 1454TIP3    H225854   3.150   2.127  14.442  0.5414  3.5664 -0.6842
 1455TIP3   OH225855   3.670   4.088   5.786  0.1066 -0.2419  0.1187
 1455TIP3    H125856   3.633   4.020   5.729  0.8717 -2.3524  2.0589
 1455TIP3    H225857   3.612   4.089   5.862  0.1626  1.2554  0.1565
 1456TIP3   OH225858   6.340   5.061   3.524 -0.2835 -0.8174  0.1634
 1456TIP3    H125859   6.249   5.035   3.538  0.3511 -2.3275  1.6969
 1456TIP3    H225860   6.375   4.996   3.463  0.3988 -1.6749  1.4356
 1457TIP3   OH225861   0.407   4.218  12.573  0.3251 -0.2965 -0.2059
 1457TIP3    H125862   0.459   4.140  12.593 -0.3101 -0.3009  1.5492
 1457TIP3    H225863   0.370   4.201  12.487  2.3488 -0.7552 -1.0028
 1458TIP3   OH225864   2.868   0.620  12.516 -0.3842  0.7062 -0.6145
 1458TIP3    H125865   2.831   0.543  12.472  1.4435  0.1834 -1.3310
 1458TIP3    H225866   2.955   0.629  12.477 -0.2801  2.6864  0.0280
 1459TIP3   OH225867   5.980   4.742  16.914  0.0009 -0.2379 -0.7063
 1459TIP3    H125868   5.957   4.835  16.910 -0.3512 -0.3851 -2.3245
 1459TIP3    H225869   6.025   4.724  16.832  0.3777 -1.4252 -0.2594
 1460TIP3   OH225870   0.475   1.694  16.042  0.2545  0.5245 -0.0046
 1460TIP3    H125871   0.420   1.693  16.120  0.0023  2.2869 -0.1416
 1460TIP3    H225872   0.431   1.634  15.981 -0.4397  0.4168  0.5913
 1461TIP3   OH225873   1.546   5.886   0.767  0.2364 -0.6557 -0.0543
 1461TIP3    H125874   1.545   5.953   0.699  0.2562 -1.7284 -1.1441
 1461TIP3    H225875   1.545   5.934   0.849 -0.6727  0.6438 -0.8216
 1462TIP3   OH225876   1.431   2.191   1.841  0.2039 -0.1191 -0.0121
 1462TIP3    H125877   1.464   2.224   1.757  0.0073 -0.3258 -0.1711
 1462TIP3    H225878   1.502   2.207   1.903  0.4916 -0.3000 -0.2952
 1463TIP3   OH225879   3.505   2.331  15.254  0.1144  0.4049 -0.1361
 1463TIP3    H125880   3.482   2.238  15.252 -0.7008  0.5808  0.9174
 1463TIP3    H225881   3.555   2.342  15.335 -1.3991  1.2408  0.7107
 1464TIP3   OH225882   0.681   0.776   0.949 -0.4966 -0.0813 -0.2396
 1464TIP3    H125883   0.709   0.775   0.857 -1.4362 -0.7212 -0.5145
 1464TIP3    H225884   0.746   0.832   0.992  0.8214 -0.9759 -1.0062
 1465TIP3   OH225885   3.029   2.310   6.769  0.3125 -0.1502 -0.4935
 1465TIP3    H125886   3.096   2.243   6.754  1.0033  0.3740  0.1656
 1465TIP3    H225887   3.047   2.377   6.704  0.8359  0.2804  0.0788
 1466TIP3   OH225888   1.422   4.024   3.449 -0.1185 -0.6727  0.2645
 1466TIP3    H125889   1.388   4.010   3.360  0.2283 -0.8025  0.1514
 1466TIP3    H225890   1.436   3.935   3.483 -2.3310 -0.6696  1.2574
 1467TIP3   OH225891   0.137   1.775   3.855 -0.5253  0.0296 -0.1717
 1467TIP3    H125892   0.206   1.809   3.911 -0.6171 -0.4500  0.2295
 1467TIP3    H225893   0.155   1.813   3.769 -0.5032  0.9258  0.2264
 1468TIP3   OH225894   6.111   3.681  13.937 -0.0672 -0.1568  0.0421
 1468TIP3    H125895   6.180   3.693  14.003  0.9488  1.4225 -1.2713
 1468TIP3    H225896   6.116   3.760  13.883 -2.4983 -0.3158 -0.4692
 1469TIP3   OH225897   2.675   4.651   3.307  0.4150  0.5763  0.3841
 1469TIP3    H125898   2.694   4.739   3.275 -0.8922  1.3259  1.6013
 1469TIP3    H225899   2.751   4.628   3.360  0.8645  0.8815 -0.1240
 1470TIP3   OH225900   2.154   0.624  15.587 -0.0477 -0.5150  0.7569
 1470TIP3    H125901   2.093   0.597  15.518  0.4518 -0.3085  0.2316
 1470TIP3    H225902   2.241   0.609  15.549  0.2252 -0.3293  1.3145
 1471TIP3   OH225903   0.722   6.664  11.919  0.1396 -0.9216  0.1598
 1471TIP3    H125904   0.654   6.715  11.875  1.3130 -0.2266 -0.8920
 1471TIP3    H225905   0.713   6.688  12.011 -1.1293 -0.9551  0.0559
 1472TIP3   OH225906   5.680   1.496   3.308  0.7281 -0.3297 -0.1060
 1472TIP3    H125907   5.728   1.578   3.304  1.5699 -0.8348 -0.8082
 1472TIP3    H225908   5.691   1.465   3.398 -1.1402  1.2099  0.6821
 1473TIP3   OH225909   0.314   0.431   5.816 -0.6221  0.1209 -0.6028
 1473TIP3    H125910   0.349   0.481   5.743 -1.9527  0.7866 -0.8088
 1473TIP3    H225911   0.219   0.437   5.805 -0.8449  0.4823  1.3283
 1474TIP3   OH225912   3.861   1.870  16.073  0.3697 -0.3763  0.0204
 1474TIP3    H125913   3.782   1.845  16.026  0.2355  4.9629 -3.1074
 1474TIP3    H225914   3.832   1.937  16.136  2.1864  1.0169 -0.5480
 1475TIP3   OH225915   3.978   2.883   1.784  0.0723 -0.3499  0.6348
 1475TIP3    H125916   3.898   2.935   1.778  0.8896  0.9467  0.8453
 1475TIP3    H225917   3.996   2.879   1.878  0.4897 -0.3010  0.5542
 1476TIP3   OH225918   5.269   6.371   2.332  0.4298 -0.1453 -0.0185
 1476TIP3    H125919   5.348   6.320   2.314  0.0558 -0.8186  0.2481
 1476TIP3    H225920   5.221   6.369   2.249  0.5848  0.0827 -0.1157
 1477TIP3   OH225921   3.756   4.058  14.611 -0.0913  0.2397  0.3055
 1477TIP3    H125922   3.849   4.061  14.589 -0.2483 -0.5942 -0.4963
 1477TIP3    H225923   3.747   4.120  14.684  0.6363  2.0989 -1.1426
 1478TIP3   OH225924   4.102   0.015  16.605 -0.5380  0.5731  0.0245
 1478TIP3    H125925   4.173  -0.042  16.576  0.9398  1.7085  1.3048
 1478TIP3    H225926   4.028  -0.008  16.549  0.8101 -0.6944 -1.2819
 1479TIP3   OH225927   3.855   3.280   6.257  0.8395  0.1450  0.1123
 1479TIP3    H125928   3.923   3.268   6.323 -0.6674 -0.2626  1.6102
 1479TIP3    H225929   3.853   3.196   6.209  1.0980  0.0050  0.3460
 1480TIP3   OH225930   1.760   0.427  11.418 -0.2013  0.5136 -0.1909
 1480TIP3    H125931   1.752   0.438  11.324  0.0324  2.3124 -0.0104
 1480TIP3    H225932   1.808   0.344  11.429 -0.8930 -0.0841 -1.6195
 1481TIP3   OH225933   3.488   2.515   3.878 -0.1160  0.1748  0.3106
 1481TIP3    H125934   3.494   2.471   3.962 -1.1754  0.6643  0.6573
 1481TIP3    H225935   3.461   2.605   3.900  0.1357  0.4527 -0.5041
 1482TIP3   OH225936   5.698   2.111   2.109  0.1697 -0.0202  0.3585
 1482TIP3    H125937   5.647   2.064   2.175  2.0928 -1.5148  0.8346
 1482TIP3    H225938   5.777   2.139   2.156  1.1630 -0.3432 -1.0868
 1483TIP3   OH225939   0.706   4.940   1.406 -0.2319  0.1429  0.3238
 1483TIP3    H125940   0.756   4.930   1.325 -1.2637  0.8427 -0.4131
 1483TIP3    H225941   0.734   5.024   1.441 -0.3723  0.2061  0.2834
 1484TIP3   OH225942   6.636   4.844  12.130  0.0812  0.4550  0.1881
 1484TIP3    H125943   6.647   4.751  12.111 -0.9237  0.2290  0.6561
 1484TIP3    H225944   6.717   4.869  12.173  0.5370 -0.1005 -0.3359
 1485TIP3   OH225945   1.031   4.908  14.153  0.2506 -0.0080 -0.6940
 1485TIP3    H125946   1.100   4.846  14.130  1.1357 -0.2379  2.3553
 1485TIP3    H225947   0.954   4.853  14.171  0.9393 -0.2447  1.6674
 1486TIP3   OH225948   6.721   5.800  14.770  0.0815 -0.1070 -0.0081
 1486TIP3    H125949   6.814   5.811  14.787  0.1228  0.4175 -0.5341
 1486TIP3    H225950   6.685   5.889  14.775 -0.1188 -0.1021 -1.3016
 1487TIP3   OH225951   5.290   1.469   5.949 -0.1961  0.1977  0.5039
 1487TIP3    H125952   5.214   1.491   5.894 -0.1543 -0.5785  0.1257
 1487TIP3    H225953   5.360   1.450   5.887  0.4363  1.3398  0.8630
 1488TIP3   OH225954   0.501   5.093   1.264  0.4605 -0.0006 -0.1695
 1488TIP3    H125955   0.562   5.050   1.325  0.8079 -1.5912 -1.5825
 1488TIP3    H225956   0.416   5.087   1.307  1.4271  3.2350  2.3324
 1489TIP3   OH225957   0.854   5.583  16.301 -0.1270  0.1350  0.0873
 1489TIP3    H125958   0.866   5.498  16.259 -1.5690 -0.5528  1.0041
 1489TIP3    H225959   0.910   5.580  16.378 -1.3385 -0.6229  0.9671
 1490TIP3   OH225960   3.660   5.407  12.121 -0.2908  0.2625 -0.1550
 1490TIP3    H125961   3.567   5.421  12.137 -0.0348  1.7256  0.1630
 1490TIP3    H225962   3.702   5.487  12.154  1.0942 -0.4912 -0.0580
 1491TIP3   OH225963   5.698   0.972   3.212 -0.4572 -0.5529 -0.1334
 1491TIP3    H125964   5.741   0.930   3.137  0.2236 -0.7647  0.3683
 1491TIP3    H225965   5.667   1.055   3.177 -0.1053 -0.6266 -0.6458
 1492TIP3   OH225966   1.070   1.198   1.890  0.0384 -0.1191  0.0109
 1492TIP3    H125967   0.995   1.142   1.867  0.5150 -0.0269 -1.8388
 1492TIP3    H225968   1.031   1.270   1.940 -1.0838 -0.2157 -0.6920
 1493TIP3   OH225969   6.383   1.060  13.845  0.1013 -0.3819  0.3334
 1493TIP3    H125970   6.320   1.101  13.905 -0.2399  0.8558 -0.8402
 1493TIP3    H225971   6.459   1.042  13.899 -0.4430  0.1321  1.2929
 1494TIP3   OH225972   3.575   3.046  11.297  0.1750  0.0541  0.4575
 1494TIP3    H125973   3.595   2.986  11.369  1.1403 -0.3779 -0.1673
 1494TIP3    H225974   3.646   3.033  11.234  0.7791  2.3338  0.6183
 1495TIP3   OH225975   6.337   2.542  11.784 -0.2426  0.1628  0.6878
 1495TIP3    H125976   6.363   2.459  11.742  1.0159  0.1384  1.5048
 1495TIP3    H225977   6.289   2.588  11.716 -0.4769 -1.0063  0.0368
 1496TIP3   OH225978   5.984   4.373   0.091 -0.0812  0.1052  0.5660
 1496TIP3    H125979   5.951   4.301   0.038  1.7949 -0.6635  0.3923
 1496TIP3    H225980   6.079   4.358   0.096  0.4098  2.7630  0.1984
 1497TIP3   OH225981   2.994   0.117   3.000  0.6655  0.5414 -0.6431
 1497TIP3    H125982   3.085   0.131   2.974  1.3782  0.0618  1.5172
 1497TIP3    H225983   2.989   0.023   3.018 -0.4037  0.4756 -1.2667
 1498TIP3   OH225984   6.445   6.088  13.185 -0.1006 -0.7673  0.0706
 1498TIP3    H125985   6.385   6.100  13.258  2.8798 -0.8506  2.6218
 1498TIP3    H225986   6.513   6.029  13.218  0.9538 -1.3703 -2.9828
 1499TIP3   OH225987   2.427   2.405  11.822  0.9582 -0.1063  0.0231
 1499TIP3    H125988   2.361   2.439  11.762  1.6671  0.4683 -0.4344
 1499TIP3    H225989   2.384   2.405  11.908 -0.6206 -2.4806 -0.7185
 1500TIP3   OH225990   2.288   3.047  11.266  0.2445  0.5526  0.1823
 1500TIP3    H125991   2.333   3.063  11.183  1.7747 -1.5327  0.5886
 1500TIP3    H225992   2.317   3.118  11.323  0.3467  1.1450 -0.5965
 1501TIP3   OH225993   2.153   3.096   2.416  0.5009 -0.0848 -0.0118
 1501TIP3    H125994   2.231   3.042   2.403  1.0944  1.1991 -1.8704
 1501TIP3    H225995   2.147   3.107   2.511  2.3686 -0.5099  0.1643
 1502TIP3   OH225996   1.444   6.271   1.845 -0.2217  0.6771 -0.3582
 1502TIP3    H125997   1.370   6.210   1.838  1.6821 -1.7139 -0.3716
 1502TIP3    H225998   1.441   6.322   1.764 -2.4570  1.3139  0.1052
 1503TIP3   OH225999   5.633   5.279  15.279 -0.2743  0.0753  0.4014
 1503TIP3    H126000   5.615   5.366  15.242 -1.0380  0.1048  0.8416
 1503TIP3    H226001   5.728   5.276  15.287 -0.0388 -0.1550 -2.1248
 1504TIP3   OH226002   4.780   1.782  14.951  0.7455  0.4157  0.2801
 1504TIP3    H126003   4.771   1.703  15.005  0.9372  0.3461  0.2097
 1504TIP3    H226004   4.764   1.752  14.862  0.1768  0.5788  0.3209
 1505TIP3   OH226005   5.752   5.294   6.295 -0.3287  0.3756 -0.2600
 1505TIP3    H126006   5.846   5.288   6.279 -0.0443 -0.2981  1.5444
 1505TIP3    H226007   5.744   5.341   6.378 -1.5782  0.5183 -0.4430
 1506TIP3   OH226008   6.081   5.739   2.415 -0.5096 -0.0948 -0.2779
 1506TIP3    H126009   6.105   5.668   2.355  1.2151 -1.2468  1.6839
 1506TIP3    H226010   6.067   5.694   2.499  0.0874  1.8204  0.8662
 1507TIP3   OH226011   0.116   5.064  12.545  0.7271 -0.5565 -0.2243
 1507TIP3    H126012   0.032   5.110  12.539  0.7384 -0.5973 -0.7445
 1507TIP3    H226013   0.172   5.122  12.596  0.8950  0.2480 -1.2948
 1508TIP3   OH226014   3.513   1.470  15.012 -0.1587 -0.2801  0.1946
 1508TIP3    H126015   3.491   1.558  15.043  0.7794  0.1433 -0.3223
 1508TIP3    H226016   3.460   1.412  15.067  0.8566  0.4991  2.0649
 1509TIP3   OH226017   2.784   4.435  11.083  0.1488  0.3626 -0.0319
 1509TIP3    H126018   2.704   4.472  11.046 -0.3410  2.4987  2.9754
 1509TIP3    H226019   2.758   4.351  11.120 -0.5232  0.6607  0.1796
 1510TIP3   OH226020   5.629   5.497   4.155  0.7910 -0.1138 -0.4319
 1510TIP3    H126021   5.641   5.591   4.142 -0.6633 -0.0078 -1.1279
 1510TIP3    H226022   5.706   5.469   4.203  1.4579  1.3569 -0.6296
 1511TIP3   OH226023   5.685   6.296   2.812 -0.2175  0.3218 -1.2528
 1511TIP3    H126024   5.682   6.202   2.794  1.4392 -0.1889  0.9262
 1511TIP3    H226025   5.595   6.319   2.834  0.0542 -1.5966  2.0790
 1512TIP3   OH226026   4.284   2.001  12.463  0.3351  0.0691 -0.0025
 1512TIP3    H126027   4.225   2.072  12.437  0.6137  0.3067  0.0106
 1512TIP3    H226028   4.339   2.039  12.531  0.8087 -0.0141 -0.3362
 1513TIP3   OH226029   3.563   4.093  14.995 -0.1760 -0.2776  0.3982
 1513TIP3    H126030   3.542   4.014  14.945  0.8300 -0.1721 -0.2040
 1513TIP3    H226031   3.646   4.124  14.958  0.0706  0.3671  1.4636
 1514TIP3   OH226032   1.757   3.961  14.522  0.5135 -0.1321  0.5893
 1514TIP3    H126033   1.841   3.949  14.566 -0.2377 -2.4702  1.4463
 1514TIP3    H226034   1.739   4.055  14.531  2.2396  0.1167  1.8260
 1515TIP3   OH226035   5.513   2.245   0.560 -0.4782  0.3558 -0.0117
 1515TIP3    H126036   5.511   2.224   0.466 -1.4310  1.8603 -0.3389
 1515TIP3    H226037   5.568   2.323   0.565  1.4017 -0.9899  0.9618
 1516TIP3   OH226038   6.548   3.581   1.776 -0.1467  0.0369 -0.1067
 1516TIP3    H126039   6.457   3.552   1.782  0.2508 -1.1478  0.3075
 1516TIP3    H226040   6.553   3.656   1.835 -1.3992  1.5453 -1.8481
 1517TIP3   OH226041   2.491   4.056   1.625 -0.9160 -0.2955 -0.3649
 1517TIP3    H126042   2.451   4.055   1.538 -1.5677 -1.6455 -0.0596
 1517TIP3    H226043   2.582   4.082   1.610 -1.8674  2.8594 -1.0752
 1518TIP3   OH226044   1.206   2.893  14.875  0.1571  0.2131 -0.5152
 1518TIP3    H126045   1.252   2.892  14.791 -0.0824  1.2841 -0.6589
 1518TIP3    H226046   1.113   2.885  14.852 -0.1686  3.5836 -0.5475
 1519TIP3   OH226047   0.348   1.713   4.250 -0.6826 -0.6497  0.1488
 1519TIP3    H126048   0.291   1.727   4.325  2.0923  0.3883  2.1594
 1519TIP3    H226049   0.399   1.635   4.273  1.5603  0.8137  0.2569
 1520TIP3   OH226050   2.016   2.286  14.421 -0.1229 -0.0370 -0.3444
 1520TIP3    H126051   2.068   2.232  14.481  1.2310  1.0103 -0.5716
 1520TIP3    H226052   1.979   2.355  14.476  0.0031  0.1326 -0.4735
 1521TIP3   OH226053   2.006   3.494  10.469  0.1833 -0.2400  0.2209
 1521TIP3    H126054   2.007   3.584  10.501  0.8116 -0.5556  1.0930
 1521TIP3    H226055   2.072   3.494  10.399  1.7093 -0.5226  1.6282
 1522TIP3   OH226056   5.500   4.808   6.071 -0.2806 -0.3779  0.2839
 1522TIP3    H126057   5.496   4.713   6.057 -0.4148 -0.1880 -0.9788
 1522TIP3    H226058   5.562   4.840   6.006  2.0903  0.0576  2.6587
 1523TIP3   OH226059   6.189   2.743  14.767  0.0012  0.3750  0.7242
 1523TIP3    H126060   6.107   2.772  14.727 -0.8108 -1.8610  0.6953
 1523TIP3    H226061   6.253   2.746  14.696 -0.4980  0.3193  0.2711
 1524TIP3   OH226062   0.780   1.898  12.944 -0.5337  0.2373 -0.5650
 1524TIP3    H126063   0.837   1.963  12.903  1.0031 -0.7844 -0.1092
 1524TIP3    H226064   0.792   1.819  12.891 -0.0381 -0.5214  0.6422
 1525TIP3   OH226065   2.990   4.027   5.871  0.0962 -0.0534  0.0930
 1525TIP3    H126066   2.979   4.080   5.949  0.2473 -0.5119  0.4272
 1525TIP3    H226067   3.067   4.063   5.827 -0.8794  1.1904 -0.6506
 1526TIP3   OH226068   1.748   3.820   2.941 -0.6337  0.1754 -0.1271
 1526TIP3    H126069   1.768   3.747   2.883 -0.1110  2.2324 -2.6177
 1526TIP3    H226070   1.652   3.821   2.947 -0.6251 -0.9494  0.2773
 1527TIP3   OH226071   4.361   4.909  11.169  0.0529 -0.0931 -0.0938
 1527TIP3    H126072   4.372   5.004  11.168 -0.5791 -0.0103  0.6309
 1527TIP3    H226073   4.295   4.893  11.236  0.1795 -1.0473 -0.1888
 1528TIP3   OH226074   2.939   4.904  15.317 -0.1321 -0.5391  0.2429
 1528TIP3    H126075   2.966   4.877  15.229  0.6267 -1.1785  0.6593
 1528TIP3    H226076   3.004   4.969  15.343  1.3752 -2.4570  1.4536
 1529TIP3   OH226077   5.442   1.671  13.179  0.4229 -0.2942 -0.2824
 1529TIP3    H126078   5.509   1.688  13.245  0.4848 -0.5892 -0.2648
 1529TIP3    H226079   5.476   1.711  13.099  0.7545 -0.6871 -0.3413
 1530TIP3   OH226080   1.803   2.308  12.164 -0.0633  0.0556  0.2779
 1530TIP3    H126081   1.820   2.300  12.258 -0.4019  0.0305  0.3371
 1530TIP3    H226082   1.710   2.329  12.158  0.4019  2.1692  0.0499
 1531TIP3   OH226083   1.748   5.479  15.441 -1.0583  1.0579 -0.0062
 1531TIP3    H126084   1.771   5.479  15.348  0.2080  0.2142  0.2898
 1531TIP3    H226085   1.814   5.423  15.482 -0.1149  3.4056  1.7955
 1532TIP3   OH226086   4.370   0.194  14.922  0.0804 -0.1656 -1.0306
 1532TIP3    H126087   4.382   0.155  14.836  0.8280 -0.8135 -0.6459
 1532TIP3    H226088   4.459   0.210  14.954 -0.2021  0.7303 -0.6740
 1533TIP3   OH226089   5.562   3.351  13.773  0.2941 -0.2345 -0.2290
 1533TIP3    H126090   5.550   3.325  13.681  1.1519 -1.7136  0.0659
 1533TIP3    H226091   5.655   3.335  13.790  0.3840  1.0957  0.5821
 1534TIP3   OH226092   0.302   4.612   5.117 -0.1538  0.0127 -0.3218
 1534TIP3    H126093   0.209   4.614   5.097 -0.4414 -0.4324  0.8938
 1534TIP3    H226094   0.341   4.564   5.044 -0.7207  1.1113 -1.3650
 1535TIP3   OH226095   2.159   5.160  15.900 -0.1751  0.7999 -0.3240
 1535TIP3    H126096   2.220   5.180  15.829  2.9822 -0.9795  1.8152
 1535TIP3    H226097   2.162   5.237  15.957  0.1351  0.6642 -0.1603
 1536TIP3   OH226098   3.572   0.606   0.303 -0.0463 -0.0298  0.3227
 1536TIP3    H126099   3.662   0.573   0.299  0.2317  0.8288 -0.5823
 1536TIP3    H226100   3.557   0.622   0.396  1.4208  1.6997  0.2794
 1537TIP3   OH226101   5.460   4.281  13.480 -0.4667 -0.0327 -0.1650
 1537TIP3    H126102   5.545   4.256  13.518 -0.0053  0.1891 -1.0334
 1537TIP3    H226103   5.477   4.288  13.386 -1.4763 -0.0773 -0.3568
 1538TIP3   OH226104   0.993   3.837  15.733 -0.3630 -0.1454 -0.0758
 1538TIP3    H126105   1.080   3.871  15.754 -0.5443  0.6126 -0.5349
 1538TIP3    H226106   0.974   3.775  15.803  0.6976 -0.5835 -0.1612
 1539TIP3   OH226107   4.026   2.503  12.843 -0.0522  0.0971  0.1803
 1539TIP3    H126108   4.091   2.574  12.832  0.6600 -0.5332  0.2677
 1539TIP3    H226109   4.059   2.452  12.917 -1.0398  0.1897  0.6805
 1540TIP3   OH226110   4.035   4.215  13.196 -0.4737  0.0271  0.4351
 1540TIP3    H126111   4.067   4.215  13.286  0.8055 -2.7115  0.0320
 1540TIP3    H226112   3.971   4.286  13.193 -0.8267 -0.1057  3.5957
 1541TIP3   OH226113   3.475   2.394   1.861 -0.1638 -0.2319  0.2993
 1541TIP3    H126114   3.557   2.364   1.901  1.0379 -0.3654 -2.1840
 1541TIP3    H226115   3.477   2.489   1.869  0.8702 -0.1387 -0.8812
 1542TIP3   OH226116   4.773   6.613  11.094  0.1005  0.1402 -0.1133
 1542TIP3    H126117   4.772   6.705  11.067 -0.5477 -0.3832 -1.9179
 1542TIP3    H226118   4.820   6.568  11.024 -0.4316 -1.0516  0.2851
 1543TIP3   OH226119   6.060   5.152   5.583  0.1358 -0.3269 -0.0473
 1543TIP3    H126120   6.083   5.211   5.511  0.3455 -0.2828  0.0576
 1543TIP3    H226121   6.038   5.209   5.656  0.7090 -0.3832  0.1705
 1544TIP3   OH226122   5.862   1.289   4.714  0.2917 -0.6709 -0.2861
 1544TIP3    H126123   5.861   1.278   4.810 -2.0714 -0.0201 -0.2052
 1544TIP3    H226124   5.905   1.210   4.681  0.6285 -1.1598  1.2701
 1545TIP3   OH226125   3.750   0.733   5.507 -0.1616 -0.1678  0.0040
 1545TIP3    H126126   3.761   0.733   5.602 -0.2981  1.6154  0.0319
 1545TIP3    H226127   3.696   0.655   5.489  1.9876 -1.9565  1.1084
 1546TIP3   OH226128   4.736   4.772  16.369 -0.5305 -0.3778  0.1171
 1546TIP3    H126129   4.659   4.717  16.354 -0.0824 -0.7270 -0.9888
 1546TIP3    H226130   4.808   4.709  16.375 -0.2554 -0.0172  0.5593
 1547TIP3   OH226131   2.060   4.433  10.771  0.3733 -0.1855 -0.6499
 1547TIP3    H126132   2.044   4.342  10.745 -0.9629  0.8674 -3.7233
 1547TIP3    H226133   1.980   4.459  10.818  1.0039 -0.7783  0.7525
 1548TIP3   OH226134   5.144   6.321   0.558  0.1614 -0.4982  0.6873
 1548TIP3    H126135   5.061   6.343   0.602  0.5925  0.6401  0.9694
 1548TIP3    H226136   5.202   6.296   0.630  0.6764  0.7499  0.7293
 1549TIP3   OH226137   6.546   6.363  13.954 -0.2955 -0.0573 -0.1050
 1549TIP3    H126138   6.520   6.306  14.026 -1.8934 -0.9139 -1.3364
 1549TIP3    H226139   6.472   6.362  13.894  0.7786  1.1053 -1.5000
 1550TIP3   OH226140   2.602   3.313  16.005 -0.2865 -0.3001  0.0918
 1550TIP3    H126141   2.592   3.218  16.013  0.6963 -0.2857  1.8115
 1550TIP3    H226142   2.513   3.347  15.996 -0.7573 -1.2804  0.9506
 1551TIP3   OH226143   1.408   4.073   1.663 -0.2454  0.1888 -0.0097
 1551TIP3    H126144   1.390   4.054   1.755  2.2562  1.3186  0.7464
 1551TIP3    H226145   1.349   4.146   1.642 -0.6429  0.0946  0.7556
 1552TIP3   OH226146   0.069   1.459  15.935  0.2187  0.2641 -0.2040
 1552TIP3    H126147   0.152   1.417  15.958  0.7555 -0.8376 -3.7773
 1552TIP3    H226148   0.014   1.387  15.903 -1.6447  1.1818  0.8839
 1553TIP3   OH226149   5.288   5.425  15.478 -0.2026 -0.4089 -0.7661
 1553TIP3    H126150   5.196   5.407  15.461 -0.4240  0.0100 -0.0655
 1553TIP3    H226151   5.335   5.352  15.438 -0.9262 -1.3405  0.0464
 1554TIP3   OH226152   2.117   1.128  14.311  0.0809 -0.2886  0.0224
 1554TIP3    H126153   2.211   1.111  14.316  0.1203 -0.1317 -0.2119
 1554TIP3    H226154   2.096   1.117  14.218  0.2650  1.8371 -0.2887
 1555TIP3   OH226155   5.291   1.149  16.885 -0.1790 -0.8894 -0.2761
 1555TIP3    H126156   5.216   1.168  16.940  0.0030 -1.6358  0.2332
 1555TIP3    H226157   5.313   1.233  16.844  0.3693 -0.0770  1.6365
 1556TIP3   OH226158   3.176   6.146   0.264 -0.5046  0.3543  0.0101
 1556TIP3    H126159   3.113   6.113   0.200  0.1948 -1.5369  0.2720
 1556TIP3    H226160   3.249   6.179   0.210 -0.2078 -0.6296 -0.1980
 1557TIP3   OH226161   4.368   6.145   1.920 -0.3502 -0.1060  0.1758
 1557TIP3    H126162   4.388   6.167   1.829 -0.8286 -1.7226 -0.3434
 1557TIP3    H226163   4.410   6.213   1.972  0.0844  0.7215 -1.2574
 1558TIP3   OH226164   5.467   3.648   5.143  0.2046  0.0803 -0.1234
 1558TIP3    H126165   5.412   3.628   5.218  0.7043 -0.6349  0.0593
 1558TIP3    H226166   5.455   3.574   5.084 -0.6381  0.9134 -1.0172
 1559TIP3   OH226167   3.958   3.919   0.794 -0.2251 -0.7032  0.2751
 1559TIP3    H126168   3.935   3.914   0.701  0.9969  0.5263 -0.1189
 1559TIP3    H226169   4.005   4.002   0.802  0.0514 -1.0070  1.9132
 1560TIP3   OH226170   4.218   5.302  13.651 -0.3346 -0.1303 -0.4576
 1560TIP3    H126171   4.146   5.258  13.698 -0.0562 -2.2097 -1.9266
 1560TIP3    H226172   4.183   5.319  13.564 -0.2966  2.2998 -0.0449
 1561TIP3   OH226173   5.206   3.133   0.728  0.1476 -0.2453 -0.4532
 1561TIP3    H126174   5.263   3.185   0.671  0.0738 -0.1972 -0.4838
 1561TIP3    H226175   5.255   3.053   0.745  0.4067 -0.0109 -0.1181
 1562TIP3   OH226176   3.971   5.411   2.362  0.2294  0.0900  0.2671
 1562TIP3    H126177   3.965   5.410   2.266  0.5837  0.1196  0.2449
 1562TIP3    H226178   4.026   5.486   2.382  0.5554 -0.2039  0.4718
 1563TIP3   OH226179   3.994   1.866   5.940 -0.2243 -0.4319  0.5031
 1563TIP3    H126180   3.944   1.946   5.925 -0.2148 -0.5991 -0.4773
 1563TIP3    H226181   3.931   1.806   5.981  0.3120  0.7227  3.0564
 1564TIP3   OH226182   3.660   1.346  17.201  0.1410 -0.1297  0.9338
 1564TIP3    H126183   3.721   1.324  17.130  1.2805 -0.3129  1.9486
 1564TIP3    H226184   3.607   1.268  17.213  1.1941 -0.7728  1.5197
 1565TIP3   OH226185   5.124   3.435   3.253 -0.1756  0.3114 -0.0668
 1565TIP3    H126186   5.048   3.457   3.199 -1.3398 -1.8874  0.5920
 1565TIP3    H226187   5.088   3.380   3.323  1.9453 -0.3518  0.5464
 1566TIP3   OH226188   1.351   3.814  13.493 -0.7633  0.0248 -0.1735
 1566TIP3    H126189   1.405   3.891  13.512 -0.7913  0.3279 -1.2957
 1566TIP3    H226190   1.381   3.749  13.555  0.3430  0.4577 -0.2332
 1567TIP3   OH226191   0.571   2.227   4.278 -0.0954 -0.7490  0.0270
 1567TIP3    H126192   0.616   2.151   4.240  1.3768 -1.2456  2.6884
 1567TIP3    H226193   0.630   2.300   4.263 -0.1922 -0.6650  0.0554
 1568TIP3   OH226194   4.842   2.241  14.533  0.6302  0.1372  0.2669
 1568TIP3    H126195   4.892   2.322  14.525 -0.7657  0.8563 -1.4845
 1568TIP3    H226196   4.857   2.195  14.450 -0.3230 -0.3528  0.3548
 1569TIP3   OH226197   1.853   2.968  16.441 -0.0190  0.4144  0.2796
 1569TIP3    H126198   1.866   2.874  16.454  1.7098  0.5401 -0.2948
 1569TIP3    H226199   1.759   2.981  16.447 -0.4040 -1.5686 -0.9000
 1570TIP3   OH226200   3.149   0.502   0.590  0.4010  0.0968 -0.0904
 1570TIP3    H126201   3.188   0.429   0.543  0.9944  0.9872 -0.9931
 1570TIP3    H226202   3.180   0.580   0.544 -2.5374  0.8301 -0.9530
 1571TIP3   OH226203   2.530   6.402  12.470  0.1438 -0.6376  0.0538
 1571TIP3    H126204   2.540   6.350  12.550 -0.9024  1.8106  1.8595
 1571TIP3    H226205   2.437   6.425  12.468  0.4785  0.6430 -1.0061
 1572TIP3   OH226206   1.730   2.292  12.954 -0.1343 -0.0029 -0.0175
 1572TIP3    H126207   1.805   2.264  13.007  0.7712 -3.6915 -3.0827
 1572TIP3    H226208   1.760   2.371  12.909  1.3386 -0.5022  0.0694
 1573TIP3   OH226209   5.594   6.316  14.516  0.5914 -0.1621 -0.5197
 1573TIP3    H126210   5.654   6.295  14.587 -0.9631  1.3913  1.3221
 1573TIP3    H226211   5.562   6.232  14.485  1.2313 -0.8594  0.6811
 1574TIP3   OH226212   4.088   3.521   6.341  0.4160 -0.2961  0.2096
 1574TIP3    H126213   4.032   3.547   6.414 -0.0852 -0.4857 -0.1065
 1574TIP3    H226214   4.131   3.602   6.314 -0.7410  0.1187 -0.4317
 1575TIP3   OH226215   0.967   5.733   3.365  0.2989 -0.5015 -0.5917
 1575TIP3    H126216   1.046   5.733   3.420  0.4864  1.9401 -0.7793
 1575TIP3    H226217   0.949   5.826   3.351 -0.9509 -1.0821 -2.9421
 1576TIP3   OH226218   4.717   0.484  14.983 -0.0404  0.0518  0.3718
 1576TIP3    H126219   4.645   0.528  15.029  0.6746  0.0382  1.5351
 1576TIP3    H226220   4.796   0.513  15.030  0.6753 -0.2568 -0.6279
 1577TIP3   OH226221   4.014   0.021  11.175 -0.1648  0.1540  0.2717
 1577TIP3    H126222   4.036   0.076  11.101 -0.9663  0.5611  0.3358
 1577TIP3    H226223   4.054  -0.064  11.155 -0.9176  0.0714 -0.9277
 1578TIP3   OH226224   4.029   4.446  16.695  0.3551  0.1330 -0.4030
 1578TIP3    H126225   4.090   4.458  16.622  0.1289 -1.4644 -0.8627
 1578TIP3    H226226   4.079   4.474  16.772  1.3045 -0.1066 -0.9114
 1579TIP3   OH226227   3.519   3.244   6.037 -0.7894  0.6714  0.7937
 1579TIP3    H126228   3.510   3.243   6.132 -1.4961  0.8583  0.7331
 1579TIP3    H226229   3.548   3.333   6.017  1.2891  0.0640  0.9912
 1580TIP3   OH226230   3.129   2.224   5.090 -0.2518 -0.3670 -0.4874
 1580TIP3    H126231   3.155   2.168   5.163 -1.1802 -0.0643  0.0789
 1580TIP3    H226232   3.207   2.277   5.073  0.0984 -0.7047  0.0255
 1581TIP3   OH226233   0.442   0.576   3.641  0.6157 -0.2617 -0.0638
 1581TIP3    H126234   0.518   0.619   3.680  1.2170 -0.2503 -1.2191
 1581TIP3    H226235   0.477   0.532   3.564 -0.4203 -0.8927 -0.1725
 1582TIP3   OH226236   4.875   0.584   5.492  0.3762 -0.0386  0.0899
 1582TIP3    H126237   4.835   0.632   5.564 -0.5473 -0.5124 -0.0988
 1582TIP3    H226238   4.947   0.640   5.462 -2.2662  2.4977 -1.8050
 1583TIP3   OH226239   3.107   4.482   4.465 -0.3071  0.0161 -0.2694
 1583TIP3    H126240   3.165   4.557   4.470  0.3481 -0.6716  3.9678
 1583TIP3    H226241   3.028   4.516   4.422  0.6320  2.6275 -0.0130
 1584TIP3   OH226242   5.059   5.481   1.649 -0.4590 -0.2426 -0.3042
 1584TIP3    H126243   5.035   5.438   1.732  0.2263 -0.1608 -0.0532
 1584TIP3    H226244   5.039   5.573   1.663  0.2451 -0.1313  0.0055
 1585TIP3   OH226245   4.419   5.331  14.560  0.5403 -0.2768 -0.1870
 1585TIP3    H126246   4.472   5.283  14.624  0.7781 -0.9186 -0.8573
 1585TIP3    H226247   4.447   5.297  14.476  0.4110  0.7544 -0.6526
 1586TIP3   OH226248   1.074   0.144  15.380  0.2322 -0.3154  0.3558
 1586TIP3    H126249   1.127   0.211  15.423  0.4263 -0.3046  0.1005
 1586TIP3    H226250   1.016   0.193  15.323 -0.6117 -0.2756  1.2377
 1587TIP3   OH226251   2.447   0.820  17.170 -0.7386 -0.2406  0.0080
 1587TIP3    H126252   2.515   0.756  17.148 -1.1135 -1.1923  1.5436
 1587TIP3    H226253   2.381   0.770  17.219 -0.5061  1.5025  2.2183
 1588TIP3   OH226254   0.658   1.586   0.762 -0.2688  0.4484 -0.1579
 1588TIP3    H126255   0.564   1.592   0.779 -0.2355  1.0944 -0.1801
 1588TIP3    H226256   0.692   1.534   0.834 -0.8448 -0.9932 -0.8965
 1589TIP3   OH226257   1.310   0.702  14.269  0.2263 -0.0646 -0.1652
 1589TIP3    H126258   1.369   0.723  14.342 -0.0857  1.3228 -0.3034
 1589TIP3    H226259   1.222   0.719  14.303  0.1970  3.1127 -1.6435
 1590TIP3   OH226260   5.381   5.344   1.309  0.1122  0.2087  0.2983
 1590TIP3    H126261   5.363   5.255   1.280  2.6365  0.0230 -0.8394
 1590TIP3    H226262   5.340   5.350   1.395 -2.0201 -1.3015 -0.5931
 1591TIP3   OH226263   1.676   1.364   5.416 -0.0059  0.0903 -0.2962
 1591TIP3    H126264   1.611   1.356   5.346 -1.8800 -3.3083  1.6970
 1591TIP3    H226265   1.628   1.406   5.488  0.8442  0.2509  0.1803
 1592TIP3   OH226266   0.285   2.297   4.212  0.0412 -0.3551 -0.4842
 1592TIP3    H126267   0.374   2.331   4.227  0.2233 -1.1384  0.1893
 1592TIP3    H226268   0.292   2.203   4.229 -1.5799  0.0213  2.4159
 1593TIP3   OH226269   5.139   1.430   1.780  0.3262 -0.0207 -0.6463
 1593TIP3    H126270   5.168   1.426   1.871 -0.1263 -0.8061 -0.5421
 1593TIP3    H226271   5.075   1.360   1.771 -3.3961  3.1484 -0.2571
 1594TIP3   OH226272   4.317   1.812  11.602  0.3435  0.6324 -0.5023
 1594TIP3    H126273   4.318   1.764  11.520  0.0462  0.2794 -0.3028
 1594TIP3    H226274   4.321   1.745  11.670  0.8055  0.9318 -0.2308
 1595TIP3   OH226275   1.284   4.956  11.514 -0.1365 -0.1275  0.2191
 1595TIP3    H126276   1.254   4.865  11.505  0.9362 -0.5777  1.0826
 1595TIP3    H226277   1.378   4.952  11.497 -0.3859  1.1393 -1.6055
 1596TIP3   OH226278   4.113   0.244   1.709  0.3667 -0.9597 -0.4251
 1596TIP3    H126279   4.037   0.247   1.652 -2.5147 -0.6921  3.2332
 1596TIP3    H226280   4.156   0.329   1.697 -0.7044 -0.5605 -1.4882
 1597TIP3   OH226281   1.640   3.704  10.724  0.1346 -0.2785  0.4017
 1597TIP3    H126282   1.631   3.675  10.815  0.4919 -1.1963  0.1538
 1597TIP3    H226283   1.600   3.635  10.672  0.5367 -0.0879 -0.1756
 1598TIP3   OH226284   3.471   1.579  17.215  0.0686 -0.6207  0.0463
 1598TIP3    H126285   3.551   1.534  17.188  1.3324  1.2492  0.6383
 1598TIP3    H226286   3.423   1.513  17.266  2.2543 -1.0738  1.5859
 1599TIP3   OH226287   6.485   1.660   0.769 -0.6997  0.0434 -0.0067
 1599TIP3    H126288   6.460   1.582   0.818  0.0428 -0.2408 -0.0820
 1599TIP3    H226289   6.542   1.628   0.699 -1.9100  0.4274 -1.1811
 1600TIP3   OH226290   6.619   2.801  13.602 -0.2744  0.0548  0.3361
 1600TIP3    H126291   6.670   2.881  13.598  0.3856 -0.3696  0.2657
 1600TIP3    H226292   6.654   2.746  13.533  0.5280 -1.0254  1.5824
 1601TIP3   OH226293   3.313   5.410  12.743  0.0107 -0.3913 -0.0198
 1601TIP3    H126294   3.277   5.442  12.660  1.5256 -0.8747 -0.8974
 1601TIP3    H226295   3.327   5.317  12.729 -0.9213 -0.7187  1.2347
 1602TIP3   OH226296   6.195   0.325   3.907  0.1003  0.2621 -0.0892
 1602TIP3    H126297   6.272   0.376   3.882  0.0567 -1.3117 -3.8343
 1602TIP3    H226298   6.121   0.375   3.873 -0.3390  0.3330  0.9516
 1603TIP3   OH226299   4.767   4.003   4.454  0.4246  0.2803  0.1801
 1603TIP3    H126300   4.802   3.963   4.374 -2.1483 -0.2414 -0.7150
 1603TIP3    H226301   4.677   4.026   4.432 -0.2358  0.3759  2.8608
 1604TIP3   OH226302   3.522   6.538   4.700 -0.2433  0.0890  0.0703
 1604TIP3    H126303   3.568   6.514   4.619 -1.7458 -0.6303 -0.5956
 1604TIP3    H226304   3.436   6.567   4.671 -0.4754  0.7267  1.3560
 1605TIP3   OH226305   4.498   2.824  14.463 -0.9934 -0.0668  0.2168
 1605TIP3    H126306   4.431   2.857  14.403  0.8357  3.0214 -0.2485
 1605TIP3    H226307   4.470   2.853  14.550  0.1634  2.0495 -0.0893
 1606TIP3   OH226308   6.082   1.422   5.493  0.5449 -0.6552  0.7504
 1606TIP3    H126309   6.176   1.415   5.508  0.2770 -1.9974  1.8367
 1606TIP3    H226310   6.074   1.485   5.421  2.3817 -1.9902 -0.6645
 1607TIP3   OH226311   0.453   3.965  12.199  0.3967  0.1462 -0.5639
 1607TIP3    H126312   0.515   3.938  12.132  3.6957 -0.7769  2.7029
 1607TIP3    H226313   0.434   3.886  12.248 -0.0645  1.2215  1.0430
 1608TIP3   OH226314   2.623   2.103  14.287 -0.1869 -0.0971 -0.7595
 1608TIP3    H126315   2.648   2.061  14.370  1.5847  0.9169 -0.7403
 1608TIP3    H226316   2.551   2.162  14.311 -1.5256 -1.8089 -0.4727
 1609TIP3   OH226317   5.541   2.717   0.877 -0.1640  0.1647 -0.4405
 1609TIP3    H126318   5.451   2.747   0.863  0.3182  1.5587 -0.6588
 1609TIP3    H226319   5.583   2.727   0.792  0.4044  0.2790 -0.1488
 1610TIP3   OH226320   3.141   6.766  17.207  0.4051  0.1717 -0.2346
 1610TIP3    H126321   3.218   6.747  17.153 -0.3791 -0.7342 -1.0439
 1610TIP3    H226322   3.167   6.742  17.296  1.0204 -0.2255 -0.5242
 1611TIP3   OH226323   1.058   3.228  13.462 -0.3000  0.2655  0.2786
 1611TIP3    H126324   1.138   3.281  13.466 -1.0280  1.3191  1.1237
 1611TIP3    H226325   1.043   3.201  13.552 -0.3409 -0.7856 -0.0367
 1612TIP3   OH226326   6.188   1.370  13.453  0.0574  0.2284 -0.5565
 1612TIP3    H126327   6.252   1.439  13.436 -0.6173  1.2942  1.1775
 1612TIP3    H226328   6.238   1.303  13.501 -0.2437  1.3166  1.3033
 1613TIP3   OH226329   3.643   1.165   2.049  0.4834 -0.4719  0.1331
 1613TIP3    H126330   3.559   1.175   2.094 -0.8359 -1.5479 -1.9894
 1613TIP3    H226331   3.675   1.254   2.037 -1.3279  0.0948 -0.7658
 1614TIP3   OH226332   0.815   4.178   4.814 -0.4897  0.0091 -0.2523
 1614TIP3    H126333   0.743   4.165   4.752 -1.0945 -0.7253  0.5894
 1614TIP3    H226334   0.789   4.128   4.892  0.5275  0.4479  0.3796
 1615TIP3   OH226335   6.144   1.650   6.118  0.1391 -0.3021 -0.4997
 1615TIP3    H126336   6.079   1.690   6.175  0.2591 -1.1253  0.2338
 1615TIP3    H226337   6.220   1.636   6.176  0.9377  0.5506 -1.3113
 1616TIP3   OH226338   0.775   3.407  14.610 -0.2643  0.8659 -0.4470
 1616TIP3    H126339   0.805   3.462  14.538  0.7320  1.3715  0.3359
 1616TIP3    H226340   0.795   3.458  14.689 -0.9852  0.1545  0.2066
 1617TIP3   OH226341   0.932   2.616  11.053 -0.5721 -0.4446  1.0337
 1617TIP3    H126342   1.022   2.636  11.082 -0.4263 -0.8175  0.8355
 1617TIP3    H226343   0.932   2.638  10.960 -0.0914 -2.4129  0.5429
 1618TIP3   OH226344   1.741   1.613  13.926 -0.0423  0.2651  0.0453
 1618TIP3    H126345   1.799   1.548  13.967 -1.6909 -0.0458  1.9096
 1618TIP3    H226346   1.798   1.659  13.863  1.3309 -2.4820 -0.8102
 1619TIP3   OH226347   6.464   4.465  11.949 -0.0206 -0.1209  0.0126
 1619TIP3    H126348   6.412   4.497  12.022 -0.0582  2.2405 -1.0266
 1619TIP3    H226349   6.531   4.411  11.990 -0.8168  0.1087  1.6782
 1620TIP3   OH226350   5.821   6.669  11.489  0.4587  0.2009  0.1184
 1620TIP3    H126351   5.804   6.751  11.534  1.2906  0.3134  0.2421
 1620TIP3    H226352   5.769   6.604  11.537 -2.2091  1.0499 -1.5408
 1621TIP3   OH226353   4.139   5.751  15.363 -0.6501  0.1159 -0.4589
 1621TIP3    H126354   4.167   5.670  15.407 -1.3611  0.4741  0.6555
 1621TIP3    H226355   4.200   5.818  15.394 -0.5063  0.1633 -0.8332
 1622TIP3   OH226356   2.708   3.111  15.253  0.2387 -0.0599  0.2745
 1622TIP3    H126357   2.706   3.135  15.345 -0.1266  1.5544 -0.1473
 1622TIP3    H226358   2.775   3.166  15.214  0.1250 -0.4574 -0.5033
 1623TIP3   OH226359   4.929   1.463   0.516  0.4089 -0.5268  0.2337
 1623TIP3    H126360   4.933   1.431   0.606  0.6349  0.0275  0.4233
 1623TIP3    H226361   4.975   1.547   0.519  2.1611 -1.4208 -0.8090
 1624TIP3   OH226362   6.617   0.170   3.567  0.3261 -0.0482 -0.0344
 1624TIP3    H126363   6.702   0.143   3.531  1.1955 -0.5776  2.3364
 1624TIP3    H226364   6.616   0.265   3.555  1.0084 -0.1057 -0.5902
 1625TIP3   OH226365   1.654   5.026  15.075  0.9729  0.0712  0.8646
 1625TIP3    H126366   1.731   4.979  15.044  0.5889 -0.3447  0.5358
 1625TIP3    H226367   1.587   4.959  15.084  0.6378  0.4384  1.1179
 1626TIP3   OH226368   1.907   1.382  13.998 -0.8269  0.1391 -0.1676
 1626TIP3    H126369   1.927   1.375  14.092 -1.5093 -2.7500 -0.1880
 1626TIP3    H226370   1.872   1.296  13.975 -1.4424  1.0837 -2.9123
 1627TIP3   OH226371   4.142   5.231   3.514 -0.1338  0.6995 -0.0074
 1627TIP3    H126372   4.203   5.170   3.474 -1.4048 -1.1209  0.7376
 1627TIP3    H226373   4.060   5.181   3.521 -1.1810  2.4741  0.6794
 1628TIP3   OH226374   0.968   0.168  13.145 -0.3261  0.1921  0.0414
 1628TIP3    H126375   0.996   0.083  13.178 -0.1182  1.2591  2.7704
 1628TIP3    H226376   0.901   0.197  13.208 -2.2558  0.9378 -2.2642
 1629TIP3   OH226377   2.758   5.935   0.863  0.2592 -0.1823  0.2399
 1629TIP3    H126378   2.795   5.982   0.788 -0.1246 -0.5927 -0.2210
 1629TIP3    H226379   2.694   5.876   0.823  1.8663 -2.2484  0.6271
 1630TIP3   OH226380   4.302   0.743  13.465 -0.3580  0.1266  0.4333
 1630TIP3    H126381   4.315   0.714  13.375  0.6365 -0.4706  0.7686
 1630TIP3    H226382   4.281   0.836  13.457  1.0623  0.3953 -0.3193
 1631TIP3   OH226383   3.034   3.991  13.183  0.1524  0.4288  0.1286
 1631TIP3    H126384   3.015   3.956  13.270 -0.7622  1.0316  0.1800
 1631TIP3    H226385   3.072   4.077  13.201 -1.0303  1.0089 -0.0842
 1632TIP3   OH226386   0.105   3.133   5.503  0.3019 -0.2750  0.9386
 1632TIP3    H126387   0.155   3.061   5.464  2.2705  1.3692  0.3655
 1632TIP3    H226388   0.151   3.153   5.585  0.4113  1.0030  0.5838
 1633TIP3   OH226389   6.400   3.713   4.973  0.1913  0.0843 -0.7931
 1633TIP3    H126390   6.318   3.719   5.022  0.9964  0.3126  0.5340
 1633TIP3    H226391   6.464   3.681   5.037  0.9204 -1.0686 -2.0710
 1634TIP3   OH226392   3.941   5.531  14.132 -0.4288 -0.4466  0.8436
 1634TIP3    H126393   3.919   5.503  14.221 -1.7014  3.6021  1.9039
 1634TIP3    H226394   3.963   5.624  14.141  2.7944 -0.7792 -2.5663
 1635TIP3   OH226395   5.522   3.837  11.736  0.2165 -0.5588  0.5449
 1635TIP3    H126396   5.503   3.759  11.789 -0.7453 -1.6964 -1.3851
 1635TIP3    H226397   5.455   3.900  11.762  1.6376  0.0408  2.8765
 1636TIP3   OH226398   5.455   0.699   1.321 -0.1040  0.5586 -0.4925
 1636TIP3    H126399   5.453   0.795   1.327  0.3227  0.4820  0.9642
 1636TIP3    H226400   5.540   0.680   1.282 -0.6329  0.8142 -1.7918
 1637TIP3   OH226401   5.442   3.657  14.875  0.0735 -0.4232  0.1606
 1637TIP3    H126402   5.533   3.685  14.885 -0.1157 -0.5741  2.5809
 1637TIP3    H226403   5.417   3.686  14.787  2.0080  0.8863  0.0243
 1638TIP3   OH226404   4.411   5.757   3.309 -0.2415  0.0326  0.1089
 1638TIP3    H126405   4.474   5.700   3.265  1.7536  2.1573  0.1530
 1638TIP3    H226406   4.350   5.782   3.240  0.1060 -0.4402 -0.3746
 1639TIP3   OH226407   5.836   4.721  11.543  0.0882  0.0141 -0.6385
 1639TIP3    H126408   5.902   4.746  11.479 -0.4678  1.1972 -0.7633
 1639TIP3    H226409   5.759   4.774  11.521 -0.3904 -0.2040  0.4587
 1640TIP3   OH226410   2.729   3.159  16.806  0.8137 -0.1774  0.1981
 1640TIP3    H126411   2.673   3.236  16.797  1.4132  0.1912 -0.4515
 1640TIP3    H226412   2.668   3.085  16.810  0.1029  0.5372  3.7084
 1641TIP3   OH226413   2.323   5.435   0.210 -0.5440 -0.0805 -0.0823
 1641TIP3    H126414   2.260   5.387   0.157 -0.9819  2.0689 -1.5938
 1641TIP3    H226415   2.270   5.493   0.265 -0.0183 -1.0446  1.4639
 1642TIP3   OH226416   0.925   6.193  16.923  0.1659 -0.2205  0.2067
 1642TIP3    H126417   0.893   6.280  16.944  0.4019 -0.4748  1.7002
 1642TIP3    H226418   0.880   6.135  16.984  1.3084 -0.9305  0.3973
 1643TIP3   OH226419   6.099   3.020  15.504 -0.1678  0.2064  0.3166
 1643TIP3    H126420   6.074   3.098  15.553  1.2481 -0.0210  1.4384
 1643TIP3    H226421   6.131   3.053  15.420  0.5560  0.8552  0.8374
 1644TIP3   OH226422   3.757   0.615   1.252  0.2324 -0.2623 -0.5968
 1644TIP3    H126423   3.832   0.646   1.304 -0.6268 -0.4970  0.7873
 1644TIP3    H226424   3.785   0.628   1.161  1.0780  1.7815 -0.0817
 1645TIP3   OH226425   5.569   2.588  16.990 -0.4117 -0.4115  0.1129
 1645TIP3    H126426   5.531   2.561  17.073  0.7151 -0.0430  0.7577
 1645TIP3    H226427   5.637   2.523  16.971 -0.3991 -0.2770 -0.3247
 1646TIP3   OH226428   3.586   5.438  10.358  0.0319 -0.0967  0.1972
 1646TIP3    H126429   3.607   5.407  10.446  1.5940  0.0712 -0.0876
 1646TIP3    H226430   3.608   5.532  10.360 -1.6646  0.3069  0.1546
 1647TIP3   OH226431   1.700   1.000  16.650  0.6188 -0.4058  0.0827
 1647TIP3    H126432   1.621   0.961  16.687  1.1956  0.4178  2.2891
 1647TIP3    H226433   1.682   1.094  16.649  0.6809 -0.4042 -1.6056
 1648TIP3   OH226434   3.041   1.480   6.309  0.2740 -0.1900 -0.1372
 1648TIP3    H126435   3.094   1.535   6.251 -1.1579  2.1003  0.6576
 1648TIP3    H226436   3.103   1.415   6.342  1.6612 -0.0502 -2.3207
 1649TIP3   OH226437   4.801   2.428  17.080  0.0998  0.9534  0.4826
 1649TIP3    H126438   4.771   2.381  17.157 -1.2467  0.8066 -0.1304
 1649TIP3    H226439   4.758   2.513  17.085  0.7852  1.3153  0.4024
 1650TIP3   OH226440   2.338   5.058  11.682  0.2593 -0.1965  0.0192
 1650TIP3    H126441   2.298   4.986  11.731 -1.7324 -0.5290 -1.9714
 1650TIP3    H226442   2.284   5.134  11.703  0.8584  0.1715  0.2161
 1651TIP3   OH226443   3.124   4.213  16.052  0.2211 -0.7648  0.0797
 1651TIP3    H126444   3.113   4.166  15.969 -0.4890  0.3541 -0.4547
 1651TIP3    H226445   3.035   4.230  16.083  0.4840  0.1074  0.3521
 1652TIP3   OH226446   1.020   6.242   5.851  0.3315 -0.0174 -0.1625
 1652TIP3    H126447   1.006   6.217   5.760 -0.1723 -0.5792  0.0682
 1652TIP3    H226448   0.965   6.181   5.902  0.8819  0.0606  0.5331
 1653TIP3   OH226449   3.331   4.484  14.873 -0.1771  0.3989 -0.2943
 1653TIP3    H126450   3.290   4.445  14.796 -0.2730  2.0117 -1.0805
 1653TIP3    H226451   3.267   4.547  14.905 -1.1608 -1.9815  2.5828
 1654TIP3   OH226452   2.720   2.321  14.950 -0.0399  0.0618 -0.2403
 1654TIP3    H126453   2.788   2.360  15.007 -0.5760 -0.0697  0.4994
 1654TIP3    H226454   2.642   2.373  14.968 -0.2102  0.0307 -0.8874
 1655TIP3   OH226455   5.687   6.114  14.216  0.5773 -0.4827  0.5685
 1655TIP3    H126456   5.657   6.137  14.128  0.9385  2.1781  1.1032
 1655TIP3    H226457   5.782   6.101  14.206  0.9063  1.5863  0.8864
 1656TIP3   OH226458   4.162   2.109   3.429  0.4272 -0.5603  0.9325
 1656TIP3    H126459   4.118   2.139   3.509 -1.2519  0.3908 -0.3234
 1656TIP3    H226460   4.093   2.107   3.363  2.0082 -0.3543 -0.7487
 1657TIP3   OH226461   1.961   6.483   6.435 -0.1364 -0.6088 -0.6454
 1657TIP3    H126462   2.045   6.459   6.397 -1.3810 -2.9934 -2.0497
 1657TIP3    H226463   1.954   6.428   6.514  0.4779  1.0716  0.6141
 1658TIP3   OH226464   0.086   5.051  16.659  0.1217 -0.4821  0.9479
 1658TIP3    H126465   0.067   4.958  16.670  0.6232 -0.5796  0.9927
 1658TIP3    H226466   0.063   5.091  16.743 -1.2438 -0.3705  0.5332
 1659TIP3   OH226467   3.937   2.396  11.338  0.1750 -0.0755 -0.3947
 1659TIP3    H126468   4.006   2.378  11.274 -0.6920  0.5727 -1.5390
 1659TIP3    H226469   3.954   2.485  11.369  0.1723 -0.1187 -0.2661
 1660TIP3   OH226470   4.866   0.915   5.561  0.0241 -0.4167 -0.0160
 1660TIP3    H126471   4.944   0.970   5.559  0.1583 -0.6103 -0.1898
 1660TIP3    H226472   4.811   0.953   5.629 -1.1128  1.5386 -1.9944
 1661TIP3   OH226473   3.569   6.535   3.654 -0.1014  0.0350 -0.2566
 1661TIP3    H126474   3.605   6.455   3.692  0.6146  1.5054  2.2609
 1661TIP3    H226475   3.636   6.564   3.592 -0.5108 -1.4694 -1.4288
 1662TIP3   OH226476   5.239   3.345  15.489 -0.6804 -0.6792  0.6366
 1662TIP3    H126477   5.235   3.385  15.576 -0.0501 -2.3233  1.4484
 1662TIP3    H226478   5.239   3.419  15.428 -1.8441  0.4752  1.9985
 1663TIP3   OH226479   3.366   2.652  11.664 -0.5600 -0.9030  0.1866
 1663TIP3    H126480   3.416   2.599  11.602  0.2211 -0.2634  0.2665
 1663TIP3    H226481   3.335   2.588  11.729 -0.8622 -1.4811 -0.5152
 1664TIP3   OH226482   3.992   6.459   0.468 -0.0862 -0.4208  0.7915
 1664TIP3    H126483   3.899   6.459   0.492 -0.5841  1.5067 -1.0395
 1664TIP3    H226484   3.996   6.409   0.387  0.0465  1.9197 -0.6603
 1665TIP3   OH226485   4.297   0.737   2.186 -0.2888  0.4359 -1.0457
 1665TIP3    H126486   4.202   0.748   2.185 -0.2977  0.4221 -2.8372
 1665TIP3    H226487   4.313   0.667   2.250 -1.5772 -0.2886 -1.4953
 1666TIP3   OH226488   4.643   5.384  15.036  0.1693  0.1828 -0.1668
 1666TIP3    H126489   4.633   5.393  14.942  0.7824  0.6113 -0.1935
 1666TIP3    H226490   4.736   5.400  15.052 -0.1553  1.3052  0.6441
 1667TIP3   OH226491   2.521   0.944  11.533 -0.5563  0.2711  0.2361
 1667TIP3    H126492   2.602   0.983  11.567 -1.3409  1.6323  0.5797
 1667TIP3    H226493   2.463   1.019  11.516 -0.9582 -0.5375 -2.1148
 1668TIP3   OH226494   2.197   4.012   4.011  0.0098 -0.8449 -0.3410
 1668TIP3    H126495   2.246   4.073   3.955 -0.3107 -1.4866 -1.3251
 1668TIP3    H226496   2.197   4.055   4.097  0.4356  0.1922 -0.8389
 1669TIP3   OH226497   4.890   0.184   1.062 -0.8457 -0.2124  0.1215
 1669TIP3    H126498   4.925   0.183   0.973 -0.8137  0.4699  0.1268
 1669TIP3    H226499   4.954   0.134   1.114 -0.1600  0.5671  0.0302
 1670TIP3   OH226500   2.782   2.172  15.221  0.2625  0.3346 -0.2218
 1670TIP3    H126501   2.825   2.249  15.184  0.0982  0.8662  0.6778
 1670TIP3    H226502   2.724   2.207  15.288  0.1901 -0.5771  0.1995
 1671TIP3   OH226503   2.413   3.520   0.856  0.2249 -0.2116 -0.3131
 1671TIP3    H126504   2.439   3.538   0.947  1.7116  0.8655 -0.9327
 1671TIP3    H226505   2.439   3.429   0.842 -0.6824 -0.6180  0.5657
 1672TIP3   OH226506   0.423   4.970  14.440  0.4958  0.0826 -0.1392
 1672TIP3    H126507   0.391   4.934  14.357  2.8520  0.8939 -1.4730
 1672TIP3    H226508   0.380   5.055  14.448 -2.4431 -1.4816  1.2883
 1673TIP3   OH226509   5.181   5.497   4.439 -0.3549 -0.3484  0.5949
 1673TIP3    H126510   5.109   5.435   4.426 -1.9926  1.3891  1.0949
 1673TIP3    H226511   5.144   5.582   4.414  1.2242  0.7321  1.8050
 1674TIP3   OH226512   6.115   2.012  14.117  0.4057 -0.0802  0.3892
 1674TIP3    H126513   6.207   1.999  14.140  1.1290  0.1402 -2.1848
 1674TIP3    H226514   6.079   1.924  14.112  0.5327 -0.1801  1.1503
 1675TIP3   OH226515   6.769   1.214   5.213 -0.1905  0.4725 -0.1556
 1675TIP3    H126516   6.806   1.194   5.127 -0.5193 -0.4251 -0.0992
 1675TIP3    H226517   6.823   1.162   5.274 -0.9142 -0.0757  0.0237
 1676TIP3   OH226518   2.562   3.954  10.775 -0.4492  0.1257  0.2236
 1676TIP3    H126519   2.565   4.049  10.781  1.3380  0.0866  0.3984
 1676TIP3    H226520   2.492   3.936  10.712  1.6807  1.7351 -2.7451
 1677TIP3   OH226521   4.772   1.132   4.034 -0.5315  0.3661  0.4523
 1677TIP3    H126522   4.861   1.099   4.047  0.1945  1.1462 -2.2129
 1677TIP3    H226523   4.768   1.155   3.941 -3.9835 -1.0012  0.1743
 1678TIP3   OH226524   3.268   2.941  17.049 -0.0520 -0.1066 -0.1477
 1678TIP3    H126525   3.343   2.882  17.044 -0.5891 -0.9099  1.0157
 1678TIP3    H226526   3.292   3.016  16.995  0.1718 -1.8888 -2.5793
 1679TIP3   OH226527   2.774   5.358  12.166  0.2156 -0.1529 -0.2665
 1679TIP3    H126528   2.785   5.453  12.169  0.6968 -0.2331  3.0452
 1679TIP3    H226529   2.773   5.337  12.073  2.7775  2.7739 -1.0559
 1680TIP3   OH226530   4.573   6.339  12.092 -0.2759 -0.3268 -0.1861
 1680TIP3    H126531   4.609   6.383  12.015  1.4985 -0.8814  0.3016
 1680TIP3    H226532   4.641   6.348  12.159 -1.0797 -1.3182  0.7874
 1681TIP3   OH226533   2.703   5.560  16.448  0.4502 -0.5808 -0.4595
 1681TIP3    H126534   2.661   5.547  16.363 -1.3414 -1.6012  0.5694
 1681TIP3    H226535   2.715   5.655  16.454  0.4760 -0.4833 -1.7786
 1682TIP3   OH226536   0.852   1.148   1.584 -0.0105  0.3645 -0.2669
 1682TIP3    H126537   0.901   1.098   1.519  0.5287  1.2597 -0.5573
 1682TIP3    H226538   0.911   1.219   1.609  0.4172 -0.8788  2.4002
 1683TIP3   OH226539   4.018   4.707  17.040 -0.0227  0.3524  0.1373
 1683TIP3    H126540   4.089   4.764  17.071  2.5951 -2.1888 -0.9499
 1683TIP3    H226541   3.974   4.679  17.120  1.5033  0.3751  1.0190
 1684TIP3   OH226542   1.196   2.030  14.185 -0.4802  0.6125 -0.2014
 1684TIP3    H126543   1.281   2.033  14.229 -0.6520  0.9922  0.1150
 1684TIP3    H226544   1.176   2.121  14.165 -1.3929  0.6600  0.8695
 1685TIP3   OH226545   6.022   3.230  11.072  0.1573  0.0467 -0.2927
 1685TIP3    H126546   5.944   3.281  11.091 -0.2406 -0.5757 -0.2647
 1685TIP3    H226547   6.042   3.250  10.980 -0.3192 -0.1870 -0.4462
 1686TIP3   OH226548   1.724   0.629   2.281 -0.0657  0.2063 -0.2179
 1686TIP3    H126549   1.660   0.697   2.261 -0.1047 -0.0941 -1.1817
 1686TIP3    H226550   1.717   0.568   2.207  1.4966  0.3033 -0.4776
 1687TIP3   OH226551   4.040   3.424  12.911  0.1885  0.4863  0.2628
 1687TIP3    H126552   4.115   3.480  12.930  0.4201  0.0022  0.8178
 1687TIP3    H226553   4.019   3.384  12.996 -2.9972  3.3515  0.9135
 1688TIP3   OH226554   6.103   6.180  11.164 -0.5758  0.3065 -0.5130
 1688TIP3    H126555   6.093   6.267  11.125 -0.9019 -0.5647 -2.4059
 1688TIP3    H226556   6.030   6.174  11.226  0.8242  2.2883  1.4251
 1689TIP3   OH226557   1.619   4.150   1.270 -0.7519 -0.3698 -0.0151
 1689TIP3    H126558   1.668   4.232   1.282 -0.5033 -0.7276  1.5717
 1689TIP3    H226559   1.591   4.127   1.359 -1.6754 -1.4810 -0.5939
 1690TIP3   OH226560   6.452   4.976  16.927  0.1705 -0.4796 -0.3867
 1690TIP3    H126561   6.542   4.961  16.956 -0.0783  1.1549  1.3232
 1690TIP3    H226562   6.402   4.989  17.008 -1.5624 -1.0963 -1.3329
 1691TIP3   OH226563   4.724   3.660   6.709  0.0248  0.1300 -0.0794
 1691TIP3    H126564   4.797   3.714   6.678  1.2922 -1.1176  0.6851
 1691TIP3    H226565   4.758   3.571   6.708 -1.2627 -0.3870  0.9343
 1692TIP3   OH226566   0.503   1.411  12.183  0.3212  0.5339  0.1139
 1692TIP3    H126567   0.552   1.490  12.206  1.2935 -0.0187 -0.0479
 1692TIP3    H226568   0.448   1.437  12.110 -0.0089  1.2955  0.6276
 1693TIP3   OH226569   4.404   0.012  12.263 -0.3289  0.1802 -0.0755
 1693TIP3    H126570   4.366  -0.075  12.273 -2.9943  0.9655 -2.7517
 1693TIP3    H226571   4.335   0.072  12.293  2.0254  1.4240  3.2840
 1694TIP3   OH226572   6.161   0.364   4.895  0.0907  0.2081 -0.1592
 1694TIP3    H126573   6.238   0.384   4.842 -0.5181 -1.8117 -1.8452
 1694TIP3    H226574   6.164   0.269   4.907 -2.5327  0.0200 -0.8352
 1695TIP3   OH226575   5.995   0.387   1.252  0.6724  0.0990 -0.6138
 1695TIP3    H126576   5.929   0.433   1.201  0.6661  0.5958 -0.1659
 1695TIP3    H226577   6.078   0.411   1.211  0.6254  0.0718 -0.7224
 1696TIP3   OH226578   5.955   5.287  16.417 -0.8281 -0.6521  0.4935
 1696TIP3    H126579   6.006   5.340  16.477  1.6879 -0.9167 -1.2964
 1696TIP3    H226580   5.920   5.216  16.471 -0.8611  0.5867  2.1294
 1697TIP3   OH226581   3.332   3.682   5.615 -0.0837 -0.2112  0.6258
 1697TIP3    H126582   3.307   3.753   5.555  1.4061  1.2032  1.6238
 1697TIP3    H226583   3.291   3.705   5.698 -0.5223 -1.1270  0.6660
 1698TIP3   OH226584   2.011   0.082  12.826 -0.3222 -0.5025  0.2496
 1698TIP3    H126585   2.025   0.155  12.886 -2.3348 -0.8197  1.1228
 1698TIP3    H226586   1.977   0.011  12.880 -1.8978 -0.8878 -1.1938
 1699TIP3   OH226587   0.177   4.376  16.578  0.3776 -0.2908  0.0019
 1699TIP3    H126588   0.170   4.420  16.494 -2.8040 -1.3532 -0.3688
 1699TIP3    H226589   0.100   4.405  16.627  1.4202 -0.8119  1.9968
 1700TIP3   OH226590   3.628   6.682  12.921 -0.5930 -0.3503  0.0273
 1700TIP3    H126591   3.632   6.666  13.016  1.2265 -1.5400 -0.2420
 1700TIP3    H226592   3.685   6.616  12.883 -0.9846  0.3959 -1.8800
 1701TIP3   OH226593   6.637   3.082  14.478 -0.3745 -0.1980 -0.0671
 1701TIP3    H126594   6.578   3.157  14.476 -2.6018 -1.8118  2.4115
 1701TIP3    H226595   6.689   3.093  14.557  1.9913  0.6514 -1.6793
 1702TIP3   OH226596   2.969   2.283  11.186  0.5513  0.1270  0.2674
 1702TIP3    H126597   2.974   2.306  11.279 -0.4852 -0.6081  0.5120
 1702TIP3    H226598   3.034   2.214  11.174  0.4057 -0.0569  0.5343
 1703TIP3   OH226599   4.717   1.070  13.964  0.1312 -0.5083  0.0147
 1703TIP3    H126600   4.657   1.018  14.017 -0.7950  0.8660  0.3582
 1703TIP3    H226601   4.718   1.156  14.007  1.7494 -0.2887 -0.4410
 1704TIP3   OH226602   6.518   6.642  12.848 -0.1271  0.6880 -0.1460
 1704TIP3    H126603   6.585   6.698  12.809 -0.5946  1.9041  0.7741
 1704TIP3    H226604   6.556   6.554  12.847  1.2609  1.2835 -0.1146
 1705TIP3   OH226605   0.351   4.373  14.206 -0.1357 -0.7193 -0.3300
 1705TIP3    H126606   0.405   4.364  14.128 -0.5802  0.2760 -0.7482
 1705TIP3    H226607   0.262   4.349  14.177  0.0108 -2.0779  0.2883
 1706TIP3   OH226608   5.191   1.362  14.582  0.0568 -0.1367  0.2327
 1706TIP3    H126609   5.117   1.412  14.615 -0.2306 -0.2780 -0.1872
 1706TIP3    H226610   5.248   1.350  14.657 -0.4092 -0.1319  0.5887
 1707TIP3   OH226611   2.196   1.083   1.421 -0.4059  0.1992 -0.2120
 1707TIP3    H126612   2.151   1.071   1.505  0.3836  1.4115  0.3933
 1707TIP3    H226613   2.254   1.007   1.415 -0.8438 -0.1642  0.0965
 1708TIP3   OH226614   2.029   2.452   6.447  0.0174  0.0153 -0.2253
 1708TIP3    H126615   2.107   2.458   6.502  0.0323 -1.6607 -0.0240
 1708TIP3    H226616   1.960   2.492   6.500 -0.0690 -2.0046  1.2657
 1709TIP3   OH226617   4.417   0.189   4.778 -0.0759 -0.0707  0.2698
 1709TIP3    H126618   4.493   0.214   4.831 -0.0901 -1.3860  0.9479
 1709TIP3    H226619   4.357   0.147   4.840 -1.5402  1.2923 -0.1983
 1710TIP3   OH226620   5.809   1.670   1.145  0.8578 -0.1950 -0.7044
 1710TIP3    H126621   5.725   1.629   1.168  1.2965  0.1494  1.5624
 1710TIP3    H226622   5.784   1.744   1.089 -0.2505 -0.9012 -1.1664
 1711TIP3   OH226623   0.384   6.222  15.801  0.4865  0.3656  0.0499
 1711TIP3    H126624   0.465   6.180  15.773 -2.0132 -3.5933 -1.7349
 1711TIP3    H226625   0.325   6.212  15.726 -1.2873  4.4779  0.7304
 1712TIP3   OH226626   2.964   0.126   5.252 -0.3565  0.3158  0.5821
 1712TIP3    H126627   3.045   0.080   5.230  0.0967  0.8692  1.0590
 1712TIP3    H226628   2.960   0.125   5.347 -1.4769 -0.6580  0.5344
 1713TIP3   OH226629   3.713   0.795  15.741 -0.2353  0.6122  0.6618
 1713TIP3    H126630   3.745   0.727  15.681 -0.8423  0.9765 -0.0817
 1713TIP3    H226631   3.793   0.839  15.770  0.0224  1.0600 -0.6505
 1714TIP3   OH226632   4.747   3.260  11.759 -0.4731  0.1792  0.1773
 1714TIP3    H126633   4.756   3.310  11.678 -1.9964  0.3443  0.0860
 1714TIP3    H226634   4.748   3.168  11.732 -0.5539  0.2278  0.0085
 1715TIP3   OH226635   3.051   3.903  10.882  0.1965  0.8955 -0.3444
 1715TIP3    H126636   3.023   3.938  10.797  1.1163  0.2869 -0.8999
 1715TIP3    H226637   3.144   3.884  10.871  0.0206 -0.4278  0.3977
 1716TIP3   OH226638   6.072   6.042  14.446  1.1837  0.0737 -0.1517
 1716TIP3    H126639   6.015   6.094  14.503  0.5486 -1.9737  1.1782
 1716TIP3    H226640   6.026   6.039  14.362  1.0010  1.2260 -0.1028
 1717TIP3   OH226641   2.511   1.228  10.532 -0.7993  0.2857 -0.4125
 1717TIP3    H126642   2.433   1.207  10.481 -1.0460 -1.8689  0.7832
 1717TIP3    H226643   2.503   1.174  10.611  0.9471  1.4715  0.6150
 1718TIP3   OH226644   3.092   5.565   6.051  0.1786  0.7731 -0.2197
 1718TIP3    H126645   3.150   5.604   6.116  1.0818 -0.6101 -0.1735
 1718TIP3    H226646   3.028   5.633   6.032  1.0098  1.8416  0.7391
 1719TIP3   OH226647   1.529   2.584  15.083 -0.4878 -0.0921 -0.2404
 1719TIP3    H126648   1.468   2.592  15.156  0.3623  0.9333  0.3650
 1719TIP3    H226649   1.477   2.546  15.012 -1.9945  1.3603  0.0662
 1720TIP3   OH226650   1.938   2.804  11.427  0.1722 -0.2831  0.0447
 1720TIP3    H126651   1.931   2.892  11.464  1.3435 -0.0959 -0.1711
 1720TIP3    H226652   1.892   2.748  11.490  0.6013  0.2844  0.8726
 1721TIP3   OH226653   2.310   6.053   1.991  0.0559 -0.0436 -0.1050
 1721TIP3    H126654   2.375   6.120   2.013  0.2258  0.0759 -0.9416
 1721TIP3    H226655   2.290   6.069   1.899  0.2235 -1.2440 -0.3616
 1722TIP3   OH226656   2.400   1.679   6.450  0.1760 -0.2526  0.0704
 1722TIP3    H126657   2.360   1.619   6.514 -2.0023 -0.2207 -1.2221
 1722TIP3    H226658   2.450   1.622   6.392 -0.2640 -0.6147  0.0423
 1723TIP3   OH226659   3.278   0.287  13.188 -0.3037 -0.5422 -0.4573
 1723TIP3    H126660   3.279   0.363  13.130  0.7734 -0.0485  0.1834
 1723TIP3    H226661   3.186   0.273  13.209 -0.4735  0.8103 -0.2952
 1724TIP3   OH226662   1.264   4.725  15.225  0.5109 -0.7749 -0.6188
 1724TIP3    H126663   1.291   4.694  15.312 -0.6873 -1.9296 -0.6516
 1724TIP3    H226664   1.179   4.765  15.240 -0.3022 -2.1553 -1.4808
 1725TIP3   OH226665   2.710   0.216   2.915 -0.5961 -0.5782 -0.1423
 1725TIP3    H126666   2.714   0.129   2.874 -1.5327 -0.8243  0.2602
 1725TIP3    H226667   2.638   0.260   2.869  0.3163  0.2401 -0.8115
 1726TIP3   OH226668   0.284   2.269   3.155 -0.1920  0.0884 -0.0445
 1726TIP3    H126669   0.363   2.287   3.206 -0.5764  0.2086  0.5228
 1726TIP3    H226670   0.271   2.348   3.102 -0.1443  0.2265  0.1479
 1727TIP3   OH226671   1.067   2.645  16.546 -0.0462  0.2814 -0.1104
 1727TIP3    H126672   0.998   2.673  16.487 -0.3479  0.8026  0.4905
 1727TIP3    H226673   1.032   2.568  16.591  0.4052 -0.4736 -1.0287
 1728TIP3   OH226674   3.437   2.692  17.043 -0.0445  0.0350 -0.0620
 1728TIP3    H126675   3.433   2.657  17.132  1.4998 -1.4917 -0.5683
 1728TIP3    H226676   3.366   2.647  16.997 -1.0805  1.0941  0.4631
 1729TIP3   OH226677   4.984   2.383   1.768  0.1602  0.3753 -0.2066
 1729TIP3    H126678   4.927   2.323   1.719  1.8709  1.1155 -3.1877
 1729TIP3    H226679   5.034   2.326   1.827 -2.1813 -0.4870  1.0182
 1730TIP3   OH226680   2.263   6.247  17.019  0.3551 -0.0556  0.0606
 1730TIP3    H126681   2.312   6.173  16.982  0.5814 -0.7570  1.6956
 1730TIP3    H226682   2.324   6.286  17.082 -0.3770  0.4895  0.4305
 1731TIP3   OH226683   3.356   5.343   5.114 -0.2462 -0.1712 -0.1831
 1731TIP3    H126684   3.375   5.321   5.205  0.8141 -0.0159 -0.3565
 1731TIP3    H226685   3.361   5.260   5.068 -2.1379 -0.4667  0.1063
 1732TIP3   OH226686   2.016   5.839   0.787  0.0934 -0.5336 -0.3103
 1732TIP3    H126687   1.993   5.774   0.720  0.4544 -0.6363 -0.3366
 1732TIP3    H226688   1.995   5.923   0.747  1.8440 -0.4874 -1.1895
 1733TIP3   OH226689   5.704   4.685   5.537  0.0148  0.1950 -0.4029
 1733TIP3    H126690   5.789   4.727   5.524  0.0255  0.3979  0.3063
 1733TIP3    H226691   5.641   4.753   5.511  0.0801 -0.2927 -1.8799
 1734TIP3   OH226692   5.925   5.378   4.185  0.0490 -0.9856  0.0689
 1734TIP3    H126693   5.919   5.423   4.270 -0.6230 -0.8439 -0.0538
 1734TIP3    H226694   5.877   5.296   4.198  0.0914 -1.0408 -0.1288
 1735TIP3   OH226695   0.565   3.991  12.635  0.3857  0.2711 -0.1758
 1735TIP3    H126696   0.484   3.944  12.655  0.8675 -1.0027 -1.1883
 1735TIP3    H226697   0.625   3.968  12.705  0.8158 -1.1288 -0.9857
 1736TIP3   OH226698   3.423   0.428  11.233  0.5790  0.0135 -0.1924
 1736TIP3    H126699   3.403   0.392  11.146  1.7886  1.1473 -0.9593
 1736TIP3    H226700   3.495   0.374  11.265 -0.5012 -1.0237  0.5410
 1737TIP3   OH226701   4.531   6.631  11.582  0.4383 -0.0600 -0.2427
 1737TIP3    H126702   4.532   6.575  11.504 -0.4860 -0.7422  0.2296
 1737TIP3    H226703   4.458   6.691  11.568  0.5461  0.1038 -0.1069
 1738TIP3   OH226704   6.556   5.357   2.693 -0.4000  0.3009  0.7924
 1738TIP3    H126705   6.463   5.341   2.712 -0.3542  0.2332  0.9580
 1738TIP3    H226706   6.600   5.275   2.715 -0.3942  0.1017  0.0538
 1739TIP3   OH226707   2.163   4.183   5.056  0.3601 -0.0578  0.2954
 1739TIP3    H126708   2.225   4.111   5.047  0.0555 -0.1654 -0.9766
 1739TIP3    H226709   2.130   4.198   4.968 -1.5860 -0.1335  1.0038
 1740TIP3   OH226710   2.463   1.481  10.646  0.6935 -0.4041 -0.1718
 1740TIP3    H126711   2.529   1.414  10.666  0.5399 -0.3793  0.4150
 1740TIP3    H226712   2.383   1.432  10.627  0.2754 -0.3517  1.3960
 1741TIP3   OH226713   0.410   0.901   4.831 -0.1254 -0.1167 -0.0748
 1741TIP3    H126714   0.324   0.886   4.792  0.0952  1.0347 -1.0333
 1741TIP3    H226715   0.404   0.988   4.869  0.5971 -0.0475 -0.1100
 1742TIP3   OH226716   4.469   3.140   2.100  0.2627 -0.3634  0.0853
 1742TIP3    H126717   4.463   3.109   2.010  0.1513 -2.6530  0.8511
 1742TIP3    H226718   4.416   3.220   2.101 -1.2526 -1.3051 -1.4554
 1743TIP3   OH226719   1.242   1.454   6.500 -0.1774 -0.1286 -0.2763
 1743TIP3    H126720   1.182   1.407   6.559 -0.2086  1.1355  0.7327
 1743TIP3    H226721   1.205   1.441   6.413  1.0136 -3.7589 -0.2799
 1744TIP3   OH226722   3.444   2.584  15.700  0.4779 -0.3231  0.3061
 1744TIP3    H126723   3.419   2.669  15.735  1.1668 -0.1710  0.4365
 1744TIP3    H226724   3.506   2.604  15.630 -1.1074 -0.6060 -1.2204
 1745TIP3   OH226725   1.937   0.682  11.805 -0.2577 -0.2590  0.8551
 1745TIP3    H126726   1.992   0.620  11.853 -0.0139  0.4300  1.4738
 1745TIP3    H226727   1.851   0.674  11.845 -0.6731 -1.4875 -0.2499
 1746TIP3   OH226728   1.196   2.670  15.761  0.6299 -0.5177  0.0658
 1746TIP3    H126729   1.177   2.601  15.826 -0.9844 -1.0027 -0.8842
 1746TIP3    H226730   1.121   2.729  15.767 -0.0704 -1.1506 -2.0934
 1747TIP3   OH226731   0.932   6.488  11.716  0.6097  0.7404 -0.3764
 1747TIP3    H126732   1.019   6.525  11.701  2.0460 -1.6323  1.6858
 1747TIP3    H226733   0.924   6.483  11.811 -0.9160 -1.0408 -0.5675
 1748TIP3   OH226734   0.562   1.187  15.364  0.4951  0.3678 -0.5211
 1748TIP3    H126735   0.565   1.134  15.284  0.8377  2.5837 -2.0153
 1748TIP3    H226736   0.474   1.222  15.366  0.2898 -0.1936  0.4319
 1749TIP3   OH226737   3.068   0.929  12.770  0.6184  0.8697 -0.0813
 1749TIP3    H126738   3.151   0.973  12.755 -0.2118  3.1343  1.6168
 1749TIP3    H226739   3.025   0.930  12.684  1.2552  2.0314 -0.4055
 1750TIP3   OH226740   6.624   4.039   5.318  0.4112 -0.0210 -0.4212
 1750TIP3    H126741   6.643   3.953   5.355  2.7058  1.0696  1.0280
 1750TIP3    H226742   6.692   4.053   5.253  0.3146  0.8817 -0.3342
 1751TIP3   OH226743   6.676   0.722  17.235 -0.0409 -0.2145  0.0136
 1751TIP3    H126744   6.744   0.660  17.260 -1.4333 -1.1297  1.6488
 1751TIP3    H226745   6.622   0.675  17.172 -0.8411 -0.5082  0.9159
 1752TIP3   OH226746   4.539   0.303   0.707  0.0286 -0.1474 -0.1105
 1752TIP3    H126747   4.609   0.308   0.642 -0.4200  0.5121 -0.5537
 1752TIP3    H226748   4.573   0.352   0.782 -0.0096  0.2974 -0.3801
 1753TIP3   OH226749   2.162   3.893   6.377  0.1193  0.4753 -0.1285
 1753TIP3    H126750   2.128   3.850   6.299 -1.7789 -0.7364  1.3432
 1753TIP3    H226751   2.189   3.822   6.435  0.5569  1.3326  0.7425
 1754TIP3   OH226752   3.190   1.824  15.626  0.4942 -0.3015 -0.2709
 1754TIP3    H126753   3.155   1.913  15.615  0.1391 -0.5287 -1.0469
 1754TIP3    H226754   3.284   1.837  15.641  0.4412  0.2134 -0.3689
 1755TIP3   OH226755   4.141   6.298  11.599 -0.2025 -0.6031  0.2719
 1755TIP3    H126756   4.051   6.322  11.622 -0.5200 -0.9854 -0.5473
 1755TIP3    H226757   4.135   6.208  11.569  0.2977 -0.3040 -0.7373
 1756TIP3   OH226758   0.223   5.781   4.893  0.5398  0.3960  0.0359
 1756TIP3    H126759   0.241   5.796   4.800  1.9969 -0.4049  0.1846
 1756TIP3    H226760   0.279   5.708   4.917 -2.0513 -1.4138  0.8044
 1757TIP3   OH226761   3.622   2.506   1.347  0.0004  0.5011 -0.1974
 1757TIP3    H126762   3.621   2.459   1.430  1.6068 -0.5387 -0.7462
 1757TIP3    H226763   3.596   2.595   1.370  0.0402  0.1287  1.3561
 1758TIP3   OH226764   2.888   3.515   3.504  0.5675  0.1422 -0.4715
 1758TIP3    H126765   2.794   3.528   3.517  0.3047 -0.2370 -1.9045
 1758TIP3    H226766   2.898   3.421   3.491  0.8068  0.4773 -2.8387
 1759TIP3   OH226767   3.360   1.287  14.772 -0.3065  0.4904 -0.1810
 1759TIP3    H126768   3.426   1.346  14.735 -0.7076  0.6102 -0.7102
 1759TIP3    H226769   3.411   1.213  14.807  0.0653  0.3356 -1.0443
 1760TIP3   OH226770   0.672   6.536  13.424  0.3216  0.3612  0.3145
 1760TIP3    H126771   0.589   6.492  13.403  0.5916  0.6288 -1.3921
 1760TIP3    H226772   0.705   6.567  13.340  0.1511  3.8495  1.4154
 1761TIP3   OH226773   1.963   3.977  11.521  0.0197  1.0304 -0.1146
 1761TIP3    H126774   2.041   3.997  11.469 -0.4910  0.8207 -0.9740
 1761TIP3    H226775   1.948   3.883  11.507 -1.6435  1.5028 -1.7188
 1762TIP3   OH226776   4.348   4.894  12.092 -0.1093  0.3292  0.1526
 1762TIP3    H126777   4.393   4.811  12.108  0.6261  0.6003 -0.4888
 1762TIP3    H226778   4.416   4.952  12.058 -0.6699  1.1295  0.3904
 1763TIP3   OH226779   3.409   3.376  13.496  0.2421 -0.2118  0.1761
 1763TIP3    H126780   3.360   3.449  13.457 -0.9791 -0.2193  1.6318
 1763TIP3    H226781   3.487   3.368  13.441  0.0445  1.7159 -0.4540
 1764TIP3   OH226782   0.051   1.248  11.138 -0.3983  0.1750 -0.3477
 1764TIP3    H126783   0.111   1.177  11.115 -2.2082 -0.9048 -1.7698
 1764TIP3    H226784   0.046   1.302  11.059 -1.5590  0.0734 -0.3482
 1765TIP3   OH226785   1.894   0.044   1.414  0.2172  0.1529 -0.1844
 1765TIP3    H126786   1.820   0.003   1.370 -0.0832 -0.5933  1.0054
 1765TIP3    H226787   1.950   0.074   1.343 -0.1135 -1.3054 -1.0738
 1766TIP3   OH226788   1.746   2.082  12.009 -0.0727  0.1005  0.0142
 1766TIP3    H126789   1.819   2.058  11.952 -1.8143  0.4705 -2.4780
 1766TIP3    H226790   1.763   2.172  12.034  0.8637 -0.1582  0.2957
 1767TIP3   OH226791   3.814   5.325   4.249 -0.5473 -0.3212  0.5900
 1767TIP3    H126792   3.881   5.311   4.316 -0.7734  1.0023  1.1221
 1767TIP3    H226793   3.731   5.323   4.297 -0.8251 -0.9909  0.0886
 1768TIP3   OH226794   1.244   1.692  16.566  0.3943  0.2168  0.2203
 1768TIP3    H126795   1.205   1.609  16.594  0.8139 -0.1373 -0.2203
 1768TIP3    H226796   1.304   1.716  16.636  1.0827 -0.4175 -0.1412
 1769TIP3   OH226797   4.796   3.977   4.921 -0.6819  0.0730  0.0208
 1769TIP3    H126798   4.881   4.014   4.896  0.2446 -0.8380  1.7269
 1769TIP3    H226799   4.780   3.908   4.856 -0.1265  0.2724 -0.3340
 1770TIP3   OH226800   1.601   6.272  11.845 -0.0977  0.2537 -0.0486
 1770TIP3    H126801   1.686   6.316  11.847 -0.9001  1.8277  0.5225
 1770TIP3    H226802   1.558   6.299  11.926 -1.1764 -0.4460 -0.3788
 1771TIP3   OH226803   0.574   1.421   2.841  0.1518  0.3386 -0.3739
 1771TIP3    H126804   0.613   1.347   2.794  0.5653 -0.5000  1.2765
 1771TIP3    H226805   0.485   1.393   2.861  0.2929  0.3085  0.2115
 1772TIP3   OH226806   4.801   5.118   0.638 -0.2618  0.2672  0.0061
 1772TIP3    H126807   4.868   5.051   0.625  0.3608  0.4118  2.3352
 1772TIP3    H226808   4.827   5.163   0.718 -1.3642  2.4783 -0.8280
 1773TIP3   OH226809   1.130   3.381   1.764 -0.1333 -0.4493  0.4438
 1773TIP3    H126810   1.154   3.464   1.722 -1.6813 -0.8666 -1.3203
 1773TIP3    H226811   1.164   3.314   1.705  2.1068 -1.1367  2.4191
 1774TIP3   OH226812   4.516   1.080   4.425  0.4080 -0.7473  0.4345
 1774TIP3    H126813   4.577   1.044   4.361 -0.3835 -1.3451  0.0105
 1774TIP3    H226814   4.572   1.130   4.485  1.0450  0.6109 -1.2385
 1775TIP3   OH226815   4.180   5.364  14.317 -0.2672 -0.2042 -0.2261
 1775TIP3    H126816   4.187   5.302  14.390  0.1702  1.4488  1.1769
 1775TIP3    H226817   4.088   5.391  14.318  0.2261  1.5115  1.1770
 1776TIP3   OH226818   2.379   5.149   3.373 -0.2433 -0.0823 -0.0736
 1776TIP3    H126819   2.414   5.122   3.288 -0.1715 -0.5298  0.0957
 1776TIP3    H226820   2.442   5.213   3.406 -0.3241  0.1660 -0.4019
 1777TIP3   OH226821   1.380   1.864   5.755  0.2463  0.6538 -0.1082
 1777TIP3    H126822   1.398   1.810   5.833 -0.2094 -0.9099 -1.0621
 1777TIP3    H226823   1.378   1.954   5.788  3.0258  0.3029  1.2106
 1778TIP3   OH226824   5.468   5.720   5.934 -0.0245 -0.2775 -0.5481
 1778TIP3    H126825   5.414   5.760   6.002  0.0639  0.1651 -0.7327
 1778TIP3    H226826   5.527   5.790   5.906  0.3252 -0.6205 -0.6791
 1779TIP3   OH226827   4.532   3.969  11.632 -0.3516 -0.4766 -0.2604
 1779TIP3    H126828   4.528   4.062  11.653  0.4156  0.1321 -2.5701
 1779TIP3    H226829   4.597   3.933  11.693 -1.6038  0.2211  1.5035
 1780TIP3   OH226830   3.353   6.093  12.677  0.2274 -0.0666  0.7662
 1780TIP3    H126831   3.335   6.098  12.583 -2.6963 -2.0699  1.1415
 1780TIP3    H226832   3.349   6.183  12.707  0.9743  0.5779 -0.9975
 1781TIP3   OH226833   4.681   2.433   2.062 -0.1715 -0.0053 -0.1723
 1781TIP3    H126834   4.596   2.478   2.050 -0.2823 -0.6043 -1.7420
 1781TIP3    H226835   4.665   2.370   2.132 -1.2094 -0.5880 -0.9339
 1782TIP3   OH226836   0.678   6.402   4.203 -0.0743  0.3245  0.4569
 1782TIP3    H126837   0.619   6.447   4.142 -0.2571 -0.0030  0.3912
 1782TIP3    H226838   0.638   6.416   4.289  1.1232  2.3093  0.7310
 1783TIP3   OH226839   3.134   6.588   3.559 -0.0331  0.2864  0.2537
 1783TIP3    H126840   3.066   6.528   3.588  0.3368 -0.9696 -1.3883
 1783TIP3    H226841   3.122   6.666   3.613 -1.5234 -0.6562  1.3246
 1784TIP3   OH226842   5.009   3.225   2.503 -0.2410 -0.6487  0.7957
 1784TIP3    H126843   4.917   3.224   2.529 -0.3630  1.0194  0.4615
 1784TIP3    H226844   5.048   3.297   2.553 -0.0518  1.3580 -2.1551
 1785TIP3   OH226845   5.689   5.596   6.245  0.2141  0.3595  0.4280
 1785TIP3    H126846   5.620   5.571   6.184  1.2807 -0.9488 -0.2805
 1785TIP3    H226847   5.666   5.554   6.327 -0.4795  0.9578  0.5444
 1786TIP3   OH226848   2.777   3.806   4.104 -0.3116 -0.1659 -0.3980
 1786TIP3    H126849   2.848   3.763   4.058  0.8668  0.7651  0.4969
 1786TIP3    H226850   2.744   3.871   4.043  1.0396  0.8525 -0.0841
 1787TIP3   OH226851   4.151   4.816  16.511  0.1662  0.0191  0.4896
 1787TIP3    H126852   4.092   4.865  16.569 -0.0076 -0.8485  1.0389
 1787TIP3    H226853   4.212   4.772  16.570  0.4192 -0.3070 -0.0168
 1788TIP3   OH226854   1.997   5.568  14.168  0.2785  0.0168 -0.0073
 1788TIP3    H126855   2.056   5.492  14.169  0.0233 -0.1752  0.6623
 1788TIP3    H226856   2.041   5.632  14.224  0.4594  0.3486 -0.5177
 1789TIP3   OH226857   0.268   0.966   5.526  0.1929  0.2672  0.1924
 1789TIP3    H126858   0.278   1.057   5.553 -0.7552  0.3882  0.1509
 1789TIP3    H226859   0.194   0.967   5.465 -2.4314 -1.1125  3.1899
 1790TIP3   OH226860   6.620   2.160   0.794  0.5624  0.4273 -0.2149
 1790TIP3    H126861   6.704   2.187   0.755  1.6169  1.9201  2.9727
 1790TIP3    H226862   6.560   2.232   0.774  0.5342  0.2487 -0.8041
 1791TIP3   OH226863   5.609   2.579   6.193 -0.1967 -0.1463  0.1449
 1791TIP3    H126864   5.630   2.577   6.286  1.8760 -0.6463 -0.3232
 1791TIP3    H226865   5.513   2.583   6.191 -0.3782 -2.3640  2.2521
 1792TIP3   OH226866   5.624   4.169   1.047  0.5157 -0.7421  0.1853
 1792TIP3    H126867   5.706   4.174   0.998 -0.0846  0.1741 -0.7693
 1792TIP3    H226868   5.589   4.258   1.044  0.1211 -0.8317  1.7031
 1793TIP3   OH226869   2.968   6.137  12.458 -0.0901 -0.1869 -0.4247
 1793TIP3    H126870   2.927   6.215  12.496  1.2452 -0.0039  0.7021
 1793TIP3    H226871   2.952   6.144  12.364 -0.6028  1.0674 -0.2513
 1794TIP3   OH226872   5.810   6.592  14.383  0.3070 -0.3064  0.3604
 1794TIP3    H126873   5.866   6.662  14.416  2.1509 -2.2399  1.5076
 1794TIP3    H226874   5.764   6.560  14.461 -1.3468  0.3350 -0.3393
 1795TIP3   OH226875   1.211   4.817  15.587  0.0096 -0.0901  0.0569
 1795TIP3    H126876   1.245   4.901  15.616  0.0593  0.1924 -0.7866
 1795TIP3    H226877   1.284   4.777  15.538 -0.7557  0.3929 -1.5138
 1796TIP3   OH226878   1.327   3.921  16.233 -0.5639 -0.1387 -0.5611
 1796TIP3    H126879   1.266   3.992  16.254  0.8600  1.6022 -2.0849
 1796TIP3    H226880   1.368   3.949  16.151  2.5833 -1.0235  0.6482
 1797TIP3   OH226881   4.809   6.385   5.845  0.3136 -0.3576 -0.0036
 1797TIP3    H126882   4.739   6.392   5.780  0.9128 -2.2891 -0.9012
 1797TIP3    H226883   4.839   6.475   5.858 -1.0297  0.2593 -1.0511
 1798TIP3   OH226884   0.902   6.229  13.930 -0.4593 -0.0333 -0.3327
 1798TIP3    H126885   0.851   6.158  13.891  0.4041 -1.7481  1.5607
 1798TIP3    H226886   0.835   6.292  13.961 -1.2702 -0.5136 -1.0986
 1799TIP3   OH226887   5.006   4.301   2.291 -0.3112 -0.4085  0.7918
 1799TIP3    H126888   4.911   4.310   2.301 -0.3205  0.2044  0.1349
 1799TIP3    H226889   5.021   4.207   2.298 -1.0656 -0.5936  0.0617
 1800TIP3   OH226890   2.918   1.333  14.597 -0.0151 -0.4312 -0.3943
 1800TIP3    H126891   2.922   1.249  14.641 -1.7717  1.0622  2.7902
 1800TIP3    H226892   2.832   1.334  14.555 -0.5954  0.2807  0.7673
 1801TIP3   OH226893   4.955   6.444  16.847  0.4750 -0.0513 -0.2842
 1801TIP3    H126894   5.002   6.474  16.768  2.3210  1.2719  1.2513
 1801TIP3    H226895   4.984   6.505  16.916  0.7461 -2.6223  1.9324
 1802TIP3   OH226896   0.903   0.527   5.120 -0.0149  0.4221 -0.1745
 1802TIP3    H126897   0.930   0.442   5.154  0.5358  1.0941  1.1027
 1802TIP3    H226898   0.932   0.526   5.028  2.5485  0.3094  0.5879
 1803TIP3   OH226899   5.926   5.104  17.062 -0.1881  0.3814  0.1445
 1803TIP3    H126900   6.001   5.045  17.057 -0.9303 -0.6180  0.9217
 1803TIP3    H226901   5.866   5.073  16.995 -0.7111  0.0758  0.7553
 1804TIP3   OH226902   2.544   3.480  14.564  0.1356  0.4021 -0.9913
 1804TIP3    H126903   2.526   3.549  14.499  1.3793  1.8985  0.2205
 1804TIP3    H226904   2.630   3.446  14.540  1.1531  1.8092  0.5805
 1805TIP3   OH226905   4.527   0.773   0.524  0.5035 -0.3808  0.5170
 1805TIP3    H126906   4.445   0.729   0.544  0.6291 -0.6679  0.4003
 1805TIP3    H226907   4.501   0.860   0.494  0.3369  0.2548  2.4419
 1806TIP3   OH226908   6.154   5.533  12.647  0.1685 -0.1825 -0.5753
 1806TIP3    H126909   6.241   5.552  12.682 -0.0928 -0.8708  0.4798
 1806TIP3    H226910   6.157   5.564  12.557  1.4384 -0.0003 -0.4809
 1807TIP3   OH226911   4.336   0.650   5.028  0.0581 -0.6569  0.0941
 1807TIP3    H126912   4.277   0.585   5.065  1.5728 -1.0028  1.9661
 1807TIP3    H226913   4.418   0.603   5.013  0.7412  0.4834  0.1798
 1808TIP3   OH226914   3.037   5.642  13.811 -0.9120 -0.0010 -0.8454
 1808TIP3    H126915   3.040   5.608  13.900 -0.9717  0.8915 -0.5057
 1808TIP3    H226916   3.128   5.663  13.790 -1.1574  1.6924 -0.2600
 1809TIP3   OH226917   0.863   0.513  13.970  0.8213  0.1927 -0.0593
 1809TIP3    H126918   0.846   0.513  13.876 -0.0999 -2.1313  0.0554
 1809TIP3    H226919   0.825   0.595  14.002 -1.8443 -0.5044 -1.2682
 1810TIP3   OH226920   4.374   6.230   0.124  0.4052 -0.0526 -0.7985
 1810TIP3    H126921   4.411   6.204   0.040 -2.2832 -0.7114 -1.8152
 1810TIP3    H226922   4.403   6.321   0.135 -0.0510  0.3804 -2.9367
 1811TIP3   OH226923   0.511   3.548   6.342 -0.0065 -0.2959  0.5033
 1811TIP3    H126924   0.496   3.457   6.367  1.3100 -0.8530 -0.6866
 1811TIP3    H226925   0.583   3.577   6.398 -0.4570  0.0348  0.9156
 1812TIP3   OH226926   0.326   6.492   1.649  0.4896  0.3629 -0.4538
 1812TIP3    H126927   0.344   6.406   1.688 -1.5655  0.4008  0.6232
 1812TIP3    H226928   0.291   6.471   1.562 -0.8199  0.0651  0.1345
 1813TIP3   OH226929   1.148   5.909  14.324 -0.4057  0.0345 -0.1939
 1813TIP3    H126930   1.168   5.844  14.256 -1.5668 -0.0409 -0.4618
 1813TIP3    H226931   1.232   5.923  14.368 -0.3418 -2.4171  0.5447
 1814TIP3   OH226932   0.979   2.408   0.261 -0.3058 -0.0380  0.0721
 1814TIP3    H126933   0.893   2.381   0.292 -1.6266  1.6417 -1.9994
 1814TIP3    H226934   1.006   2.338   0.200 -0.5603 -0.1667  0.1079
 1815TIP3   OH226935   6.755   5.772  12.926 -0.6136  0.4430 -0.6139
 1815TIP3    H126936   6.798   5.692  12.896 -1.4674 -1.3177  2.6397
 1815TIP3    H226937   6.689   5.790  12.860  1.0824 -0.2307 -2.5369
 1816TIP3   OH226938   6.237   3.997   0.194  0.3147 -0.0234  0.1094
 1816TIP3    H126939   6.279   3.956   0.270 -1.8230 -1.8088  0.3715
 1816TIP3    H226940   6.182   3.928   0.156 -0.3645  1.4883 -1.7667
 1817TIP3   OH226941   1.683   2.320   5.360  0.0411 -0.4014  0.0745
 1817TIP3    H126942   1.692   2.387   5.293 -0.9560 -0.1318  0.1976
 1817TIP3    H226943   1.769   2.279   5.365  0.8437  1.2759  0.4306
 1818TIP3   OH226944   3.014   1.161   5.083 -0.0098 -0.1038  0.6670
 1818TIP3    H126945   3.064   1.242   5.086  0.0282 -0.1226  0.4941
 1818TIP3    H226946   3.009   1.133   5.175 -0.5188  0.3974  0.7966
 1819TIP3   OH226947   0.059   2.826  11.559 -0.0875 -0.1422 -0.1848
 1819TIP3    H126948   0.100   2.910  11.578 -0.7522  0.1347  0.0496
 1819TIP3    H226949  -0.032   2.837  11.585 -0.6258 -0.3153 -1.9568
 1820TIP3   OH226950   6.004   6.798  16.567 -0.1702  0.7543 -0.1047
 1820TIP3    H126951   5.926   6.852  16.573 -0.5417  0.1034  1.0156
 1820TIP3    H226952   6.057   6.823  16.643  1.3068  2.0932 -1.5206
 1821TIP3   OH226953   5.483   2.005  12.978  0.8808 -0.1963 -0.3032
 1821TIP3    H126954   5.531   1.922  12.978  1.1735 -0.0313 -0.8450
 1821TIP3    H226955   5.432   2.003  12.897  0.2479 -0.2114  0.0926
 1822TIP3   OH226956   1.544   3.248   3.438 -0.0457  0.1785  0.0358
 1822TIP3    H126957   1.536   3.197   3.518 -1.4989 -1.0111 -0.8216
 1822TIP3    H226958   1.457   3.243   3.398  0.2164  2.0650 -0.8444
 1823TIP3   OH226959   4.985   4.126  14.905 -0.9301 -0.7220 -0.5171
 1823TIP3    H126960   5.076   4.099  14.922 -0.3817  0.4859 -1.4341
 1823TIP3    H226961   4.947   4.053  14.856  0.4213 -0.0122 -2.6573
 1824TIP3   OH226962   0.718   4.388   3.417  0.2878 -0.2345 -0.1795
 1824TIP3    H126963   0.681   4.336   3.345  0.3146 -2.4282  1.3270
 1824TIP3    H226964   0.647   4.447   3.442  0.9139  1.9323 -3.2327
 1825TIP3   OH226965   2.263   2.308  16.973 -0.2422  0.0815 -0.2499
 1825TIP3    H126966   2.228   2.298  17.061 -2.2432 -1.0084 -1.1282
 1825TIP3    H226967   2.188   2.334  16.920  1.1299  1.6766 -1.4794
 1826TIP3   OH226968   2.287   3.441  11.596  0.0784 -0.0774  0.2420
 1826TIP3    H126969   2.351   3.490  11.544 -0.8792 -0.4488 -1.3250
 1826TIP3    H226970   2.276   3.359  11.549 -0.6873 -0.4919  1.1392
 1827TIP3   OH226971   1.821   5.085  14.547  0.1597 -0.1893  0.3072
 1827TIP3    H126972   1.763   5.024  14.593  0.5120 -0.7188  0.0630
 1827TIP3    H226973   1.800   5.171  14.584 -0.5958 -0.4091  0.3994
 1828TIP3   OH226974   3.089   5.072   0.072 -0.2477 -0.1905  0.5717
 1828TIP3    H126975   3.133   4.994   0.108 -2.0022 -0.9898  1.0324
 1828TIP3    H226976   3.003   5.040   0.044  0.3769  0.8044 -2.7178
 1829TIP3   OH226977   0.688   2.233  13.565 -0.5957 -0.5961  0.2235
 1829TIP3    H126978   0.764   2.175  13.563  0.1098  0.3331 -0.5203
 1829TIP3    H226979   0.694   2.276  13.651 -0.4055 -0.6965  0.2620
 1830TIP3   OH226980   4.316   1.539  13.259 -0.0170  0.2040 -0.5977
 1830TIP3    H126981   4.264   1.609  13.299  0.1189  0.9826 -1.7541
 1830TIP3    H226982   4.406   1.558  13.285 -0.2752 -1.0922  1.3268
 1831TIP3   OH226983   0.376   3.407  12.834 -0.2230 -0.3359 -0.1932
 1831TIP3    H126984   0.316   3.350  12.882  1.1182 -0.5736  1.2171
 1831TIP3    H226985   0.319   3.470  12.789 -1.5343 -0.7652  0.8645
 1832TIP3   OH226986   4.906   2.373  15.426  0.4309 -0.6146 -0.2430
 1832TIP3    H126987   4.956   2.324  15.491  0.0143 -0.8215 -0.0722
 1832TIP3    H226988   4.913   2.320  15.346 -0.4213 -1.2104  0.0698
 1833TIP3   OH226989   6.803   2.559  16.349 -0.3904 -0.3675 -0.2619
 1833TIP3    H126990   6.847   2.616  16.412 -0.7710  1.2723 -1.4426
 1833TIP3    H226991   6.858   2.563  16.270 -0.9976 -0.7662 -0.7117
 1834TIP3   OH226992   2.792   6.295  12.986  0.0845 -0.0107 -0.3105
 1834TIP3    H126993   2.721   6.308  12.923  0.2179 -0.9524 -0.6600
 1834TIP3    H226994   2.812   6.201  12.981 -0.2481 -0.1954  1.4943
 1835TIP3   OH226995   5.625   5.960  16.610  0.2383 -1.0115  0.2166
 1835TIP3    H126996   5.674   6.014  16.549  0.1254 -2.4321 -1.1716
 1835TIP3    H226997   5.533   5.975  16.588  0.1375 -0.5152  0.9373
 1836TIP3   OH226998   2.970   6.761   0.230 -0.8647 -0.3018 -0.1169
 1836TIP3    H126999   3.043   6.725   0.281  0.5505 -0.5500 -2.2549
 1836TIP3    H227000   2.947   6.842   0.276 -0.2711 -0.9888  1.4474
 1837TIP3   OH227001   2.500   4.017  13.468  0.4621  0.0209 -0.2671
 1837TIP3    H127002   2.513   4.011  13.562  0.7201  0.1552 -0.2918
 1837TIP3    H227003   2.406   4.031  13.457  0.6717  1.9420  0.0820
 1838TIP3   OH227004   2.932   4.345  15.771 -0.0720 -0.5218 -0.4479
 1838TIP3    H127005   2.843   4.337  15.804 -0.0114 -0.5326 -0.2873
 1838TIP3    H227006   2.960   4.432  15.800 -0.3053 -0.2095 -1.1665
 1839TIP3   OH227007   1.746   2.070   3.746  0.0336 -0.7513  0.4040
 1839TIP3    H127008   1.791   2.050   3.828  1.3966 -0.7562 -0.3279
 1839TIP3    H227009   1.798   2.026   3.679 -0.3637  0.2769 -0.5992
 1840TIP3   OH227010   3.789   3.618  15.889  0.1964 -0.2753  0.0813
 1840TIP3    H127011   3.720   3.643  15.828  0.5716 -0.9831 -0.6512
 1840TIP3    H227012   3.823   3.701  15.922 -0.5080  0.0952 -0.1070
 1841TIP3   OH227013   0.342   6.217  14.391 -0.2003  0.5253  0.1279
 1841TIP3    H127014   0.252   6.209  14.421 -0.1195  0.5592  0.3818
 1841TIP3    H227015   0.368   6.128  14.367 -0.9591  0.8012 -1.8657
 1842TIP3   OH227016   5.147   4.472   1.332  0.4627  0.0038 -0.5139
 1842TIP3    H127017   5.058   4.504   1.319  1.1200  2.0902 -0.2009
 1842TIP3    H227018   5.158   4.471   1.428  1.1434  0.8842 -0.5745
 1843TIP3   OH227019   3.391   1.389   0.381  0.2462  0.4834 -0.1860
 1843TIP3    H127020   3.323   1.324   0.362 -1.3435  2.2254 -0.5638
 1843TIP3    H227021   3.423   1.367   0.469  1.2499 -2.0960 -1.1470
 1844TIP3   OH227022   1.634   3.447   1.830  0.6096  0.1399  0.3149
 1844TIP3    H127023   1.578   3.484   1.898  0.4689 -1.8629  1.3127
 1844TIP3    H227024   1.723   3.472   1.855  0.7005 -1.7947  2.0671
 1845TIP3   OH227025   3.959   0.530  16.027 -0.3562  0.4238  0.1841
 1845TIP3    H127026   3.926   0.456  16.078 -0.0587 -0.8375 -1.3945
 1845TIP3    H227027   3.895   0.600  16.041 -2.1575 -1.0421 -0.5450
 1846TIP3   OH227028   0.705   2.472   0.989 -0.1876 -0.1781 -0.4117
 1846TIP3    H127029   0.753   2.505   0.912 -0.4864 -0.8473 -0.8893
 1846TIP3    H227030   0.714   2.377   0.983 -0.4872 -0.2408  0.2079
 1847TIP3   OH227031   4.616   5.020  15.847 -1.1160 -0.5182  0.3020
 1847TIP3    H127032   4.536   5.057  15.885 -0.0633 -0.0484  2.1012
 1847TIP3    H227033   4.593   4.928  15.830 -1.8813 -0.5282  1.3101
 1848TIP3   OH227034   2.514   5.633   4.407  0.0575  0.0292  0.0856
 1848TIP3    H127035   2.511   5.570   4.480  0.2380 -0.1456 -0.0583
 1848TIP3    H227036   2.522   5.579   4.329 -5.0860 -0.0752 -0.5599
 1849TIP3   OH227037   1.596   0.319   1.316 -0.3674 -0.7698 -0.1041
 1849TIP3    H127038   1.655   0.298   1.388 -0.7979  0.6604  0.6920
 1849TIP3    H227039   1.511   0.283   1.344 -0.0326 -2.2760 -0.9672
 1850TIP3   OH227040   5.635   5.616  13.939  0.1667 -0.3675  0.3850
 1850TIP3    H127041   5.587   5.571  13.870 -0.9390  1.9627 -0.4236
 1850TIP3    H227042   5.593   5.702  13.946  0.5088 -0.3813  3.6924
 1851TIP3   OH227043   6.075   3.083   5.014  0.5137 -0.7256 -0.0590
 1851TIP3    H127044   6.166   3.085   4.983  0.2994  2.4514 -0.7048
 1851TIP3    H227045   6.026   3.041   4.944  1.2143 -0.8037 -0.5003
 1852TIP3   OH227046   0.103   2.482   5.601  0.8437  0.3143  0.6127
 1852TIP3    H127047   0.144   2.565   5.625 -0.0629  1.1195 -0.5970
 1852TIP3    H227048   0.021   2.481   5.651  0.1958  0.7911 -0.4369
 1853TIP3   OH227049   3.178   4.869  15.801 -0.3188  0.1434  0.2410
 1853TIP3    H127050   3.235   4.887  15.726  0.1417 -0.7321  0.3725
 1853TIP3    H227051   3.228   4.898  15.877 -0.4640  0.3068  0.2753
 1854TIP3   OH227052   2.157   0.556  16.424 -0.6524  0.0265 -0.0106
 1854TIP3    H127053   2.205   0.474  16.412  0.5649  0.7846 -0.4317
 1854TIP3    H227054   2.065   0.530  16.426 -0.3714 -1.1800 -1.7644
 1855TIP3   OH227055   0.526   2.731  14.856 -0.0494  0.0914 -0.1930
 1855TIP3    H127056   0.620   2.720  14.842  0.0655  2.2952 -1.5103
 1855TIP3    H227057   0.520   2.787  14.934 -0.2505  0.1135 -0.2244
 1856TIP3   OH227058   4.226   2.888   5.781  0.1749  0.2182 -0.2042
 1856TIP3    H127059   4.142   2.908   5.824 -0.1832  2.7843 -1.9765
 1856TIP3    H227060   4.201   2.850   5.697  0.7801  0.9901 -0.7385
 1857TIP3   OH227061   4.432   3.274   3.216 -0.1998 -0.1571 -0.5830
 1857TIP3    H127062   4.461   3.217   3.146 -2.4288  0.0628 -1.7265
 1857TIP3    H227063   4.504   3.335   3.229  1.1208 -1.5697 -1.1592
 1858TIP3   OH227064   5.858   4.655  13.238  0.0884  0.1328  0.2842
 1858TIP3    H127065   5.942   4.701  13.244  1.1930 -1.7028 -0.6760
 1858TIP3    H227066   5.801   4.716  13.191  0.6620  1.6785  1.5412
 1859TIP3   OH227067   6.775   6.590   4.980  0.3914  0.0694  0.0192
 1859TIP3    H127068   6.689   6.552   4.998  0.9613 -0.9419  0.7206
 1859TIP3    H227069   6.820   6.524   4.926  1.6099 -0.5862  1.7594
 1860TIP3   OH227070   6.709   1.778  13.712 -0.3206  0.3415  0.0962
 1860TIP3    H127071   6.745   1.690  13.703  1.5134  0.8039  2.5009
 1860TIP3    H227072   6.717   1.816  13.624 -1.1056 -1.8377 -0.9574
 1861TIP3   OH227073   0.489   2.968  11.900 -0.3065 -0.2798 -0.2259
 1861TIP3    H127074   0.496   2.889  11.954  0.2321 -1.0029 -1.3275
 1861TIP3    H227075   0.549   3.030  11.941  0.0607 -0.8035  0.0419
 1862TIP3   OH227076   0.183   1.556   2.537 -0.3632  0.8265 -0.4480
 1862TIP3    H127077   0.146   1.469   2.521 -2.1237  1.6308 -0.7884
 1862TIP3    H227078   0.271   1.551   2.499  0.1318 -1.2761  0.8765
 1863TIP3   OH227079   5.542   1.363  13.682 -0.1671 -0.1810  0.5188
 1863TIP3    H127080   5.515   1.301  13.750 -0.3467 -0.7845 -0.1041
 1863TIP3    H227081   5.590   1.432  13.730 -1.8402  0.3306  1.4836
 1864TIP3   OH227082   0.243   1.493   1.709 -0.1237 -0.1331 -0.0188
 1864TIP3    H127083   0.249   1.429   1.780 -2.1057 -1.8650 -1.3744
 1864TIP3    H227084   0.188   1.563   1.745  0.8252  0.1509  0.9373
 1865TIP3   OH227085   4.708   1.578  15.127  0.2744 -0.1059 -0.8364
 1865TIP3    H127086   4.786   1.546  15.172 -0.0425  1.0105  0.5506
 1865TIP3    H227087   4.638   1.521  15.159 -0.1423  1.3774  0.9811
 1866TIP3   OH227088   0.405   4.274  13.939 -0.3089 -0.6331 -0.7545
 1866TIP3    H127089   0.363   4.345  13.891  1.2621  0.2126 -0.8806
 1866TIP3    H227090   0.388   4.196  13.885 -1.1665 -0.2119 -1.1134
 1867TIP3   OH227091   0.110   5.260   5.205 -0.4628  0.2472 -0.3289
 1867TIP3    H127092   0.138   5.321   5.138  1.3294 -1.2467 -0.9694
 1867TIP3    H227093   0.173   5.270   5.276 -0.0115 -1.0118 -0.5372
 1868TIP3   OH227094   4.974   2.559  12.629 -0.2680 -0.1305 -0.0599
 1868TIP3    H127095   4.977   2.483  12.571  1.5064 -1.0134  1.1179
 1868TIP3    H227096   5.030   2.534  12.703  3.1300  3.6221 -1.2204
 1869TIP3   OH227097   6.539   3.229  14.807  0.6791 -0.4567  0.0382
 1869TIP3    H127098   6.600   3.298  14.781  0.7666 -0.7416 -0.5100
 1869TIP3    H227099   6.542   3.229  14.903  0.2583  0.6811  0.0596
 1870TIP3   OH227100   1.852   4.577  11.444 -0.3290 -0.4717  0.4428
 1870TIP3    H127101   1.795   4.615  11.511 -0.7845  0.7717 -0.6228
 1870TIP3    H227102   1.940   4.594  11.476 -0.5193  1.7176 -0.1057
 1871TIP3   OH227103   4.417   3.468   2.867  0.4407  0.3192 -0.1820
 1871TIP3    H127104   4.402   3.535   2.935 -1.3991  0.6725 -0.8854
 1871TIP3    H227105   4.359   3.396   2.893  2.2866 -0.9429  0.4716
 1872TIP3   OH227106   4.628   6.684  13.531 -0.1864  0.6684 -0.4572
 1872TIP3    H127107   4.549   6.638  13.559  1.9414 -2.4743  0.5634
 1872TIP3    H227108   4.651   6.643  13.447  0.9616  0.8488 -0.2300
 1873TIP3   OH227109   4.854   2.263   0.293  0.2502 -0.1897 -0.3005
 1873TIP3    H127110   4.771   2.287   0.333  0.4919 -0.4059  0.3311
 1873TIP3    H227111   4.890   2.345   0.259 -0.1014 -0.0596 -0.3575
 1874TIP3   OH227112   5.260   0.639  16.110  0.0945 -0.2267 -0.2914
 1874TIP3    H127113   5.316   0.641  16.032  1.2446  1.1524  0.5308
 1874TIP3    H227114   5.179   0.683  16.083  1.0866  1.6323 -0.2990
 1875TIP3   OH227115   2.433   0.939  14.466 -0.0594 -0.4654 -0.5225
 1875TIP3    H127116   2.348   0.898  14.483  0.1403  0.3008  2.6128
 1875TIP3    H227117   2.411   1.016  14.413 -1.3564 -0.1938  0.3748
 1876TIP3   OH227118   2.770   0.416  12.361 -0.7763 -0.2901  0.3492
 1876TIP3    H127119   2.749   0.327  12.388 -0.5426 -0.5827 -0.4327
 1876TIP3    H227120   2.793   0.409  12.269  0.2040  0.4340  0.5347
 1877TIP3   OH227121   0.935   2.202  15.049  0.2420  0.3036 -0.0180
 1877TIP3    H127122   0.971   2.228  14.965  1.8082 -0.8791  0.2624
 1877TIP3    H227123   0.960   2.110  15.058 -0.4319  0.2550  1.4603
 1878TIP3   OH227124   0.913   4.889   4.797  0.5192  0.0468 -0.6706
 1878TIP3    H127125   0.820   4.866   4.795  1.0744 -2.5196  0.7455
 1878TIP3    H227126   0.953   4.824   4.855  3.1317  1.4026 -0.8528
 1879TIP3   OH227127   3.832   0.507   2.417 -0.1818  0.0794 -0.1652
 1879TIP3    H127128   3.740   0.533   2.414 -0.0492  0.4613 -0.9317
 1879TIP3    H227129   3.870   0.543   2.337  1.0168  1.3253  0.9490
 1880TIP3   OH227130   6.039   2.350  12.149  0.1346 -0.4126  0.5456
 1880TIP3    H127131   6.062   2.311  12.233 -1.9219  0.8428  1.7257
 1880TIP3    H227132   6.021   2.442  12.169  1.0033  0.2215 -1.5097
 1881TIP3   OH227133   5.770   4.895   3.680 -0.3716  0.4777 -0.1151
 1881TIP3    H127134   5.743   4.925   3.594  0.0125  1.4995  0.1107
 1881TIP3    H227135   5.791   4.802   3.668  0.9806  0.9383 -1.4289
 1882TIP3   OH227136   2.524   4.905  15.665  0.4802  0.5111 -0.2704
 1882TIP3    H127137   2.568   4.877  15.745  1.4908 -0.8643 -1.3018
 1882TIP3    H227138   2.588   4.958  15.619  0.1567  0.6867 -0.5211
 1883TIP3   OH227139   5.372   3.714   2.490 -0.1510 -0.2757  1.1848
 1883TIP3    H127140   5.390   3.722   2.396  0.6401  1.8383  1.4832
 1883TIP3    H227141   5.439   3.654   2.523  0.8330  0.5556  0.7315
 1884TIP3   OH227142   0.471   0.461   1.708 -0.3495  0.2492 -0.3649
 1884TIP3    H127143   0.555   0.420   1.727  0.0676  2.1817  2.2967
 1884TIP3    H227144   0.413   0.388   1.684  1.3030 -1.4613  0.7152
 1885TIP3   OH227145   4.668   1.487   1.116  0.0583  0.2882 -0.6820
 1885TIP3    H127146   4.711   1.545   1.179 -1.2541  0.5150  0.0179
 1885TIP3    H227147   4.609   1.544   1.067  1.5186  0.2386 -2.5758
 1886TIP3   OH227148   4.974   5.357  16.462 -0.2845 -0.5531 -0.1865
 1886TIP3    H127149   5.008   5.328  16.547  1.2299 -0.1378 -0.6339
 1886TIP3    H227150   4.899   5.411  16.483  0.3937 -0.0275  0.9203
 1887TIP3   OH227151   4.985   1.843  13.332  0.1968  0.6574 -0.4984
 1887TIP3    H127152   4.977   1.852  13.427 -2.2018  0.5314 -0.6587
 1887TIP3    H227153   5.077   1.864  13.313  0.5913  1.0862  1.7885
 1888TIP3   OH227154   1.484   0.434   0.997  0.1539  0.0532 -0.4544
 1888TIP3    H127155   1.579   0.421   0.999  0.2417  0.5766 -1.1298
 1888TIP3    H227156   1.470   0.518   1.039 -0.1491 -0.7236  1.0291
 1889TIP3   OH227157   0.441   5.408   2.568 -0.0513 -0.1537  0.2386
 1889TIP3    H127158   0.382   5.444   2.634 -0.3239 -0.0487 -0.0589
 1889TIP3    H227159   0.398   5.427   2.485  0.3044 -0.2582  0.0290
 1890TIP3   OH227160   5.358   6.736   3.570  0.2526 -0.1811 -0.1960
 1890TIP3    H127161   5.340   6.738   3.664  0.9544 -0.7863 -0.0418
 1890TIP3    H227162   5.335   6.648   3.543  2.4773 -0.8282 -0.0780
 1891TIP3   OH227163   1.123   1.061  13.971  0.1282 -0.1802  0.2204
 1891TIP3    H127164   1.169   1.017  13.900 -0.1827 -0.6237  0.2922
 1891TIP3    H227165   1.145   1.153  13.960  0.4116 -0.2960 -0.2056
 1892TIP3   OH227166   5.098   4.681  13.060  0.2003  0.3566 -0.4457
 1892TIP3    H127167   5.189   4.680  13.088  0.2097  0.1293 -0.4804
 1892TIP3    H227168   5.048   4.666  13.141  0.1291  1.9389 -0.1868
 1893TIP3   OH227169   0.960   3.937   1.997 -0.3005 -0.0716  0.0341
 1893TIP3    H127170   1.019   3.977   2.061 -0.2714 -0.0745  0.0091
 1893TIP3    H227171   0.916   4.011   1.955  0.2980 -0.0349 -0.5355
 1894TIP3   OH227172   1.590   4.442  14.219  0.0869 -0.1052 -0.0237
 1894TIP3    H127173   1.547   4.489  14.147  0.6010 -1.1481 -1.0394
 1894TIP3    H227174   1.550   4.477  14.298 -2.1015 -0.5022 -0.9104
 1895TIP3   OH227175   1.173   5.006   5.238  0.5517  0.1445  0.0184
 1895TIP3    H127176   1.242   4.942   5.220  1.4807  1.0311  0.3841
 1895TIP3    H227177   1.176   5.017   5.333  1.1656  1.5786 -0.1603
 1896TIP3   OH227178   0.235   4.090  15.814 -0.2177 -0.1557 -0.5669
 1896TIP3    H127179   0.181   4.167  15.796 -0.8236 -0.3049  0.6261
 1896TIP3    H227180   0.185   4.039  15.878  0.6871 -0.9966 -0.5175
 1897TIP3   OH227181   6.741   5.533  16.021  0.6788 -0.0674  0.4801
 1897TIP3    H127182   6.655   5.570  16.006  0.2050 -2.3001 -2.7662
 1897TIP3    H227183   6.724   5.443  16.051  1.8558 -0.7868 -0.9650
 1898TIP3   OH227184   0.106   5.825   2.868  0.3502  0.1046  0.5601
 1898TIP3    H127185   0.165   5.889   2.908 -1.4008  1.5522  0.8833
 1898TIP3    H227186   0.077   5.868   2.787  0.1900 -0.8527  0.1071
 1899TIP3   OH227187   1.521   3.893  14.735 -0.5587  0.3777 -0.0677
 1899TIP3    H127188   1.465   3.894  14.657  0.0807 -0.6926 -0.5574
 1899TIP3    H227189   1.610   3.884  14.700 -0.0737  2.0142  0.6965
 1900TIP3   OH227190   0.256   2.699  13.085  0.1480 -0.2166  0.2272
 1900TIP3    H127191   0.216   2.685  13.000  2.3733  2.3394 -1.3242
 1900TIP3    H227192   0.192   2.752  13.133 -0.6269 -0.7218 -0.2390
 1901TIP3   OH227193   3.485   6.431  14.739  0.1130  0.1948 -0.1395
 1901TIP3    H127194   3.448   6.440  14.826  0.6482  0.2262  0.0884
 1901TIP3    H227195   3.576   6.404  14.754 -0.7519 -3.2741 -0.7417
 1902TIP3   OH227196   1.929   2.349   0.113 -0.6038 -0.2152 -0.2834
 1902TIP3    H127197   1.882   2.433   0.111  1.1784  0.9981  3.1403
 1902TIP3    H227198   1.871   2.290   0.161 -0.0144  0.3865  1.2083
 1903TIP3   OH227199   5.786   0.939  13.166 -0.0596 -0.7037  0.2327
 1903TIP3    H127200   5.764   0.876  13.098 -1.4728 -0.4556  0.4371
 1903TIP3    H227201   5.852   0.895  13.220  2.0004 -0.4370 -1.9894
 1904TIP3   OH227202   5.464   5.452  13.791 -0.2168  0.3857  0.4670
 1904TIP3    H127203   5.395   5.452  13.724  1.6605  0.4005 -1.5002
 1904TIP3    H227204   5.465   5.362  13.824 -0.3105  0.0585 -0.4007
 1905TIP3   OH227205   1.535   4.538  16.667  0.0167  0.0381 -0.9062
 1905TIP3    H127206   1.621   4.500  16.687 -0.2492 -0.2487 -0.2687
 1905TIP3    H227207   1.482   4.464  16.638 -0.3186  0.0300 -0.2787
 1906TIP3   OH227208   3.057   5.264   0.889  0.1846  0.4009  0.1824
 1906TIP3    H127209   3.145   5.228   0.890 -0.3464 -0.9019  0.3272
 1906TIP3    H227210   3.043   5.291   0.798 -0.1525 -1.5963 -0.3656
 1907TIP3   OH227211   3.932   3.200   2.458  0.4803 -0.5700  0.1909
 1907TIP3    H127212   3.880   3.243   2.390  0.8849  0.4942  0.5360
 1907TIP3    H227213   3.931   3.108   2.435 -0.9364 -0.4580 -0.2214
 1908TIP3   OH227214   4.676   6.667  16.389 -1.0724 -0.1520 -0.1585
 1908TIP3    H127215   4.756   6.719  16.376  0.2634 -2.1916 -0.3052
 1908TIP3    H227216   4.614   6.701  16.324 -0.1315  1.0862 -0.4154
 1909TIP3   OH227217   2.039   1.469   4.567  0.6942 -0.2437  0.2088
 1909TIP3    H127218   1.953   1.427   4.568  0.5712  0.0224  1.9938
 1909TIP3    H227219   2.027   1.550   4.615  1.4244  0.9133 -1.4948
 1910TIP3   OH227220   2.515   0.134   2.540  0.2832  0.2310 -0.0060
 1910TIP3    H127221   2.608   0.148   2.560 -0.1979  1.1389  1.6305
 1910TIP3    H227222   2.470   0.205   2.585 -1.2211 -0.2336 -0.7693
 1911TIP3   OH227223   3.566   4.863   1.842  0.5571 -0.3205 -0.5199
 1911TIP3    H127224   3.649   4.872   1.889  1.0755 -1.2404 -1.2521
 1911TIP3    H227225   3.558   4.946   1.794  0.5650  0.1711  0.3045
 1912TIP3   OH227226   5.877   4.658   6.000  0.2904  0.1803 -0.4070
 1912TIP3    H127227   5.821   4.715   5.948  0.2424 -0.9767 -1.6712
 1912TIP3    H227228   5.966   4.690   5.983  0.1892  0.5470 -0.2505
 1913TIP3   OH227229   2.351   0.128  11.409 -0.0850 -0.6153 -0.7932
 1913TIP3    H127230   2.390   0.051  11.449 -0.1246  0.7582  1.9574
 1913TIP3    H227231   2.421   0.166  11.356  1.6453  0.4586  2.1698
 1914TIP3   OH227232   4.886   4.344   5.830  0.1427  0.2276  0.1252
 1914TIP3    H127233   4.935   4.267   5.859 -0.8542 -0.0569  1.0806
 1914TIP3    H227234   4.949   4.393   5.777  1.3919 -0.2650  1.1100
 1915TIP3   OH227235   0.187   3.099   4.646  0.2408  0.1741  0.4035
 1915TIP3    H127236   0.143   3.157   4.584 -1.8480 -0.7908  0.9391
 1915TIP3    H227237   0.223   3.029   4.591 -1.0361 -0.3328  0.1893
 1916TIP3   OH227238   2.876   5.246   5.457 -0.9080 -0.7407  0.2385
 1916TIP3    H127239   2.851   5.286   5.374  0.4530 -0.2293  0.0557
 1916TIP3    H227240   2.967   5.273   5.470 -1.0993 -0.8348  1.8853
 1917TIP3   OH227241   0.418   2.515   5.748 -0.2925  0.0453  0.1286
 1917TIP3    H127242   0.402   2.436   5.800 -0.5106 -0.0273 -0.0511
 1917TIP3    H227243   0.443   2.482   5.662 -0.2739  0.1730  0.0857
 1918TIP3   OH227244   2.413   4.335  16.309 -0.3067 -0.4924  0.8190
 1918TIP3    H127245   2.466   4.413  16.326  1.7967 -1.3501 -1.6066
 1918TIP3    H227246   2.342   4.367  16.253  0.2155 -0.1999  0.3181
 1919TIP3   OH227247   2.507   2.001   0.412 -0.6129 -0.5639 -0.2228
 1919TIP3    H127248   2.554   1.925   0.379  1.3614  0.2855  0.5518
 1919TIP3    H227249   2.468   2.041   0.335  1.4251 -0.3055 -1.1411
 1920TIP3   OH227250   3.482   5.229  16.777  0.2739  0.1773 -0.3044
 1920TIP3    H127251   3.514   5.306  16.824  1.8199 -0.1582 -0.7723
 1920TIP3    H227252   3.442   5.174  16.845  3.2999 -0.7262  0.8136
 1921TIP3   OH227253   1.641   2.043   6.072  1.1085 -0.7467 -0.1507
 1921TIP3    H127254   1.583   2.028   6.147 -1.3578  0.3949 -1.7527
 1921TIP3    H227255   1.594   2.005   5.998  2.1581  0.6730 -1.5790
 1922TIP3   OH227256   4.384   6.446   6.023 -0.1464 -0.4708  0.0725
 1922TIP3    H127257   4.326   6.482   6.090 -0.0308 -1.8874  0.9739
 1922TIP3    H227258   4.469   6.439   6.067  1.0254  2.6746 -1.5979
 1923TIP3   OH227259   1.215   4.737   3.826  0.5977  0.0690 -0.0247
 1923TIP3    H127260   1.209   4.779   3.912 -2.0893  0.5371 -0.4240
 1923TIP3    H227261   1.257   4.653   3.844 -1.1297 -0.4083  1.9804
 1924TIP3   OH227262   3.122   1.651  13.844  0.5479 -0.1583  0.5281
 1924TIP3    H127263   3.125   1.567  13.890  0.2326 -0.0377  0.7707
 1924TIP3    H227264   3.188   1.705  13.888  2.6216 -1.1236 -1.3168
 1925TIP3   OH227265   4.990   0.764   0.132  0.5283  0.2601  0.1363
 1925TIP3    H127266   5.059   0.763   0.199 -2.0645  1.0915  2.9333
 1925TIP3    H227267   4.966   0.856   0.124 -0.6079 -0.0804 -0.4592
 1926TIP3   OH227268   4.091   2.671  16.973  0.5516 -0.1939  0.1072
 1926TIP3    H127269   4.048   2.649  16.891 -0.0316 -1.9032  0.8433
 1926TIP3    H227270   4.183   2.648  16.958  0.3379 -1.0813  0.1255
 1927TIP3   OH227271   4.092   6.145  11.937 -0.0725 -0.1829 -0.3895
 1927TIP3    H127272   4.049   6.068  11.901 -0.2094 -0.3493  0.1350
 1927TIP3    H227273   4.108   6.201  11.861  0.9737 -1.1903 -0.9160
 1928TIP3   OH227274   2.206   2.315   2.912  0.1504  0.1442 -0.2897
 1928TIP3    H127275   2.179   2.404   2.937  1.1325 -0.0533  1.6124
 1928TIP3    H227276   2.270   2.328   2.843 -0.8647  0.8390 -1.1209
 1929TIP3   OH227277   4.080   4.174   1.643  0.1283  0.4965 -0.3693
 1929TIP3    H127278   4.097   4.195   1.551  0.6000 -0.2695 -0.4616
 1929TIP3    H227279   4.148   4.221   1.691 -0.2665  1.0928 -0.3938
 1930TIP3   OH227280   4.346   4.692  12.867 -0.6856  0.1571  0.1643
 1930TIP3    H127281   4.351   4.781  12.831  1.1862  0.2484  0.6092
 1930TIP3    H227282   4.380   4.700  12.956 -0.2495 -1.0547  0.1098
 1931TIP3   OH227283   1.728   3.945   0.148 -0.9223 -0.2077  0.4437
 1931TIP3    H127284   1.649   3.925   0.098 -2.2978 -0.7134  2.7562
 1931TIP3    H227285   1.737   4.041   0.143 -0.5283 -0.3360 -1.4847
 1932TIP3   OH227286   2.131   6.345  13.074  0.4805  0.7681 -0.5917
 1932TIP3    H127287   2.058   6.390  13.116  1.5650  1.8564  0.1419
 1932TIP3    H227288   2.146   6.268  13.130 -1.1515 -0.3770 -1.6625
 1933TIP3   OH227289   1.680   6.104   2.584  0.7191 -0.0636  0.0949
 1933TIP3    H127290   1.657   6.012   2.597 -2.9091  0.6199 -0.9781
 1933TIP3    H227291   1.684   6.140   2.672  1.0681 -0.9671  0.4614
 1934TIP3   OH227292   3.474   5.457   3.125  0.0616  0.3745  0.2973
 1934TIP3    H127293   3.527   5.509   3.065  2.5258 -0.7666  1.4248
 1934TIP3    H227294   3.434   5.390   3.069  0.7589  0.5174 -0.3730
 1935TIP3   OH227295   5.603   6.058   6.377  0.3150 -0.3542  0.3260
 1935TIP3    H127296   5.576   6.077   6.467  0.1070  0.0879  0.1744
 1935TIP3    H227297   5.521   6.055   6.328  0.5523  1.3443 -0.2035
 1936TIP3   OH227298   4.112   3.918   1.231 -0.5075  0.3501 -0.1923
 1936TIP3    H127299   4.108   4.013   1.242 -1.6293  0.0467  2.3175
 1936TIP3    H227300   4.205   3.898   1.220 -0.2060  1.6712 -0.0197
 1937TIP3   OH227301   3.345   0.779   4.821 -0.5115 -0.0978 -0.1793
 1937TIP3    H127302   3.430   0.807   4.788 -0.7497  0.4427 -0.3482
 1937TIP3    H227303   3.361   0.756   4.913  0.0642 -1.1957 -0.5435
 1938TIP3   OH227304   3.157   0.836   5.272  0.5467  0.7124 -0.7525
 1938TIP3    H127305   3.105   0.864   5.347  0.9735  0.9965 -0.5580
 1938TIP3    H227306   3.128   0.747   5.253  0.2776  0.7259 -0.3920
 1939TIP3   OH227307   4.015   4.357  14.818 -0.3194  0.3895  0.6652
 1939TIP3    H127308   4.051   4.353  14.729 -1.3976  1.2884  0.1810
 1939TIP3    H227309   4.084   4.399  14.869  0.2996 -0.1063  0.2451
 1940TIP3   OH227310   1.214   2.468   2.565  0.2858 -0.2593 -0.0175
 1940TIP3    H127311   1.228   2.404   2.496 -2.9593 -1.3614  0.2642
 1940TIP3    H227312   1.210   2.552   2.520  0.3746 -0.7294 -0.9101
 1941TIP3   OH227313   6.439   5.892   2.340 -0.0348 -0.0055  0.3949
 1941TIP3    H127314   6.379   5.937   2.400  0.2989 -1.1524  1.6009
 1941TIP3    H227315   6.525   5.931   2.357 -0.3388  1.3327 -1.0283
 1942TIP3   OH227316   5.719   2.436  15.082 -0.6233 -0.2531  0.3490
 1942TIP3    H127317   5.776   2.379  15.134 -1.0385 -1.7471 -0.8060
 1942TIP3    H227318   5.778   2.502  15.046  0.6283 -2.4176 -1.7410
 1943TIP3   OH227319   6.228   3.303  12.160 -0.2524 -0.5636 -0.4479
 1943TIP3    H127320   6.239   3.398  12.155  0.2839 -0.6952 -1.8304
 1943TIP3    H227321   6.312   3.267  12.131 -2.0176 -1.5023 -4.7281
 1944TIP3   OH227322   6.362   2.921   2.363 -0.1832 -0.7334 -0.1633
 1944TIP3    H127323   6.413   2.996   2.394 -1.8860 -0.2807  1.5704
 1944TIP3    H227324   6.407   2.845   2.399 -0.1607 -0.3889  0.5353
 1945TIP3   OH227325   0.513   2.293  16.137  0.0197  0.0224 -0.8543
 1945TIP3    H127326   0.561   2.375  16.121 -0.0423 -0.1192 -1.8184
 1945TIP3    H227327   0.441   2.318  16.195  0.1984  0.5932 -0.8748
 1946TIP3   OH227328   2.197   0.408  14.610 -0.3574  0.4614  0.1913
 1946TIP3    H127329   2.122   0.351  14.592 -0.5745  0.8036  0.0009
 1946TIP3    H227330   2.193   0.475  14.541  1.0001 -0.3902 -0.7224
 1947TIP3   OH227331   5.894   1.016   4.606 -0.3875 -0.0236  0.5929
 1947TIP3    H127332   5.917   0.958   4.534  0.0266 -0.3615  0.9979
 1947TIP3    H227333   5.815   0.978   4.644 -0.3816 -0.0579  0.5691
 1948TIP3   OH227334   5.585   0.467  16.074  0.0349 -0.7251 -0.0288
 1948TIP3    H127335   5.627   0.503  15.996 -0.6850 -1.1216 -0.6037
 1948TIP3    H227336   5.579   0.541  16.135 -0.8345 -0.0361 -0.9505
 1949TIP3   OH227337   5.398   0.946  13.089  0.0586  0.0313 -0.4507
 1949TIP3    H127338   5.475   0.942  13.033  0.2465  0.1184 -0.2018
 1949TIP3    H227339   5.414   1.022  13.145 -0.3674  0.2609 -0.6318
 1950TIP3   OH227340   2.968   0.420   1.980  0.1264 -0.5740  0.4844
 1950TIP3    H127341   3.004   0.468   1.906 -0.9074  0.8644  0.8900
 1950TIP3    H227342   2.958   0.330   1.948 -0.9019  0.1675 -1.3318
 1951TIP3   OH227343   4.411   1.251   0.078  0.0426 -0.5608  0.0200
 1951TIP3    H127344   4.418   1.301  -0.003  0.3947 -0.0787  0.3426
 1951TIP3    H227345   4.461   1.303   0.142 -2.7355  0.6261  1.3079
 1952TIP3   OH227346   1.241   4.541  15.440  0.0961  0.1190 -0.1053
 1952TIP3    H127347   1.233   4.499  15.525 -0.2087 -0.8771 -0.6137
 1952TIP3    H227348   1.251   4.468  15.378 -2.0431  0.7146 -1.1889
 1953TIP3   OH227349   6.065   2.665   1.434  0.3828 -0.2807 -0.0850
 1953TIP3    H127350   6.161   2.668   1.441  0.4811  0.9226 -1.5537
 1953TIP3    H227351   6.040   2.753   1.407 -1.2024 -0.4426  0.7741
 1954TIP3   OH227352   0.741   1.334  11.865 -0.5812 -0.0160 -0.3106
 1954TIP3    H127353   0.754   1.429  11.868 -0.0972 -0.0521 -1.1722
 1954TIP3    H227354   0.670   1.321  11.803  1.1364 -0.3728 -2.2595
 1955TIP3   OH227355   3.832   2.411   5.033 -0.6513  0.5356 -0.5743
 1955TIP3    H127356   3.770   2.477   5.002 -1.1139  0.0659 -0.6542
 1955TIP3    H227357   3.778   2.343   5.073 -0.1942  0.1043 -0.6730
 1956TIP3   OH227358   5.382   4.473   6.027  0.6197 -0.1140 -0.2681
 1956TIP3    H127359   5.303   4.527   6.025 -0.2567 -1.3399  0.3418
 1956TIP3    H227360   5.428   4.495   5.947  0.2393  1.4706 -0.0723
 1957TIP3   OH227361   6.671   6.337  14.640  0.1961 -0.3906  0.0140
 1957TIP3    H127362   6.752   6.385  14.656 -1.1369  2.0991 -0.3840
 1957TIP3    H227363   6.615   6.360  14.714 -0.8323 -0.4483 -0.7304
 1958TIP3   OH227364   6.489   0.843  15.189  0.6382  0.5175 -0.0380
 1958TIP3    H127365   6.490   0.751  15.213 -2.2303  0.7155  1.0384
 1958TIP3    H227366   6.488   0.843  15.093  0.2191 -0.5734 -0.0306
 1959TIP3   OH227367   5.363   2.964  13.089  0.1109 -0.0675  1.0360
 1959TIP3    H127368   5.301   3.018  13.040  1.4752 -0.3450 -1.0802
 1959TIP3    H227369   5.436   3.023  13.108  0.6221 -0.5616  0.6445
 1960TIP3   OH227370   5.022   6.442  15.045 -0.4229 -0.1631  0.0145
 1960TIP3    H127371   4.983   6.418  14.960  0.7234  0.4139 -0.6899
 1960TIP3    H227372   5.034   6.536  15.039 -0.2138 -0.1455  0.7825
 1961TIP3   OH227373   2.077   6.402   4.738 -0.2764 -0.0087 -0.3719
 1961TIP3    H127374   2.076   6.496   4.750 -0.3472  0.0190 -0.5941
 1961TIP3    H227375   2.158   6.373   4.781 -0.1709  0.1725 -0.4498
 1962TIP3   OH227376   0.652   4.387  10.952 -0.0456 -0.0527  0.0206
 1962TIP3    H127377   0.695   4.323  10.895  0.1007 -0.0793  0.1585
 1962TIP3    H227378   0.605   4.445  10.892  0.6256  0.3003 -0.1709
 1963TIP3   OH227379   4.058   4.632  14.546  0.1226  0.5172 -0.0327
 1963TIP3    H127380   4.082   4.661  14.633  0.9202 -0.5100  0.1025
 1963TIP3    H227381   4.000   4.700  14.512  2.4400  2.5839  0.0075
 1964TIP3   OH227382   6.672   6.200   6.061 -0.0899 -0.4654  0.7579
 1964TIP3    H127383   6.576   6.204   6.059 -0.1166 -0.9520  0.9998
 1964TIP3    H227384   6.696   6.152   5.982 -0.0226  0.0760  0.4511
 1965TIP3   OH227385   1.680   6.057  11.657  0.2875 -0.3003 -0.4292
 1965TIP3    H127386   1.629   5.977  11.667  2.4587 -1.8373 -1.3545
 1965TIP3    H227387   1.660   6.086  11.568  0.7837 -0.7325 -0.6821
 1966TIP3   OH227388   5.730   0.696  13.635 -0.2240 -0.1653 -0.0687
 1966TIP3    H127389   5.673   0.764  13.598 -0.3688  1.0347  2.2500
 1966TIP3    H227390   5.812   0.704  13.586 -0.7089  0.7416 -0.7482
 1967TIP3   OH227391   1.884   4.687  10.682  0.3207  0.2141 -0.0555
 1967TIP3    H127392   1.893   4.597  10.713  0.1540  0.7173  1.5090
 1967TIP3    H227393   1.973   4.718  10.669  0.3758 -0.1978 -0.6962
 1968TIP3   OH227394   0.606   6.391   6.512 -0.4002  0.3884 -0.1781
 1968TIP3    H127395   0.684   6.417   6.560 -0.5980  0.8600 -0.1086
 1968TIP3    H227396   0.563   6.474   6.490 -1.1573  0.1206  0.2570
 1969TIP3   OH227397   4.164   2.829   1.112  0.0271 -0.4478 -0.2511
 1969TIP3    H127398   4.100   2.863   1.050 -0.9347  2.4250  2.1599
 1969TIP3    H227399   4.235   2.894   1.111  1.5581 -2.0784 -0.7292
 1970TIP3   OH227400   4.215   4.337   3.841  0.1937 -0.3372 -0.2419
 1970TIP3    H127401   4.166   4.272   3.892  1.2083  0.2772  1.5452
 1970TIP3    H227402   4.193   4.421   3.882 -0.8495  0.4470 -2.3203
 1971TIP3   OH227403   1.787   0.036  15.448  0.0181  0.1303  0.4713
 1971TIP3    H127404   1.776   0.090  15.370  1.6781 -0.1373  0.0274
 1971TIP3    H227405   1.843   0.089  15.506 -1.3805  0.4201  1.5835
 1972TIP3   OH227406   1.300   3.694  10.776 -0.4700  0.0592  0.1213
 1972TIP3    H127407   1.344   3.630  10.719 -0.1505  0.3240  0.0715
 1972TIP3    H227408   1.213   3.703  10.739 -0.8883 -1.1706  0.7628
 1973TIP3   OH227409   1.082   4.783   0.414  0.0298  0.6748  0.0453
 1973TIP3    H127410   1.147   4.755   0.350  0.9271  2.5654  0.1048
 1973TIP3    H227411   1.002   4.737   0.388  0.6970  0.4338 -1.6589
 1974TIP3   OH227412   0.258   6.268  13.287 -0.1028  0.0498  0.4587
 1974TIP3    H127413   0.321   6.216  13.237 -0.7081  1.6996 -2.1531
 1974TIP3    H227414   0.309   6.307  13.358  0.9867 -1.6221  0.6166
 1975TIP3   OH227415   1.224   5.934  14.918  0.2473 -0.0894  0.4082
 1975TIP3    H127416   1.240   5.845  14.887  0.2445 -0.3377  1.1074
 1975TIP3    H227417   1.243   5.931  15.012 -2.0120  0.0679  0.9013
 1976TIP3   OH227418   5.312   1.036   0.456 -0.2925  0.0727 -0.0776
 1976TIP3    H127419   5.267   1.028   0.541 -0.4577 -0.5554 -0.2267
 1976TIP3    H227420   5.257   0.987   0.395 -0.5120  1.0579 -0.6802
 1977TIP3   OH227421   3.991   0.737   2.278  0.4642  0.4328 -0.4974
 1977TIP3    H127422   3.960   0.786   2.354  0.4054 -0.8350  0.3153
 1977TIP3    H227423   3.989   0.800   2.206  0.4454  1.6255  0.5321
 1978TIP3   OH227424   2.280   3.771  10.997  0.5489 -0.4473  0.2170
 1978TIP3    H127425   2.205   3.725  10.959 -1.1964  3.0157 -0.8439
 1978TIP3    H227426   2.299   3.725  11.078 -1.5870 -2.5052 -0.4026
 1979TIP3   OH227427   1.281   4.846   3.584  0.3057 -0.0489 -0.1927
 1979TIP3    H127428   1.256   4.812   3.670  1.1159  0.0642  0.0888
 1979TIP3    H227429   1.375   4.832   3.579  0.0303 -1.6271 -1.7537
 1980TIP3   OH227430   0.498   1.162   1.209  0.4461 -0.0347 -0.1222
 1980TIP3    H127431   0.512   1.117   1.126 -0.3882  2.0185 -1.4166
 1980TIP3    H227432   0.452   1.098   1.264  0.7189 -1.2941 -1.3510
 1981TIP3   OH227433   0.906   6.658  12.373 -0.5365  0.4943  0.6249
 1981TIP3    H127434   0.947   6.703  12.447  0.2481  0.1917  0.3773
 1981TIP3    H227435   0.812   6.672  12.386 -0.3772  0.9224  1.3696
 1982TIP3   OH227436   6.333   5.131  11.861 -0.3898 -0.2350  0.2320
 1982TIP3    H127437   6.419   5.124  11.903  0.2975 -1.2525 -1.2927
 1982TIP3    H227438   6.326   5.223  11.836  0.2786 -0.1601  0.3043
 1983TIP3   OH227439   6.575   5.360   1.695  0.1085 -0.0112  0.2650
 1983TIP3    H127440   6.566   5.267   1.716 -0.1261 -0.0253  0.1104
 1983TIP3    H227441   6.488   5.385   1.662 -0.8798  1.0966  3.5135
 1984TIP3   OH227442   1.584   4.285   5.898  0.0561 -0.4179 -0.3966
 1984TIP3    H127443   1.632   4.355   5.942 -1.3206 -0.8629  1.8758
 1984TIP3    H227444   1.516   4.261   5.959 -0.9108 -2.2000 -2.1310
 1985TIP3   OH227445   6.380   3.296   2.624 -0.1949 -0.0306 -0.6305
 1985TIP3    H127446   6.381   3.318   2.531  1.5625  0.2872 -0.5537
 1985TIP3    H227447   6.412   3.205   2.628  0.6755  0.2847 -0.2671
 1986TIP3   OH227448   6.456   1.041  12.303  0.2324 -0.6140 -0.0872
 1986TIP3    H127449   6.396   0.966  12.298 -1.3845  0.6665 -0.2568
 1986TIP3    H227450   6.463   1.059  12.397  0.2503 -0.6826 -0.0748
 1987TIP3   OH227451   3.127   0.964  12.477 -0.1907 -0.0183 -0.8712
 1987TIP3    H127452   3.049   0.976  12.423 -0.3624 -0.3614 -0.7031
 1987TIP3    H227453   3.181   1.040  12.459 -0.7555  0.4288 -0.6761
 1988TIP3   OH227454   1.083   3.359  14.196 -0.2703  0.1540  0.1379
 1988TIP3    H127455   1.153   3.422  14.183 -0.0014  0.0039  0.8346
 1988TIP3    H227456   1.043   3.349  14.109  0.2396  0.6215 -0.1531
 1989TIP3   OH227457   1.593   0.850  11.066 -0.1677 -0.2777 -0.1372
 1989TIP3    H127458   1.685   0.843  11.042  0.1094 -1.1867  1.1824
 1989TIP3    H227459   1.546   0.821  10.988  0.5974  1.9428 -1.4804
 1990TIP3   OH227460   4.409   3.384   0.777 -0.0164  0.6243  0.4077
 1990TIP3    H127461   4.435   3.404   0.687  2.0191  0.7252  0.9829
 1990TIP3    H227462   4.358   3.460   0.805  1.0506  1.5113 -0.0134
 1991TIP3   OH227463   0.437   4.220   6.367 -0.4494 -0.2065 -0.2915
 1991TIP3    H127464   0.487   4.140   6.351 -1.0894 -0.5400 -0.6580
 1991TIP3    H227465   0.404   4.246   6.281  1.8945  1.9157 -0.6042
 1992TIP3   OH227466   1.835   0.699   5.799  0.3029 -0.3999 -0.3673
 1992TIP3    H127467   1.878   0.626   5.843  0.1802 -0.2742 -0.0358
 1992TIP3    H227468   1.766   0.727   5.860  2.5666  2.2307  1.1211
 1993TIP3   OH227469   2.091   3.178   0.988  0.0266 -0.1534  0.0523
 1993TIP3    H127470   2.133   3.094   1.007  1.0744  0.4622  0.5283
 1993TIP3    H227471   2.074   3.216   1.075 -0.4476  0.1266 -0.1601
 1994TIP3   OH227472   4.649   5.294  12.803 -0.7871 -0.1518  0.1374
 1994TIP3    H127473   4.676   5.259  12.888 -0.3436 -0.3297 -0.0749
 1994TIP3    H227474   4.565   5.336  12.820 -1.0098 -0.7527  0.5300
 1995TIP3   OH227475   4.176   6.100   1.584 -0.3557 -0.1320  0.0102
 1995TIP3    H127476   4.257   6.142   1.615  0.4512 -0.2889 -1.8247
 1995TIP3    H227477   4.168   6.021   1.638 -0.2313  0.7822  1.3932
 1996TIP3   OH227478   0.736   0.790  16.129 -0.4359  0.5532  0.0378
 1996TIP3    H127479   0.747   0.855  16.198  0.6510  1.9767 -1.4292
 1996TIP3    H227480   0.654   0.814  16.086 -1.0121 -0.2123  0.7092
 1997TIP3   OH227481   5.509   0.332  11.275 -0.0069  0.5343 -0.1538
 1997TIP3    H127482   5.571   0.287  11.216  1.2094  0.8910  0.8294
 1997TIP3    H227483   5.518   0.286  11.358 -2.1866 -0.3737 -0.3923
 1998TIP3   OH227484   2.273   4.244  14.693  0.2777 -0.0213 -0.0560
 1998TIP3    H127485   2.344   4.188  14.663  0.9639  1.3187 -1.0025
 1998TIP3    H227486   2.308   4.289  14.770 -0.0903 -0.5127  0.3995
 1999TIP3   OH227487   4.926   4.618  13.304 -0.3741 -0.2621 -0.7691
 1999TIP3    H127488   4.896   4.567  13.379 -1.6406  1.3988 -0.0960
 1999TIP3    H227489   5.015   4.644  13.327 -0.5280 -0.3030 -0.1099
 2000TIP3   OH227490   2.995   3.804  13.000  0.3670  0.5667 -0.7129
 2000TIP3    H127491   2.920   3.758  13.038  2.1734 -1.4531  0.5310
 2000TIP3    H227492   3.024   3.863  13.069  1.3226 -0.3555 -0.3026
 2001TIP3   OH227493   3.595   5.917  11.302  0.0508 -0.2206  0.1458
 2001TIP3    H127494   3.529   5.969  11.256 -0.4932 -1.1612 -0.1322
 2001TIP3    H227495   3.599   5.834  11.254  1.7708 -0.0051 -0.1342
 2002TIP3   OH227496   1.920   4.644   6.032  0.2515  0.1453 -0.2752
 2002TIP3    H127497   1.965   4.566   6.066  0.5914 -0.2815 -1.6858
 2002TIP3    H227498   1.964   4.717   6.075  1.5897 -0.3251 -0.8135
 2003TIP3   OH227499   6.525   5.590  16.357  0.0573  0.3639 -0.5155
 2003TIP3    H127500   6.529   5.588  16.262  2.3321  0.4290 -0.4346
 2003TIP3    H227501   6.513   5.498  16.382 -0.9470  0.3916 -0.8553
 2004TIP3   OH227502   5.739   5.845   4.591  0.6531  0.3327  0.1423
 2004TIP3    H127503   5.645   5.828   4.596  0.5649  0.8863  0.4111
 2004TIP3    H227504   5.778   5.758   4.584  0.1699  0.0569  0.7931
 2005TIP3   OH227505   5.145   4.004  13.957  0.1199  0.1855  0.4056
 2005TIP3    H127506   5.186   3.972  14.038 -1.4959 -0.1123  1.1193
 2005TIP3    H227507   5.171   3.941  13.890  0.9312  0.0756  0.8113
 2006TIP3   OH227508   2.255   1.159  17.175 -0.1732 -0.7617 -0.0295
 2006TIP3    H127509   2.214   1.103  17.241 -1.3698  1.6028  1.3484
 2006TIP3    H227510   2.182   1.208  17.137  0.8533  0.1106 -0.9159
 2007TIP3   OH227511   1.848   2.067   6.239 -0.0215  0.5456 -0.0847
 2007TIP3    H127512   1.861   2.161   6.226  0.0075  0.4741 -0.5826
 2007TIP3    H227513   1.769   2.047   6.188  0.6597  0.0730 -0.9546
 2008TIP3   OH227514   2.715   2.648  13.611 -0.3091 -0.0481 -0.0080
 2008TIP3    H127515   2.797   2.675  13.570  0.3903 -1.3917  0.4780
 2008TIP3    H227516   2.698   2.561  13.576 -1.1510 -0.0721  0.4428
 2009TIP3   OH227517   1.952   1.914   2.453 -0.2001  0.0165  0.2497
 2009TIP3    H127518   1.878   1.866   2.414  0.1438  1.4170 -2.2849
 2009TIP3    H227519   2.016   1.846   2.472 -0.6976 -0.8421 -0.9920
 2010TIP3   OH227520   1.388   5.449  15.999  0.0979  0.0899 -0.1035
 2010TIP3    H127521   1.475   5.488  16.003 -0.6836  1.9008 -0.1738
 2010TIP3    H227522   1.336   5.512  15.949 -1.5631 -0.3576  1.0201
 2011TIP3   OH227523   6.206   6.612  16.537  0.5459  0.3863 -0.6668
 2011TIP3    H127524   6.123   6.659  16.549 -0.3030  0.0028 -4.3961
 2011TIP3    H227525   6.181   6.531  16.493  2.6888 -0.7228  0.1429
 2012TIP3   OH227526   4.109   1.097  11.732  0.0167  0.1306  0.6380
 2012TIP3    H127527   4.062   1.077  11.814 -1.4617  0.8145 -0.0132
 2012TIP3    H227528   4.119   1.192  11.733  0.7441  0.0536  0.4255
 2013TIP3   OH227529   3.199   5.604  14.855 -0.0277 -0.2697 -0.3007
 2013TIP3    H127530   3.244   5.521  14.871  1.1976  0.5732  0.7300
 2013TIP3    H227531   3.107   5.585  14.873  0.5476 -0.8659  2.1712
 2014TIP3   OH227532   1.127   5.444  11.721  0.0257  0.2095  0.2421
 2014TIP3    H127533   1.128   5.463  11.627 -1.5716 -1.5700 -0.1589
 2014TIP3    H227534   1.051   5.492  11.754 -0.3559 -0.4640  0.3364
 2015TIP3   OH227535   6.657   1.428   1.082 -0.4076  0.0364 -0.3384
 2015TIP3    H127536   6.685   1.511   1.042  0.4565 -0.6640 -1.2143
 2015TIP3    H227537   6.601   1.387   1.016 -0.2763 -0.3878 -0.1886
 2016TIP3   OH227538   6.086   5.557  12.323 -0.3740  0.0050  0.4722
 2016TIP3    H127539   6.169   5.604  12.335 -1.4170  1.9739  0.1891
 2016TIP3    H227540   6.022   5.626  12.306 -1.7831 -1.6042 -0.9082
 2017TIP3   OH227541   3.634   1.744  13.738  0.2456  0.1597 -0.4875
 2017TIP3    H127542   3.614   1.766  13.829 -0.4859  1.1429 -0.8696
 2017TIP3    H227543   3.554   1.768  13.690  0.3780 -0.9684 -1.2945
 2018TIP3   OH227544   4.828   4.908   5.225 -0.3331 -0.6122  0.2442
 2018TIP3    H127545   4.742   4.922   5.263  1.0777  0.4625  3.1502
 2018TIP3    H227546   4.828   4.816   5.200 -2.8165 -0.2822 -1.1766
 2019TIP3   OH227547   4.871   1.584  13.352 -0.1162  0.3415  0.5535
 2019TIP3    H127548   4.866   1.568  13.446  0.2430 -0.0408  0.5074
 2019TIP3    H227549   4.924   1.664  13.344  0.0578  0.2383  0.6669
 2020TIP3   OH227550   4.346   5.733  15.987  0.1263  0.0938  0.0930
 2020TIP3    H127551   4.282   5.762  16.052  1.1659  2.6572  0.0412
 2020TIP3    H227552   4.370   5.645  16.014 -2.5363 -0.4436  0.7872
 2021TIP3   OH227553   2.968   5.457  13.612 -0.5790  0.1292  0.0897
 2021TIP3    H127554   2.988   5.509  13.689 -1.4705  1.1856 -0.3780
 2021TIP3    H227555   3.045   5.466  13.556  0.5296 -1.5410  1.3164
 2022TIP3   OH227556   2.611   3.622  12.432  0.0664 -0.1187 -0.4350
 2022TIP3    H127557   2.561   3.703  12.445  0.9100  0.3176  0.0911
 2022TIP3    H227558   2.582   3.564  12.503 -0.2973 -0.1714 -0.6222
 2023TIP3   OH227559   6.277   0.526  12.646 -0.4550 -0.1245 -0.0231
 2023TIP3    H127560   6.252   0.546  12.555 -1.1813  1.1620  0.4497
 2023TIP3    H227561   6.198   0.543  12.697  0.6961  1.8138  1.2008
 2024TIP3   OH227562   3.944   1.077  14.020  0.2182 -0.1458 -0.6688
 2024TIP3    H127563   3.928   1.002  13.962  0.8168 -1.3374  0.6934
 2024TIP3    H227564   3.913   1.048  14.106 -1.1194  1.7851 -0.4757
 2025TIP3   OH227565   3.367   1.213  12.678 -0.1848 -0.5438  0.1113
 2025TIP3    H127566   3.349   1.215  12.584 -0.0645 -0.3707  0.0932
 2025TIP3    H227567   3.306   1.276  12.716  0.6308  0.3192  0.0041
 2026TIP3   OH227568   4.725   0.839  12.603  0.6084  0.1381  0.2911
 2026TIP3    H127569   4.758   0.928  12.586 -0.4491  0.5783  0.4690
 2026TIP3    H227570   4.786   0.782  12.557  0.4507  1.0544 -1.1136
 2027TIP3   OH227571   2.449   3.056  16.785 -0.6510  0.0868  0.0382
 2027TIP3    H127572   2.420   2.981  16.838 -0.7185 -0.8697 -1.3442
 2027TIP3    H227573   2.392   3.056  16.709  1.8765 -0.8717 -1.9409
 2028TIP3   OH227574   0.703   1.324  16.259  0.1846 -0.0339 -0.1236
 2028TIP3    H127575   0.667   1.260  16.321 -2.1358  2.5705  1.3741
 2028TIP3    H227576   0.644   1.320  16.184  1.0996 -0.9196 -0.7980
 2029TIP3   OH227577   1.097   3.432   6.537 -0.1788  0.0407  0.3693
 2029TIP3    H127578   1.122   3.524   6.526  0.7768  0.0335  2.1905
 2029TIP3    H227579   1.013   3.435   6.583 -0.6759  0.0138 -0.5382
 2030TIP3   OH227580   0.162   1.336   2.281  0.6072 -0.4277 -0.2841
 2030TIP3    H127581   0.253   1.314   2.262  1.0082  0.6811  0.2890
 2030TIP3    H227582   0.149   1.422   2.243  0.1215 -0.1026  0.5970
 2031TIP3   OH227583   3.802   5.420  10.918  0.3104  0.5975 -0.0361
 2031TIP3    H127584   3.718   5.460  10.940  0.8150  0.8552  1.4749
 2031TIP3    H227585   3.862   5.451  10.987  1.4190 -0.3207 -0.5771
 2032TIP3   OH227586   0.161   6.584  12.245  0.1285  0.5546  0.2233
 2032TIP3    H127587   0.163   6.615  12.155  0.5767  0.0590  0.0555
 2032TIP3    H227588   0.131   6.493  12.239  0.8980  0.2771  0.4935
 2033TIP3   OH227589   0.480   5.716   5.127  0.2449  0.5743  0.5108
 2033TIP3    H127590   0.568   5.714   5.088 -0.7293 -0.8008 -1.7317
 2033TIP3    H227591   0.494   5.689   5.218  2.1901  0.6600  0.2633
 2034TIP3   OH227592   0.961   5.900   4.633 -0.0817 -0.1773 -0.2299
 2034TIP3    H127593   0.924   5.970   4.579  0.0956  0.6310  0.6952
 2034TIP3    H227594   1.014   5.848   4.571 -0.4164  0.3448 -0.9661
 2035TIP3   OH227595   5.634   2.948   0.327  0.2001  0.5970 -0.0764
 2035TIP3    H127596   5.649   2.966   0.235 -0.8684 -0.1339 -0.3976
 2035TIP3    H227597   5.714   2.978   0.371  0.6098  1.1626 -1.2006
 2036TIP3   OH227598   4.624   3.609  11.113  0.0127  0.6606 -0.6064
 2036TIP3    H127599   4.594   3.697  11.090  0.2010  0.7903 -0.3722
 2036TIP3    H227600   4.687   3.587  11.045 -0.9989  0.1716 -1.3920
 2037TIP3   OH227601   3.943   0.834  16.534  0.0559 -0.2941  0.1567
 2037TIP3    H127602   3.933   0.929  16.542 -0.4541 -0.3450  0.1685
 2037TIP3    H227603   3.853   0.801  16.536  0.2646 -0.8416  1.0108
 2038TIP3   OH227604   1.403   5.516   2.155  0.9500 -0.1996  0.0151
 2038TIP3    H127605   1.445   5.549   2.234 -1.8511 -1.2527  2.0038
 2038TIP3    H227606   1.375   5.595   2.108  2.6542  0.4225  0.0222
 2039TIP3   OH227607   5.106   2.109  12.315  0.1068  0.1016 -0.1061
 2039TIP3    H127608   5.034   2.077  12.261  0.4876  0.2692 -0.7114
 2039TIP3    H227609   5.170   2.143  12.253 -0.1941  1.8472  0.5060
 2040TIP3   OH227610   6.545   5.298   2.088  0.1281  0.4649 -0.0002
 2040TIP3    H127611   6.495   5.229   2.132 -0.3993 -0.5792 -2.1382
 2040TIP3    H227612   6.567   5.360   2.157 -1.1466 -0.8265  1.6100
 2041TIP3   OH227613   1.436   1.452   1.736 -0.1815  0.1618  0.2471
 2041TIP3    H127614   1.424   1.387   1.667  1.5172  0.2774 -0.1675
 2041TIP3    H227615   1.482   1.404   1.806  0.2269  0.6772  0.3289
 2042TIP3   OH227616   5.541   3.395  15.709  0.1004  0.2470  0.1845
 2042TIP3    H127617   5.556   3.414  15.617 -1.8898  1.1420  0.0204
 2042TIP3    H227618   5.572   3.474  15.754 -0.7314  0.6254  0.1121
 2043TIP3   OH227619   4.575   3.806  10.492 -0.6739 -0.1300 -0.3150
 2043TIP3    H127620   4.654   3.851  10.461 -1.1463  1.0043  0.1199
 2043TIP3    H227621   4.590   3.714  10.470  1.3278 -0.1193  0.8618
 2044TIP3   OH227622   2.080   1.012   2.721 -0.7963  0.0095 -0.7409
 2044TIP3    H127623   2.142   1.083   2.702 -1.0433 -0.1428 -2.2107
 2044TIP3    H227624   2.010   1.053   2.770 -0.0985  0.4227 -0.0708
 2045TIP3   OH227625   3.970   0.056  11.737  0.0734 -0.4797 -0.0926
 2045TIP3    H127626   3.937   0.113  11.806  2.9494  0.4113  0.6165
 2045TIP3    H227627   3.912  -0.020  11.739 -0.8736  0.2512  2.2139
 2046TIP3   OH227628   0.921   4.259   3.519  0.1476  0.2791  0.5083
 2046TIP3    H127629   0.907   4.260   3.614 -0.6301  2.4730  0.4037
 2046TIP3    H227630   0.846   4.306   3.483  0.2038 -0.9176 -1.2534
 2047TIP3   OH227631   4.865   3.751   0.925  0.1258 -0.2277  0.0976
 2047TIP3    H127632   4.914   3.816   0.875 -1.2110  0.7327  0.0143
 2047TIP3    H227633   4.791   3.800   0.962 -0.9282 -1.7222 -0.0078
 2048TIP3   OH227634   0.829   3.552  16.509  0.0630 -0.3979 -0.1051
 2048TIP3    H127635   0.924   3.560  16.515  0.0342 -0.9824  1.2157
 2048TIP3    H227636   0.811   3.461  16.531 -0.7708 -0.4056 -0.7966
 2049TIP3   OH227637   3.570   3.282   4.606 -0.1174 -0.0739 -0.0448
 2049TIP3    H127638   3.568   3.187   4.597 -2.9396  0.0148 -0.6432
 2049TIP3    H227639   3.579   3.314   4.516 -0.8975  0.2633 -0.0021
 2050TIP3   OH227640   1.397   5.415   6.074  0.1095  0.1586  0.6898
 2050TIP3    H127641   1.398   5.452   6.163 -1.4156 -0.0031  0.7942
 2050TIP3    H227642   1.424   5.324   6.086 -1.1369 -0.1694  1.1641
 2051TIP3   OH227643   6.662   5.866  15.521  0.0592  0.6172  0.3401
 2051TIP3    H127644   6.672   5.830  15.609  2.3934 -1.1015 -0.5437
 2051TIP3    H227645   6.705   5.951  15.524 -0.5237  0.8862  1.0422
 2052TIP3   OH227646   2.625   1.629   4.647 -0.0519 -0.7430  0.1622
 2052TIP3    H127647   2.705   1.579   4.632  0.1356 -0.4640  0.2269
 2052TIP3    H227648   2.555   1.570   4.621  0.2067 -0.7359 -0.5649
 2053TIP3   OH227649   1.490   0.482  16.963  0.2111 -0.3808 -0.0869
 2053TIP3    H127650   1.566   0.539  16.975 -0.7964  1.5402 -2.4077
 2053TIP3    H227651   1.417   0.533  17.000 -0.7696  0.0597 -2.5688
 2054TIP3   OH227652   0.308   1.862   1.909 -0.0845 -0.3419 -0.1255
 2054TIP3    H127653   0.278   1.946   1.875 -0.3883 -0.8012 -1.0169
 2054TIP3    H227654   0.250   1.844   1.983 -1.6332 -0.9071 -1.4258
 2055TIP3   OH227655   0.731   6.642  14.704 -0.0861  0.4179  0.1323
 2055TIP3    H127656   0.754   6.690  14.783 -1.1139  0.8592  0.1635
 2055TIP3    H227657   0.737   6.550  14.730  0.3008  0.5466  0.5137
 2056TIP3   OH227658   0.796   3.610   2.002  0.4218  0.3113  0.1363
 2056TIP3    H127659   0.777   3.609   2.096  2.0760  1.3589  0.4937
 2056TIP3    H227660   0.744   3.683   1.968  1.2092  1.0751  0.5502
 2057TIP3   OH227661   2.172   4.237   0.869 -0.1819  0.1549 -0.1551
 2057TIP3    H127662   2.088   4.213   0.830 -0.7573  1.0058  0.5538
 2057TIP3    H227663   2.180   4.331   0.853 -0.6865  0.6248  2.2716
 2058TIP3   OH227664   1.421   4.348  15.384  0.2540  0.0409  0.0650
 2058TIP3    H127665   1.401   4.259  15.357 -0.9563  0.6700 -1.1366
 2058TIP3    H227666   1.474   4.384  15.313 -2.4983  1.5259 -1.2962
 2059TIP3   OH227667   4.117   5.441   3.104  0.3548  0.4689 -0.1981
 2059TIP3    H127668   4.171   5.372   3.144 -2.2807 -1.5028  0.1231
 2059TIP3    H227669   4.090   5.496   3.177 -2.6083 -1.8320  0.5602
 2060TIP3   OH227670   0.839   1.979  14.475 -0.0464  0.0548  0.0341
 2060TIP3    H127671   0.879   2.065  14.463  0.7960 -0.4955 -1.1199
 2060TIP3    H227672   0.816   1.977  14.568 -0.0297  1.4983  0.0910
 2061TIP3   OH227673   1.694   5.675   6.022 -0.0014  0.4860  0.4279
 2061TIP3    H127674   1.642   5.646   6.097 -0.8922 -0.3448 -0.4910
 2061TIP3    H227675   1.658   5.761   5.999  1.3037  1.4458  1.9027
 2062TIP3   OH227676   1.066   2.144   5.354  0.2599  0.4435  0.0909
 2062TIP3    H127677   1.099   2.233   5.353  0.0138  0.5341 -0.4742
 2062TIP3    H227678   1.061   2.120   5.447  2.7959  0.0772  0.1548
 2063TIP3   OH227679   1.647   3.746   1.847 -0.2103 -0.1688 -0.2974
 2063TIP3    H127680   1.613   3.819   1.899 -0.9800  0.2897 -1.4221
 2063TIP3    H227681   1.617   3.667   1.893  0.1042  0.2139  0.5845
 2064TIP3   OH227682   1.001   4.292   5.745  0.7161 -0.4827 -0.7721
 2064TIP3    H127683   0.914   4.256   5.764  0.3650 -0.2425 -1.9143
 2064TIP3    H227684   0.993   4.385   5.766  0.7951 -0.5241 -0.5574
 2065TIP3   OH227685   3.547   6.444  13.092  0.2249  0.1845 -0.4583
 2065TIP3    H127686   3.570   6.377  13.027  0.8767  0.0647 -0.1077
 2065TIP3    H227687   3.618   6.440  13.156 -0.4607  0.2505  0.3043
 2066TIP3   OH227688   5.613   2.657   3.940 -0.2747  0.4062  0.0869
 2066TIP3    H127689   5.533   2.605   3.931 -0.1799  0.6515 -2.4250
 2066TIP3    H227690   5.677   2.612   3.885  0.2518  2.2625 -0.8712
 2067TIP3   OH227691   4.811   4.739   1.634  0.0575  0.2508  0.5021
 2067TIP3    H127692   4.817   4.680   1.559  2.2995  0.2468  0.6541
 2067TIP3    H227693   4.754   4.811   1.603  0.3731 -0.1062 -0.9505
 2068TIP3   OH227694   2.272   1.415  14.311 -0.0200  0.6679  0.4017
 2068TIP3    H127695   2.234   1.478  14.372 -1.1684 -0.1312  0.5183
 2068TIP3    H227696   2.257   1.453  14.225 -2.1981 -0.2142  0.3668
 2069TIP3   OH227697   4.793   0.401  16.011 -0.1813  0.1524 -0.2907
 2069TIP3    H127698   4.776   0.341  15.938 -0.0624  0.0351 -0.2212
 2069TIP3    H227699   4.809   0.344  16.086 -0.7323  0.2749 -0.0753
 2070TIP3   OH227700   6.104   3.495   1.561  0.3215 -0.3269  0.1158
 2070TIP3    H127701   6.014   3.463   1.548  0.8972 -1.9081 -0.0277
 2070TIP3    H227702   6.093   3.586   1.587 -1.3748 -0.8570  1.3128
 2071TIP3   OH227703   5.137   1.796   5.980  0.2357  0.2342  0.2308
 2071TIP3    H127704   5.155   1.845   6.060 -1.8707  0.2454  0.7254
 2071TIP3    H227705   5.151   1.859   5.910 -0.2355  0.9113  0.7345
 2072TIP3   OH227706   5.035   3.568  11.318 -0.8640  0.0706  0.0926
 2072TIP3    H127707   5.031   3.504  11.390 -2.2579  0.1568  0.1136
 2072TIP3    H227708   5.119   3.553  11.277 -0.9549 -1.4250  0.4325
 2073TIP3   OH227709   2.593   1.570   4.038  0.0141  0.2995 -0.5457
 2073TIP3    H127710   2.585   1.539   4.128 -1.3094 -0.0602 -0.7768
 2073TIP3    H227711   2.541   1.650   4.035 -2.8158 -1.4917 -1.8070
 2074TIP3   OH227712   6.508   3.992  14.944 -0.7579  0.3034  0.0897
 2074TIP3    H127713   6.540   4.063  14.889 -2.2921  1.4981  0.7141
 2074TIP3    H227714   6.471   3.929  14.882  0.3614  0.1386 -0.4397
 2075TIP3   OH227715   3.956   1.996  12.061 -0.4752  0.5330  0.4512
 2075TIP3    H127716   3.913   1.939  11.998  1.4750  2.6454 -2.9090
 2075TIP3    H227717   3.889   2.060  12.085 -0.7620  0.6690 -0.7087
 2076TIP3   OH227718   6.358   1.059   5.446  0.7990 -0.3826 -0.0705
 2076TIP3    H127719   6.364   1.098   5.359  3.4377 -2.0165 -0.6840
 2076TIP3    H227720   6.269   1.079   5.475  0.9599  3.0368 -1.7429
 2077TIP3   OH227721   0.247   3.961   0.127 -0.4418  0.7304  0.1270
 2077TIP3    H127722   0.311   4.020   0.087 -0.5768  1.4087  0.9114
 2077TIP3    H227723   0.205   3.917   0.053  1.0623  0.1441 -0.4002
 2078TIP3   OH227724   0.281   1.436   2.813 -0.1606 -0.3224  0.5490
 2078TIP3    H127725   0.287   1.503   2.881 -0.3505 -1.3924  1.6502
 2078TIP3    H227726   0.209   1.465   2.758  0.9053  1.2843 -0.0260
 2079TIP3   OH227727   5.956   3.857  12.595 -0.0201  0.2396 -0.1859
 2079TIP3    H127728   6.019   3.870  12.666 -1.2566  0.0058  0.9883
 2079TIP3    H227729   5.966   3.934  12.539 -0.8040  1.7242  1.6593
 2080TIP3   OH227730   4.007   1.480   1.346 -0.0709  0.3302  0.3359
 2080TIP3    H127731   4.088   1.430   1.341 -0.3161  0.0896 -1.6681
 2080TIP3    H227732   3.938   1.413   1.351 -0.2309  0.4937  0.3241
 2081TIP3   OH227733   3.846   3.151   0.680 -0.3171  0.0331  0.0332
 2081TIP3    H127734   3.824   3.087   0.747 -0.7189  0.7113  0.5568
 2081TIP3    H227735   3.942   3.155   0.682 -0.2451 -1.2145 -0.6394
 2082TIP3   OH227736   5.619   1.401   6.232 -0.1062  0.8026  0.0470
 2082TIP3    H127737   5.660   1.485   6.210  3.2377 -1.2047 -1.8867
 2082TIP3    H227738   5.647   1.384   6.322  1.3790  0.6293 -0.4197
 2083TIP3   OH227739   3.179   3.298  12.703 -0.3482 -0.7154 -0.4300
 2083TIP3    H127740   3.099   3.247  12.714 -1.0104 -0.0757 -2.0993
 2083TIP3    H227741   3.219   3.262  12.623  1.2551 -1.3081  0.6002
 2084TIP3   OH227742   3.991   1.435  10.532 -0.0975  0.0287  0.4460
 2084TIP3    H127743   3.895   1.432  10.525 -0.3908  0.0241  3.5742
 2084TIP3    H227744   4.011   1.528  10.543  0.2044 -0.0217  0.3146
 2085TIP3   OH227745   3.360   4.789  14.424  0.1534  0.0497  0.7956
 2085TIP3    H127746   3.390   4.708  14.466 -0.3591 -1.7296 -2.0761
 2085TIP3    H227747   3.265   4.781  14.421  0.2198 -0.2419 -1.3217
 2086TIP3   OH227748   6.606   2.689   5.324  0.3715 -0.3962  0.1121
 2086TIP3    H127749   6.517   2.673   5.292  0.3924  0.9997 -0.7109
 2086TIP3    H227750   6.601   2.776   5.364  1.5095 -0.0188 -0.5530
 2087TIP3   OH227751   0.771   3.138   1.956  0.4214  0.3548 -0.6527
 2087TIP3    H127752   0.860   3.107   1.939  0.1634  0.0534 -1.4682
 2087TIP3    H227753   0.772   3.230   1.930  0.1049 -0.0297 -2.0392
 2088TIP3   OH227754   5.874   0.969   5.466 -0.5108 -0.7136  0.1820
 2088TIP3    H127755   5.824   1.002   5.541 -1.3612  0.3195 -0.8119
 2088TIP3    H227756   5.808   0.926   5.411 -0.3515  0.7899 -1.2145
 2089TIP3   OH227757   4.656   1.248   0.942  0.0458 -0.1502 -0.2082
 2089TIP3    H127758   4.653   1.312   1.013 -0.0804  1.7785 -1.9229
 2089TIP3    H227759   4.574   1.259   0.895  0.9102 -0.1346 -1.7466
 2090TIP3   OH227760   2.935   6.325  10.530 -0.0853 -0.3142 -0.5913
 2090TIP3    H127761   2.871   6.396  10.531 -0.1117 -0.3413  1.8610
 2090TIP3    H227762   2.890   6.252  10.573  1.0580 -0.8175 -0.2396
 2091TIP3   OH227763   6.266   1.746   0.479  0.2277 -0.0802  0.6181
 2091TIP3    H127764   6.238   1.806   0.547  3.2669  1.6045  0.4801
 2091TIP3    H227765   6.202   1.756   0.409 -1.3123  0.2791  2.0644
 2092TIP3   OH227766   4.106   5.896  14.456 -0.3021  0.0355  0.0629
 2092TIP3    H127767   4.107   5.988  14.480 -0.5040  0.5839 -1.9048
 2092TIP3    H227768   4.184   5.884  14.403 -1.1974 -0.4788 -1.1814
 2093TIP3   OH227769   0.348   0.313   2.000 -0.2656  0.1160 -0.3593
 2093TIP3    H127770   0.434   0.272   1.987 -1.1060 -1.1469 -2.0734
 2093TIP3    H227771   0.287   0.240   2.001 -1.3557  1.0389  0.5954
 2094TIP3   OH227772   1.328   4.227  16.609  0.0343  0.0460  0.4321
 2094TIP3    H127773   1.253   4.204  16.554  1.2826 -0.5516 -1.0395
 2094TIP3    H227774   1.405   4.205  16.556  1.3061 -2.9656  3.3092
 2095TIP3   OH227775   1.077   1.598  13.980  0.0844  0.8846  0.0221
 2095TIP3    H127776   1.098   1.690  13.993  2.0278  0.4263  0.3710
 2095TIP3    H227777   1.114   1.577  13.893 -1.3093  0.7030 -0.5370
 2096TIP3   OH227778   3.501   1.356   5.645 -0.1770  0.1696  0.1993
 2096TIP3    H127779   3.539   1.388   5.563 -0.6498  2.6634  0.8839
 2096TIP3    H227780   3.566   1.381   5.712 -1.0376  0.6218  0.8759
 2097TIP3   OH227781   0.795   2.241  15.548  0.2888 -0.0597 -0.2880
 2097TIP3    H127782   0.701   2.234  15.562  0.3817  0.2446  0.4982
 2097TIP3    H227783   0.812   2.187  15.470 -0.4890 -0.3469 -0.2617
 2098TIP3   OH227784   4.415   2.675   5.760  0.0060  0.0807 -0.8295
 2098TIP3    H127785   4.365   2.733   5.817  1.3687  0.2152  0.2390
 2098TIP3    H227786   4.470   2.734   5.708  2.3790 -0.3025  1.2032
 2099TIP3   OH227787   5.380   3.387   4.648 -0.4762  0.0055  0.1261
 2099TIP3    H127788   5.314   3.332   4.604 -1.8915  0.8873  1.0964
 2099TIP3    H227789   5.462   3.363   4.606 -1.1015 -2.6039  0.2574
 2100TIP3   OH227790   0.238   5.863  13.586 -0.1400  0.1897 -0.5816
 2100TIP3    H127791   0.164   5.922  13.589 -0.9891 -0.7631 -2.2397
 2100TIP3    H227792   0.200   5.775  13.590  0.9492 -0.2947 -0.4316
 2101TIP3   OH227793   3.373   4.717  11.208  0.2154 -0.2787 -0.1311
 2101TIP3    H127794   3.465   4.709  11.231  0.2672 -0.2801 -0.3331
 2101TIP3    H227795   3.341   4.790  11.260  0.2849 -0.3976  0.0787
 2102TIP3   OH227796   4.826   1.660  16.418  0.0433 -0.6097  0.1381
 2102TIP3    H127797   4.847   1.719  16.491 -1.6365 -1.1254  1.0729
 2102TIP3    H227798   4.884   1.585  16.430  1.2588  0.2352 -0.2959
 2103TIP3   OH227799   5.570   2.238  12.849  0.3200  0.0859 -0.5087
 2103TIP3    H127800   5.652   2.196  12.875 -0.3647 -0.9697 -0.0319
 2103TIP3    H227801   5.502   2.183  12.888 -0.6668 -0.2126 -2.6145
 2104TIP3   OH227802   0.117   1.561  14.903  0.1738 -0.5006 -0.5530
 2104TIP3    H127803   0.174   1.587  14.831  1.6104 -0.1649  0.6749
 2104TIP3    H227804   0.068   1.641  14.926  1.1165 -0.1012  0.0940
 2105TIP3   OH227805   0.708   3.538  11.349 -0.4922 -0.0761  0.1770
 2105TIP3    H127806   0.721   3.471  11.282  1.2383  0.4822 -0.0904
 2105TIP3    H227807   0.670   3.612  11.302 -1.7025 -0.6083  0.3230
 2106TIP3   OH227808   5.041   3.751   4.422 -0.4487 -0.3473  0.1593
 2106TIP3    H127809   5.085   3.835   4.409 -1.6525  0.1432 -0.8647
 2106TIP3    H227810   4.979   3.746   4.350 -1.1980 -1.5917  0.8886
 2107TIP3   OH227811   4.883   3.623  15.917  0.3914 -0.3814  0.5104
 2107TIP3    H127812   4.796   3.625  15.876  1.6221 -1.7516 -2.2725
 2107TIP3    H227813   4.867   3.582  16.002 -1.8057 -0.0610  0.2931
 2108TIP3   OH227814   1.995   4.615  15.267  0.1224  0.1458 -0.6633
 2108TIP3    H127815   1.939   4.546  15.232 -0.4106  0.2196  0.0369
 2108TIP3    H227816   1.934   4.680  15.302  0.6262 -0.5814  1.7088
 2109TIP3   OH227817   1.957   6.776  11.715 -0.2855 -0.1317  0.6684
 2109TIP3    H127818   2.044   6.766  11.677 -0.4175 -3.5407  1.1423
 2109TIP3    H227819   1.898   6.782  11.639  0.1560  0.3197  0.3560
 2110TIP3   OH227820   4.373   4.228  15.102 -0.1359  0.2150  0.0905
 2110TIP3    H127821   4.408   4.148  15.062  0.9858  0.3168  0.8287
 2110TIP3    H227822   4.380   4.213  15.196 -0.5913  0.8992  0.2390
 2111TIP3   OH227823   2.239   1.339  11.582 -0.6387  0.2486  0.6111
 2111TIP3    H127824   2.158   1.329  11.632 -2.6061  3.7038 -1.6555
 2111TIP3    H227825   2.271   1.426  11.608  1.6943 -0.5930  0.5820
 2112TIP3   OH227826   1.483   4.166   5.081  0.0940 -0.9579 -0.1803
 2112TIP3    H127827   1.444   4.155   4.995  1.0775 -3.7159 -0.3274
 2112TIP3    H227828   1.569   4.204   5.063 -0.7840  1.1355 -0.1576
 2113TIP3   OH227829   0.578   6.424   3.448 -0.2467  0.1648  0.1346
 2113TIP3    H127830   0.487   6.447   3.463 -0.0017  1.6151 -0.4744
 2113TIP3    H227831   0.622   6.447   3.530 -0.2560  0.4744  0.0541
 2114TIP3   OH227832   1.817   2.704  15.739 -0.0950  0.2061 -0.0809
 2114TIP3    H127833   1.870   2.780  15.714 -0.0787  0.0645 -0.4884
 2114TIP3    H227834   1.733   2.741  15.767 -0.1379  0.3705 -0.4185
 2115TIP3   OH227835   2.845   3.988   4.581  0.3028  0.3740 -0.2813
 2115TIP3    H127836   2.762   3.975   4.534  0.3951 -1.7882  0.0957
 2115TIP3    H227837   2.902   3.918   4.548  0.6449 -0.6614  2.3837
 2116TIP3   OH227838   0.735   4.854   6.234  0.0771 -0.5456 -0.1513
 2116TIP3    H127839   0.789   4.931   6.254  1.4446 -1.4599 -0.2881
 2116TIP3    H227840   0.676   4.846   6.309  0.0843  0.4940 -0.0237
 2117TIP3   OH227841   2.773   2.796   5.106 -0.3321 -0.0443 -0.1549
 2117TIP3    H127842   2.704   2.835   5.161  0.0259  0.4276 -0.0299
 2117TIP3    H227843   2.759   2.834   5.020  1.0188  1.6643  0.3440
 2118TIP3   OH227844   1.252   1.369  16.730 -0.1158  0.2001  0.1626
 2118TIP3    H127845   1.162   1.369  16.763 -0.1435 -2.3413  0.2482
 2118TIP3    H227846   1.303   1.413  16.798 -1.2974  1.7085  0.0837
 2119TIP3   OH227847   6.327   0.657   4.121 -0.2589 -0.2542 -0.0221
 2119TIP3    H127848   6.399   0.640   4.060 -0.7577 -2.1052 -0.1326
 2119TIP3    H227849   6.251   0.671   4.064 -0.2858  0.2047  0.1286
 2120TIP3   OH227850   5.365   1.727   5.700  0.3109  0.5090  0.2384
 2120TIP3    H127851   5.422   1.691   5.768  0.9275  1.6727  0.3477
 2120TIP3    H227852   5.298   1.775   5.749  1.7119  2.7874  0.0345
 2121TIP3   OH227853   5.109   2.250  15.611 -0.0935 -0.4013 -0.1401
 2121TIP3    H127854   5.191   2.281  15.573  0.3908  0.0583  1.2320
 2121TIP3    H227855   5.135   2.198  15.687 -1.0560 -0.6587  0.0290
 2122TIP3   OH227856   5.220   1.605  12.205 -0.8037  0.7849  0.1142
 2122TIP3    H127857   5.314   1.614  12.191 -1.0250  1.4495 -1.0143
 2122TIP3    H227858   5.182   1.681  12.160 -1.8970  0.3332  0.2700
 2123TIP3   OH227859   2.786   4.113   5.703  0.4330 -0.5011 -0.3688
 2123TIP3    H127860   2.855   4.053   5.731  0.3516 -0.4485 -0.0495
 2123TIP3    H227861   2.785   4.181   5.770  1.2393  0.4252 -1.2931
 2124TIP3   OH227862   6.336   3.092   5.604  0.1250 -0.2317 -0.0077
 2124TIP3    H127863   6.410   3.137   5.645 -0.2745  1.3339 -0.9465
 2124TIP3    H227864   6.301   3.036   5.673  0.2576  1.3698  1.3874
 2125TIP3   OH227865   5.532   3.600   1.971  0.3169  0.0070  0.0987
 2125TIP3    H127866   5.575   3.623   1.889  1.2285  0.3180  0.6488
 2125TIP3    H227867   5.457   3.659   1.976 -0.1617 -0.5258 -0.8627
 2126TIP3   OH227868   1.803   5.724   3.782 -0.3457 -0.3663  0.2749
 2126TIP3    H127869   1.869   5.675   3.831 -0.4987 -1.6662 -0.7768
 2126TIP3    H227870   1.735   5.744   3.847  0.1523 -0.7572  0.9231
 2127TIP3   OH227871   5.478   6.412  14.296  0.0571 -0.3800  0.0903
 2127TIP3    H127872   5.544   6.363  14.345 -0.7612 -1.6366 -0.0518
 2127TIP3    H227873   5.412   6.435  14.362  0.7133  1.0450  0.2710
 2128TIP3   OH227874   1.677   0.097  14.454  0.2469  0.1524  0.6669
 2128TIP3    H127875   1.706   0.033  14.388 -2.4044 -0.1160 -0.3150
 2128TIP3    H227876   1.696   0.182  14.415  2.1737  0.0194  1.2309
 2129TIP3   OH227877   5.254   5.343   1.544 -0.0794 -0.0466 -0.7319
 2129TIP3    H127878   5.178   5.399   1.561 -0.2972 -0.5897  0.1047
 2129TIP3    H227879   5.256   5.282   1.617 -0.6549 -2.0555 -2.3395
 2130TIP3   OH227880   5.489   3.916  12.167 -0.0513  0.0407 -0.5032
 2130TIP3    H127881   5.503   3.874  12.252  1.6815 -0.5649 -1.0542
 2130TIP3    H227882   5.436   3.993  12.187 -2.2951 -1.7360  0.6843
 2131TIP3   OH227883   3.983   1.749  12.593  0.1257  0.1584 -0.3757
 2131TIP3    H127884   3.947   1.827  12.550  1.1524 -0.2337 -2.0159
 2131TIP3    H227885   4.069   1.737  12.552  0.1590 -1.6024  0.1578
 2132TIP3   OH227886   2.683   0.814  16.865 -0.1101  0.1272 -0.4228
 2132TIP3    H127887   2.776   0.811  16.888 -0.6080 -0.0844  1.6746
 2132TIP3    H227888   2.638   0.776  16.941 -2.0127  1.6101 -0.7512
 2133TIP3   OH227889   5.277   6.100   5.110 -0.1205 -0.4500 -0.1897
 2133TIP3    H127890   5.207   6.042   5.078  0.7762 -2.1488  0.8414
 2133TIP3    H227891   5.354   6.043   5.116  0.2008  0.2421  3.1270
 2134TIP3   OH227892   6.378   1.766   0.022  0.1188 -0.0027 -0.5393
 2134TIP3    H127893   6.383   1.675   0.054 -1.7420 -0.1150 -0.5309
 2134TIP3    H227894   6.359   1.757  -0.071  1.9024  0.3744 -0.9562
 2135TIP3   OH227895   3.340   0.322  10.996  0.7450 -0.4235 -0.3991
 2135TIP3    H127896   3.420   0.270  10.987 -0.3517 -1.8351 -2.4552
 2135TIP3    H227897   3.274   0.274  10.946 -0.9863  1.5679 -0.1192
 2136TIP3   OH227898   0.141   3.883   2.132 -0.1573 -1.0155 -0.9202
 2136TIP3    H127899   0.087   3.826   2.077 -1.2412 -1.6748  0.7783
 2136TIP3    H227900   0.085   3.904   2.207  1.2135  0.0225 -0.1647
 2137TIP3   OH227901   2.598   0.602   0.275 -0.1890  0.5296  0.2343
 2137TIP3    H127902   2.606   0.694   0.300  1.3624 -0.0244  1.8750
 2137TIP3    H227903   2.687   0.569   0.278 -0.5909 -0.7844 -1.4398
 2138TIP3   OH227904   5.677   3.654   3.728 -0.3341  0.6227 -0.0388
 2138TIP3    H127905   5.602   3.609   3.768  1.7866 -1.0824  2.1572
 2138TIP3    H227906   5.672   3.743   3.762 -2.1262  0.8950 -0.9854
 2139TIP3   OH227907   2.611   6.057   1.314 -0.4690  0.3751  0.3498
 2139TIP3    H127908   2.531   6.039   1.265 -0.0916  1.8879 -0.8204
 2139TIP3    H227909   2.647   5.970   1.333 -1.9480 -0.2893  0.1829
 2140TIP3   OH227910   0.649   1.374   5.115  0.9265  0.0561 -0.6054
 2140TIP3    H127911   0.615   1.345   5.200  1.7085  0.2181 -0.2320
 2140TIP3    H227912   0.695   1.298   5.081  0.5467 -0.0337 -0.9260
 2141TIP3   OH227913   2.860   1.502   6.510 -0.0565 -0.3263  0.1145
 2141TIP3    H127914   2.901   1.491   6.424 -2.6899  0.5869 -1.3321
 2141TIP3    H227915   2.901   1.435   6.565  2.3102 -0.3542 -1.5860
 2142TIP3   OH227916   1.919   1.742  16.603 -0.1152 -0.2046 -0.5136
 2142TIP3    H127917   1.833   1.749  16.563  0.8009 -1.1346 -2.7094
 2142TIP3    H227918   1.929   1.649  16.624 -0.4789  0.2145  1.7307
 2143TIP3   OH227919   3.783   0.084   0.503  0.2063  0.6247 -0.5297
 2143TIP3    H127920   3.697   0.044   0.494  0.7383 -0.3482 -1.2861
 2143TIP3    H227921   3.805   0.113   0.415  0.2415  1.7438 -0.1636
 2144TIP3   OH227922   2.660   1.536  13.315 -0.0731  0.0606 -0.2639
 2144TIP3    H127923   2.572   1.499  13.325 -0.0263 -0.0158 -0.1363
 2144TIP3    H227924   2.684   1.565  13.403 -0.9833  2.3780 -0.7414
 2145TIP3   OH227925   1.721   3.526  13.149 -0.7283 -0.0356  0.6203
 2145TIP3    H127926   1.759   3.444  13.117  0.3908  1.3169 -1.6451
 2145TIP3    H227927   1.795   3.576  13.182 -0.6982  1.8229 -2.0649
 2146TIP3   OH227928   0.492   5.304   4.679 -0.5333  0.9324 -0.5659
 2146TIP3    H127929   0.489   5.211   4.659 -0.4624  0.5007  1.3133
 2146TIP3    H227930   0.510   5.346   4.595  1.9427 -0.9287 -1.0285
 2147TIP3   OH227931   0.007   3.072  13.835  0.3897 -0.6955  0.0065
 2147TIP3    H127932   0.096   3.039  13.821  1.3711  1.3222  1.2377
 2147TIP3    H227933  -0.035   3.063  13.750  2.7662  1.1764 -1.4661
 2148TIP3   OH227934   2.340   1.947  16.219 -0.2147  0.0965 -0.3131
 2148TIP3    H127935   2.425   1.909  16.243 -1.1834 -1.9721 -0.0792
 2148TIP3    H227936   2.280   1.915  16.285 -0.9308  2.8319  0.4420
 2149TIP3   OH227937   4.845   3.174  14.719 -0.2011  0.3451 -0.9016
 2149TIP3    H127938   4.888   3.251  14.757 -1.8628  0.7114  0.3240
 2149TIP3    H227939   4.913   3.107  14.717  0.9110  1.4469 -0.7201
 2150TIP3   OH227940   2.751   1.851   4.463  0.1143  0.2651 -1.1726
 2150TIP3    H127941   2.799   1.921   4.508  2.2497 -1.0637 -1.3458
 2150TIP3    H227942   2.756   1.776   4.522 -0.4161 -0.3543 -1.9082
 2151TIP3   OH227943   2.593   4.500   4.775  0.0215 -0.2859 -0.0120
 2151TIP3    H127944   2.551   4.514   4.691 -0.4692 -1.2131  0.0730
 2151TIP3    H227945   2.639   4.582   4.793 -1.4902  0.6312 -0.2454
 2152TIP3   OH227946   2.964   6.024   3.918  0.2086  0.0585  0.1570
 2152TIP3    H127947   3.012   5.986   3.991 -1.1641 -1.4884  0.2807
 2152TIP3    H227948   2.957   6.117   3.939  0.4309 -0.2546  1.6378
 2153TIP3   OH227949   1.136   1.266   0.984 -0.1959 -0.3757 -0.2627
 2153TIP3    H127950   1.170   1.216   0.909  0.7154  1.0690 -0.8270
 2153TIP3    H227951   1.049   1.293   0.957  0.7531  1.5479 -1.4874
 2154TIP3   OH227952   2.715   0.586   5.258  0.9716  0.5055  0.1649
 2154TIP3    H127953   2.631   0.577   5.303  1.3019 -1.9094  0.3722
 2154TIP3    H227954   2.708   0.530   5.181  1.7228  1.7641 -0.8373
 2155TIP3   OH227955   6.754   1.685  11.355  0.2572  0.0372 -0.2235
 2155TIP3    H127956   6.763   1.717  11.266 -0.3686  1.5107  0.2409
 2155TIP3    H227957   6.684   1.619  11.350 -0.2107  0.5653 -0.7061
 2156TIP3   OH227958   1.962   4.858   2.363 -0.3660 -0.0750  0.0585
 2156TIP3    H127959   1.926   4.819   2.283  0.2743 -1.5258  0.4621
 2156TIP3    H227960   1.895   4.920   2.391 -0.9493 -0.1214 -1.1661
 2157TIP3   OH227961   4.384   1.447  12.863  0.3231  0.0214 -0.6795
 2157TIP3    H127962   4.457   1.386  12.857  0.5388  0.3530 -1.5399
 2157TIP3    H227963   4.335   1.434  12.782 -1.2822 -1.0826  0.4368
 2158TIP3   OH227964   1.465   0.245  15.277 -0.4813  0.2465 -0.3619
 2158TIP3    H127965   1.413   0.193  15.216 -0.4596  1.6824 -1.6151
 2158TIP3    H227966   1.414   0.245  15.358 -0.4359 -1.7870 -0.3073
 2159TIP3   OH227967   1.201   1.328   6.058 -0.3256  0.6765  0.4140
 2159TIP3    H127968   1.256   1.250   6.052  1.4209  1.9598 -0.6724
 2159TIP3    H227969   1.140   1.308   6.129  0.3734 -1.4904  0.4633
 2160TIP3   OH227970   5.899   5.831  14.701  0.4272 -0.1874 -0.5068
 2160TIP3    H127971   5.990   5.859  14.691  0.3006  0.4118 -0.0062
 2160TIP3    H227972   5.855   5.907  14.738 -0.1657 -0.6549 -0.2496
 2161TIP3   OH227973   1.328   0.104  17.184  0.1566 -0.2265 -0.2827
 2161TIP3    H127974   1.354   0.095  17.092  0.3535  0.6077 -0.3110
 2161TIP3    H227975   1.357   0.022  17.225  1.0394 -0.1482 -0.7392
 2162TIP3   OH227976   0.176   2.957   5.770  0.1170  0.6593  0.3562
 2162TIP3    H127977   0.252   2.921   5.725  0.8312  0.9928  1.2741
 2162TIP3    H227978   0.184   3.052   5.757 -0.8227  0.6278 -0.5885
 2163TIP3   OH227979   5.289   2.236  11.809 -0.1944 -0.0550  0.5938
 2163TIP3    H127980   5.200   2.205  11.789 -0.1413 -0.4759  0.9952
 2163TIP3    H227981   5.346   2.170  11.770 -0.0963 -1.1492  2.5415
 2164TIP3   OH227982   0.707   4.664   5.768  0.0259  0.7200  0.0861
 2164TIP3    H127983   0.647   4.679   5.695  0.5901  0.6650 -0.3944
 2164TIP3    H227984   0.657   4.612   5.831 -0.0301 -0.3781 -0.8571
 2165TIP3   OH227985   5.772   2.304   4.138  0.2789  0.1418 -0.3596
 2165TIP3    H127986   5.762   2.277   4.047  0.1595 -1.1788  0.0391
 2165TIP3    H227987   5.803   2.394   4.133 -2.4398  1.0661 -1.6964
 2166TIP3   OH227988   3.445   6.316   2.899 -0.1393 -0.0933  0.4627
 2166TIP3    H127989   3.479   6.404   2.913  0.9746 -0.4644  0.0985
 2166TIP3    H227990   3.404   6.293   2.983  0.4502  0.3802  0.8853
 2167TIP3   OH227991   3.441   4.169  12.224 -0.8421 -0.1978  0.2814
 2167TIP3    H127992   3.375   4.238  12.214 -1.4366 -1.0327 -1.8041
 2167TIP3    H227993   3.395   4.098  12.269 -1.3278 -0.7150 -1.0219
 2168TIP3   OH227994   3.691   5.489  16.726 -0.8281 -0.2211  0.6085
 2168TIP3    H127995   3.621   5.539  16.683 -0.5429  1.1240  1.6539
 2168TIP3    H227996   3.757   5.476  16.658 -1.4749 -0.2643 -0.0129
 2169TIP3   OH227997   3.248   2.652   0.374 -0.7073 -0.5495 -0.1495
 2169TIP3    H127998   3.334   2.610   0.370 -0.1182  0.6891 -0.5327
 2169TIP3    H227999   3.194   2.590   0.424  0.7425 -0.7601  1.1866
 2170TIP3   OH228000   0.817   2.208   5.358 -0.3102  0.4029  0.0668
 2170TIP3    H128001   0.823   2.287   5.412  0.3881  1.0821 -0.9976
 2170TIP3    H228002   0.908   2.184   5.341 -0.5299  0.0508 -0.6067
 2171TIP3   OH228003   5.760   2.008  17.147 -0.0738 -0.6114 -0.1788
 2171TIP3    H128004   5.673   2.043  17.163  0.3367  1.1287 -1.7296
 2171TIP3    H228005   5.772   1.942  17.216 -2.8822 -1.3938 -0.3931
 2172TIP3   OH228006   5.435   1.262   0.365 -0.0132  0.6497 -0.5979
 2172TIP3    H128007   5.387   1.189   0.403 -1.5956  1.0091 -1.8231
 2172TIP3    H228008   5.476   1.226   0.287  0.6587  0.6557 -0.2510
 2173TIP3   OH228009   4.247   5.921   1.799  0.2738  0.3407 -0.0988
 2173TIP3    H128010   4.311   5.930   1.870  0.3367 -1.5248  0.1303
 2173TIP3    H228011   4.262   5.832   1.766 -2.7339 -0.4448  0.5080
 2174TIP3   OH228012   6.632   4.023   1.468 -0.1669 -0.4979  0.4825
 2174TIP3    H128013   6.652   3.954   1.532  0.0342 -0.3209  0.6108
 2174TIP3    H228014   6.581   4.087   1.516 -1.2995 -1.0900  0.0774
 2175TIP3   OH228015   6.493   5.103   0.532  0.3629 -0.2791 -0.0867
 2175TIP3    H128016   6.496   5.151   0.615  1.4073 -0.8337  0.2064
 2175TIP3    H228017   6.546   5.025   0.548 -0.1099 -0.7950 -1.0253
 2176TIP3   OH228018   0.713   1.632   1.758 -0.5826 -0.0371 -0.6400
 2176TIP3    H128019   0.632   1.589   1.787 -0.9600  1.3718  0.4195
 2176TIP3    H228020   0.687   1.681   1.680 -0.4202 -0.7304 -1.1370
 2177TIP3   OH228021   1.462   3.346  15.841 -0.8299  0.5567  0.3373
 2177TIP3    H128022   1.444   3.282  15.772  1.8569  0.7469 -0.6095
 2177TIP3    H228023   1.495   3.294  15.914 -0.0863  0.6995  0.1100
 2178TIP3   OH228024   4.788   6.724  16.787  0.2007 -0.1211 -0.6693
 2178TIP3    H128025   4.791   6.766  16.702 -0.6169 -0.4011 -0.8412
 2178TIP3    H228026   4.880   6.710  16.810  0.4564  1.2121 -0.8662
 2179TIP3   OH228027   3.331   0.917  14.229  0.1830  0.0668 -0.0629
 2179TIP3    H128028   3.332   0.960  14.143  1.0765  2.0777  0.9065
 2179TIP3    H228029   3.353   0.826  14.211 -1.2574  0.1135 -2.1496
 2180TIP3   OH228030   1.034   1.192  14.207  0.5441 -0.2308 -0.0505
 2180TIP3    H128031   1.008   1.140  14.132 -0.8157 -0.9363  0.8814
 2180TIP3    H228032   1.106   1.247  14.175 -0.8395  0.3986 -2.1995
 2181TIP3   OH228033   2.992   3.367   0.174  0.2739 -0.4633  0.2873
 2181TIP3    H128034   2.923   3.301   0.184  0.6459 -0.6716  1.6281
 2181TIP3    H228035   3.001   3.378   0.080 -2.0030 -0.0253  0.0765
 2182TIP3   OH228036   0.168   1.149   2.685 -0.3333 -0.2226 -1.0141
 2182TIP3    H128037   0.252   1.165   2.727 -0.5926 -0.5727 -0.3606
 2182TIP3    H228038   0.183   1.072   2.630  0.3473  0.9767 -2.5592
 2183TIP3   OH228039   4.217   4.156  14.893  0.1719 -0.7962  0.0150
 2183TIP3    H128040   4.128   4.189  14.906  0.4172  0.3990 -1.2141
 2183TIP3    H228041   4.272   4.217  14.943  0.4691 -0.4024 -0.7953
 2184TIP3   OH228042   1.976   3.541   2.377 -0.1955  0.0379 -0.2988
 2184TIP3    H128043   1.962   3.546   2.472  0.2383  2.1487 -0.3214
 2184TIP3    H228044   2.046   3.478   2.367  0.7509  0.8529  0.9183
 2185TIP3   OH228045   6.428   4.774   0.088 -0.2855 -0.3595 -0.1460
 2185TIP3    H128046   6.383   4.836   0.144  1.2807  1.6468 -1.0464
 2185TIP3    H228047   6.358   4.730   0.039 -1.4416  0.2395  0.9467
 2186TIP3   OH228048   5.406   3.745  15.278  0.0077 -0.2749  0.3053
 2186TIP3    H128049   5.342   3.731  15.208  0.5728  0.9032 -0.4730
 2186TIP3    H228050   5.462   3.668  15.275  1.2728  0.6539 -1.9259
 2187TIP3   OH228051   2.983   1.839   2.616  0.3206  0.0116 -0.1199
 2187TIP3    H128052   3.044   1.783   2.569  0.5705  0.0908  0.1084
 2187TIP3    H228053   2.920   1.867   2.549  0.6530  0.0956 -0.3986
 2188TIP3   OH228054   3.537   1.764   5.923 -0.1232  0.0434 -1.2050
 2188TIP3    H128055   3.488   1.809   5.853 -1.1872  0.6135 -0.1099
 2188TIP3    H228056   3.503   1.802   6.004  1.2442 -0.4835 -0.3797
 2189TIP3   OH228057   5.051   3.232   3.694 -0.0489 -0.3226  0.2031
 2189TIP3    H128058   5.104   3.152   3.696  0.7357  0.1862 -0.0754
 2189TIP3    H228059   5.038   3.255   3.785  0.1723 -0.4783  0.2745
 2190TIP3   OH228060   6.726   1.134   0.996  0.4051  0.2875 -0.8257
 2190TIP3    H128061   6.672   1.056   1.003 -2.7762  2.5129  0.5715
 2190TIP3    H228062   6.675   1.194   0.941  2.7572  1.4548 -1.8278
 2191TIP3   OH228063   2.036   6.591   1.230 -0.0939  1.1179 -0.3006
 2191TIP3    H128064   2.046   6.587   1.135  1.5626  3.5778 -0.2798
 2191TIP3    H228065   1.944   6.615   1.243 -0.9155 -1.4355 -1.1757
 2192TIP3   OH228066   4.521   0.814   4.829 -0.2827 -0.2143  0.0538
 2192TIP3    H128067   4.478   0.820   4.915  1.7837  0.4440  1.0944
 2192TIP3    H228068   4.614   0.804   4.850  0.1681 -0.8686 -2.1285
 2193TIP3   OH228069   5.024   1.015   3.950 -0.4122  0.0074 -0.4731
 2193TIP3    H128070   4.983   0.960   3.883  2.4294  0.4153 -2.6427
 2193TIP3    H228071   5.104   0.969   3.973  0.5946  1.8290 -0.2314
 2194TIP3   OH228072   4.204   3.220   2.415  0.4750  0.0658  0.7948
 2194TIP3    H128073   4.229   3.291   2.474  0.3243  1.7940 -1.1594
 2194TIP3    H228074   4.110   3.207   2.431  0.1612  1.3586  0.1411
 2195TIP3   OH228075   5.213   2.742  14.956  0.2971  0.0637  0.6153
 2195TIP3    H128076   5.290   2.711  14.909 -0.6951 -0.5828 -0.6147
 2195TIP3    H228077   5.247   2.781  15.036  1.8996 -0.1772  0.0534
 2196TIP3   OH228078   1.219   2.893  12.388  0.1120 -0.3514 -0.2433
 2196TIP3    H128079   1.169   2.924  12.464 -0.1265 -1.8647  0.2275
 2196TIP3    H228080   1.152   2.871  12.323  0.3119  0.8696 -0.8923
 2197TIP3   OH228081   6.258   0.701  15.835  0.1489  0.3247 -0.0840
 2197TIP3    H128082   6.182   0.673  15.886  1.1626  0.4345  1.5132
 2197TIP3    H228083   6.333   0.682  15.891  1.4152 -0.9008 -2.1028
 2198TIP3   OH228084   5.436   0.917  12.733  0.2276 -0.0523 -0.2669
 2198TIP3    H128085   5.361   0.883  12.684  0.5146 -0.7947 -0.2133
 2198TIP3    H228086   5.401   0.989  12.784 -0.4299 -0.3242 -0.3259
 2199TIP3   OH228087   0.629   1.887  13.973 -0.4068  0.0126  0.5969
 2199TIP3    H128088   0.716   1.856  13.999 -0.3342 -0.6987 -0.4554
 2199TIP3    H228089   0.580   1.892  14.056  0.0231 -1.5651  0.9725
 2200TIP3   OH228090   3.055   1.978   0.423 -0.6833  0.2881  0.0094
 2200TIP3    H128091   3.027   2.067   0.398 -1.3391  0.3863  1.0688
 2200TIP3    H228092   3.053   1.929   0.341  0.5007  1.4540 -0.7513
 2201TIP3   OH228093   2.208   0.170  13.683 -0.4352  0.2094  0.0963
 2201TIP3    H128094   2.251   0.094  13.646 -0.1807 -0.1409  1.0940
 2201TIP3    H228095   2.121   0.171  13.642 -0.4602 -0.6400  0.1178
 2202TIP3   OH228096   1.064   3.194  12.215 -0.1324  0.2920  0.4419
 2202TIP3    H128097   0.972   3.219  12.213 -0.0704  0.7278  2.0125
 2202TIP3    H228098   1.109   3.271  12.249  0.8804  0.2602 -0.8051
 2203TIP3   OH228099   2.618   1.288  11.346  0.6902  0.3636  0.5100
 2203TIP3    H128100   2.667   1.357  11.392  1.1356  0.4933 -0.1391
 2203TIP3    H228101   2.679   1.258  11.278  0.4767 -0.6458  0.7671
 2204TIP3   OH228102   3.324   4.197   2.385 -0.4298  0.1352 -0.2989
 2204TIP3    H128103   3.318   4.249   2.305  0.9565 -0.2181 -0.6522
 2204TIP3    H228104   3.311   4.107   2.355 -2.1530  0.2105  0.2085
 2205TIP3   OH228105   0.652   4.677  16.042 -0.7938  0.4918 -0.4969
 2205TIP3    H128106   0.641   4.724  16.125 -0.0513  1.3675 -0.8815
 2205TIP3    H228107   0.747   4.674  16.029 -0.9180  0.5778 -1.4353
 2206TIP3   OH228108   5.736   2.774   4.649  0.1168  0.1147  0.0069
 2206TIP3    H128109   5.705   2.742   4.565 -0.4953 -2.2765  1.0891
 2206TIP3    H228110   5.793   2.704   4.682  1.0081  1.3766  1.2045
 2207TIP3   OH228111   1.080   2.970   5.498 -0.8705  0.1583 -0.3498
 2207TIP3    H128112   1.059   2.979   5.591  2.3675 -1.2166  0.6108
 2207TIP3    H228113   1.152   3.031   5.484 -0.6141 -0.4340 -1.6769
 2208TIP3   OH228114   3.890   3.891  13.710  0.5198 -0.5305 -0.1656
 2208TIP3    H128115   3.897   3.985  13.723 -0.1248 -0.6937  1.4334
 2208TIP3    H228116   3.866   3.881  13.618  1.7095  0.8074 -0.6349
 2209TIP3   OH228117   3.340   6.263   3.161  0.4942 -0.1702 -0.1945
 2209TIP3    H128118   3.248   6.241   3.179  0.1069  1.7856  0.3288
 2209TIP3    H228119   3.390   6.202   3.215 -0.4925 -1.2253 -0.4461
 2210TIP3   OH228120   6.271   4.919   2.065  0.3271  0.0831 -0.0374
 2210TIP3    H128121   6.307   4.831   2.054  1.1108  0.1281  1.9480
 2210TIP3    H228122   6.195   4.906   2.122 -0.1745  0.5568 -0.6036
 2211TIP3   OH228123   5.139   1.397   0.879 -0.0499 -0.6418  0.1743
 2211TIP3    H128124   5.149   1.337   0.954 -0.7074  0.1776  0.9306
 2211TIP3    H228125   5.049   1.381   0.848 -1.1775  1.8219  2.0456
 2212TIP3   OH228126   2.437   4.834  16.264  0.2600 -0.2347  0.4198
 2212TIP3    H128127   2.354   4.882  16.259  1.2235  1.4685  0.3883
 2212TIP3    H228128   2.496   4.884  16.207  1.5662 -0.8776  1.2079
 2213TIP3   OH228129   4.947   0.549   1.809  0.2556 -0.3925  0.3611
 2213TIP3    H128130   4.984   0.573   1.894 -0.2965  0.3497  0.3970
 2213TIP3    H228131   4.920   0.458   1.819 -0.5894 -0.0536  1.2575
 2214TIP3   OH228132   5.461   1.584  10.521 -0.3591  0.7771  0.1393
 2214TIP3    H128133   5.546   1.570  10.563 -0.0772  1.7925 -0.1011
 2214TIP3    H228134   5.470   1.544  10.434 -1.0688 -1.6824  1.1261
 2215TIP3   OH228135   5.170   3.308  11.752 -0.1644  0.1783 -0.1904
 2215TIP3    H128136   5.254   3.313  11.707  0.3035 -0.5436  0.5912
 2215TIP3    H228137   5.146   3.216  11.749 -1.9831  0.6750 -2.2904
 2216TIP3   OH228138   5.121   4.347   3.068  0.1340  0.0909 -0.5659
 2216TIP3    H128139   5.034   4.385   3.076 -0.3053 -1.0407  0.0611
 2216TIP3    H228140   5.137   4.344   2.974 -0.8404 -0.4722 -0.7106
 2217TIP3   OH228141   4.538   0.250   1.827  0.8606 -0.3217 -0.8504
 2217TIP3    H128142   4.492   0.257   1.910  0.2385 -0.5510 -1.1776
 2217TIP3    H228143   4.527   0.335   1.785  0.3070 -0.5388 -1.1503
 2218TIP3   OH228144   0.249   2.369   6.570 -0.5049  0.2718  0.0967
 2218TIP3    H128145   0.251   2.457   6.533  0.3171  0.0236 -0.4650
 2218TIP3    H228146   0.264   2.381   6.663  0.3550  0.6738 -0.0917
 2219TIP3   OH228147   0.143   0.011  14.304  0.0685 -0.5785 -0.0917
 2219TIP3    H128148   0.070  -0.028  14.352 -0.3045  0.2315  0.0076
 2219TIP3    H228149   0.184   0.071  14.367 -0.2970  0.3379 -0.7133
 2220TIP3   OH228150   3.648   4.893   1.276  0.0037  0.5371  0.4040
 2220TIP3    H128151   3.634   4.964   1.213  0.7130  0.0772 -0.2918
 2220TIP3    H228152   3.564   4.884   1.322 -0.6190  0.6885 -0.6806
 2221TIP3   OH228153   2.476   2.000   4.768 -0.2525 -0.2731 -0.4112
 2221TIP3    H128154   2.492   2.040   4.854 -0.3135 -0.6659 -0.2145
 2221TIP3    H228155   2.402   1.942   4.782  0.1339 -0.8137 -0.5773
 2222TIP3   OH228156   0.100   3.311  11.400 -0.0829 -0.4618 -0.0444
 2222TIP3    H128157   0.101   3.305  11.495  0.9238  0.6964  0.0405
 2222TIP3    H228158   0.191   3.301  11.374 -0.1865  0.3915 -0.7887
 2223TIP3   OH228159   1.396   1.415   0.679 -0.1553  0.6179 -0.7048
 2223TIP3    H128160   1.457   1.425   0.752 -0.3606  0.0148 -0.4462
 2223TIP3    H228161   1.418   1.486   0.619  0.9335  0.2882 -0.7023
 2224TIP3   OH228162   0.653   5.966   3.516  0.2617  0.8735 -0.1754
 2224TIP3    H128163   0.602   5.898   3.560  1.9631 -0.9742 -1.0115
 2224TIP3    H228164   0.741   5.958   3.553  0.3849  2.9620  0.0669
 2225TIP3   OH228165   2.842   0.305  11.994  0.6378 -0.8772  0.5172
 2225TIP3    H128166   2.784   0.378  12.014  1.0887 -0.4777  0.3810
 2225TIP3    H228167   2.786   0.227  11.998  0.1421 -0.5156  0.5846
 2226TIP3   OH228168   4.129   2.173   5.958 -0.2977 -0.1677 -0.4807
 2226TIP3    H128169   4.037   2.149   5.971  0.2634 -1.6524  0.9373
 2226TIP3    H228170   4.155   2.212   6.042  0.7177 -0.9623 -0.4157
 2227TIP3   OH228171   6.195   4.917  14.180  0.0208  0.1110 -0.3706
 2227TIP3    H128172   6.103   4.934  14.199  1.0450  1.9668  3.4552
 2227TIP3    H228173   6.213   4.968  14.101 -1.6677  1.7251  0.2378
 2228TIP3   OH228174   2.568   0.306  16.005  0.3357  0.5908  0.3993
 2228TIP3    H128175   2.584   0.384  16.058 -1.5862  1.1277  0.1856
 2228TIP3    H228176   2.577   0.233  16.067 -0.5291  1.1378  1.1745
 2229TIP3   OH228177   6.039   1.582  15.199  0.1136  0.1778  0.0248
 2229TIP3    H128178   6.062   1.548  15.285  3.0957  3.0579  0.5027
 2229TIP3    H228179   6.088   1.526  15.138  0.2246 -0.1301  0.3897
 2230TIP3   OH228180   5.601   6.654   3.358 -0.0181 -0.1056  0.4441
 2230TIP3    H128181   5.558   6.695   3.432  1.6903 -0.8197  1.8610
 2230TIP3    H228182   5.574   6.707   3.282 -2.0603  0.3975  1.5015
 2231TIP3   OH228183   1.273   3.038   1.388  0.0312 -0.7751 -0.6644
 2231TIP3    H128184   1.180   3.056   1.403 -0.3245 -2.3330 -0.9453
 2231TIP3    H228185   1.317   3.120   1.413 -1.6424  1.0436 -3.3432
 2232TIP3   OH228186   4.090   5.308  16.544  0.1643  0.3282 -0.4080
 2232TIP3    H128187   4.086   5.212  16.545  1.4071  0.2747 -0.1714
 2232TIP3    H228188   4.110   5.332  16.634  0.1114  0.7986 -0.5216
 2233TIP3   OH228189   2.440   1.455  15.410  0.3115 -0.4173  0.5873
 2233TIP3    H128190   2.421   1.518  15.479 -0.1249  0.8026 -0.6216
 2233TIP3    H228191   2.374   1.473  15.343  2.3422  0.2315 -1.2974
 2234TIP3   OH228192   3.361   5.870  12.863  0.8028 -0.4795  0.6665
 2234TIP3    H128193   3.288   5.814  12.838  0.3182 -1.0936  3.3300
 2234TIP3    H228194   3.369   5.933  12.791 -2.1947 -0.5354  0.2342
 2235TIP3   OH228195   2.498   6.166   2.916 -0.2239  0.1693  0.1452
 2235TIP3    H128196   2.466   6.108   2.986  0.4709 -0.7521 -0.3002
 2235TIP3    H228197   2.589   6.141   2.904 -0.3782  0.2468 -1.1943
 2236TIP3   OH228198   5.567   0.191   6.565 -0.0678 -0.1746  0.2768
 2236TIP3    H128199   5.551   0.273   6.612  0.3670  0.0376  0.0641
 2236TIP3    H228200   5.662   0.191   6.550  0.6233 -2.7450  4.0306
 2237TIP3   OH228201   6.008   5.281  13.838 -0.5937  0.7574  0.9904
 2237TIP3    H128202   6.052   5.361  13.868 -1.1152  0.5426  2.3710
 2237TIP3    H228203   5.924   5.282  13.884 -0.4408 -0.7878  1.3080
 2238TIP3   OH228204   1.145   4.143  14.839  0.0346  0.4496  0.3310
 2238TIP3    H128205   1.108   4.183  14.917  0.7401  2.1969 -0.2104
 2238TIP3    H228206   1.216   4.088  14.871  1.1758  2.1799  0.8251
 2239TIP3   OH228207   2.972   2.445  13.988 -0.0816 -0.2007 -0.4770
 2239TIP3    H128208   3.038   2.483  14.046  1.0682 -0.5900 -1.5139
 2239TIP3    H228209   2.912   2.400  14.047  1.5855 -1.3701  0.3596
 2240TIP3   OH228210   0.705   0.294   3.848  0.8539 -0.3047 -0.1049
 2240TIP3    H128211   0.731   0.205   3.871  0.3536 -0.7601 -1.2707
 2240TIP3    H228212   0.647   0.283   3.773 -1.1518  0.8441  1.2483
 2241TIP3   OH228213   4.085   5.874  12.203  0.2026  0.0847 -0.3127
 2241TIP3    H128214   4.131   5.809  12.150  1.2259  0.0754  0.5839
 2241TIP3    H228215   3.995   5.873  12.168  0.2400 -1.6880 -0.4372
 2242TIP3   OH228216   6.058   0.492   0.065  0.1345 -0.4810  0.1132
 2242TIP3    H128217   5.963   0.490   0.059  0.1376 -1.8385  0.3163
 2242TIP3    H228218   6.077   0.466   0.156  0.7027 -0.6700 -0.0543
 2243TIP3   OH228219   4.900   3.077  12.324  0.0874 -0.7759 -0.5376
 2243TIP3    H128220   4.945   3.033  12.395  0.6373  0.7814  0.1070
 2243TIP3    H228221   4.808   3.051  12.332  0.0492 -0.1687  1.0847
 2244TIP3   OH228222   2.029   0.687  12.230 -0.0390 -0.8147  0.8286
 2244TIP3    H128223   2.088   0.762  12.225 -0.4272 -0.5644 -0.3598
 2244TIP3    H228224   1.968   0.700  12.157 -0.9598 -1.5718  1.4471
 2245TIP3   OH228225   4.060   6.621   2.730  0.3412 -0.4097  0.2139
 2245TIP3    H128226   4.039   6.638   2.822 -0.3586 -0.5256  0.0748
 2245TIP3    H228227   3.986   6.569   2.697  1.1368 -1.3691 -0.1050
 2246TIP3   OH228228   1.358   3.630  17.147  0.2163 -0.2391  0.5504
 2246TIP3    H128229   1.332   3.630  17.055  0.8437  1.0537  0.3622
 2246TIP3    H228230   1.452   3.645  17.145  0.2484 -0.3091  1.4031
 2247TIP3   OH228231   4.267   1.145  17.154  0.2596  0.1706  0.3189
 2247TIP3    H128232   4.190   1.177  17.107 -0.7989 -1.5955  0.7876
 2247TIP3    H228233   4.234   1.121  17.241  0.6871 -3.2950 -0.4127
 2248TIP3   OH228234   4.816   1.410  11.601 -0.1210  0.2245 -0.0945
 2248TIP3    H128235   4.868   1.457  11.666  0.2325  0.2889 -0.4206
 2248TIP3    H228236   4.870   1.412  11.522 -0.1471 -0.6313 -0.1424
 2249TIP3   OH228237   1.685   4.193  15.048 -0.8326  0.3041  0.1522
 2249TIP3    H128238   1.702   4.243  15.128  0.0769  1.1092 -0.5256
 2249TIP3    H228239   1.597   4.220  15.020 -1.6288 -0.8383  1.4825
 2250TIP3   OH228240   1.837   3.875   2.152  0.2992  0.3293 -0.0343
 2250TIP3    H128241   1.810   3.855   2.062  0.1458 -0.4751  0.1920
 2250TIP3    H228242   1.789   3.813   2.206  1.9699 -0.5683  0.4524
 2251TIP3   OH228243   5.903   2.155   0.556  0.5462  0.0375 -0.1746
 2251TIP3    H128244   5.972   2.116   0.503 -0.8291 -1.0679 -1.1904
 2251TIP3    H228245   5.841   2.084   0.571  1.2414  0.0884  3.5987
 2252TIP3   OH228246   6.513   3.145  15.335 -0.1155 -0.5133  0.2924
 2252TIP3    H128247   6.500   3.148  15.430 -0.7182 -2.4606  0.3049
 2252TIP3    H228248   6.605   3.168  15.322 -0.1447  0.2211  1.3053
 2253TIP3   OH228249   3.026   3.524   5.060 -0.1286  0.0511  0.1888
 2253TIP3    H128250   2.978   3.604   5.041  1.1480  0.8408  0.2290
 2253TIP3    H228251   3.118   3.551   5.063  0.3022 -1.3808  0.3616
 2254TIP3   OH228252   3.315   4.355  16.847  0.2541 -0.5304  0.0108
 2254TIP3    H128253   3.329   4.406  16.767  2.1533 -2.7599 -1.1276
 2254TIP3    H228254   3.399   4.358  16.893  0.0751 -1.7708  0.4305
 2255TIP3   OH228255   5.193   1.983   1.299 -0.1717 -0.0747  0.3122
 2255TIP3    H128256   5.205   2.016   1.210 -2.9273  0.9572  0.2801
 2255TIP3    H228257   5.189   2.061   1.353 -0.9717 -0.5799  1.0008
 2256TIP3   OH228258   4.978   3.177   5.383  0.4008  0.0291 -0.0049
 2256TIP3    H128259   4.919   3.246   5.351 -0.4903 -1.4960 -1.6907
 2256TIP3    H228260   4.973   3.185   5.478 -3.1101 -0.4851 -0.0514
 2257TIP3   OH228261   1.922   2.890   4.983 -0.2089 -0.0421 -0.2508
 2257TIP3    H128262   1.990   2.863   5.044 -0.3160 -0.2222 -0.2103
 2257TIP3    H228263   1.842   2.889   5.035 -0.5044 -1.4308 -0.7132
 2258TIP3   OH228264   3.248   0.660  10.911  0.1062  0.0788 -0.1042
 2258TIP3    H128265   3.327   0.609  10.926  0.4200  0.6684  0.2436
 2258TIP3    H228266   3.217   0.631  10.825 -0.3095 -1.4686  0.5471
 2259TIP3   OH228267   4.671   4.775   5.840  0.0479  0.1658 -0.2637
 2259TIP3    H128268   4.635   4.688   5.857 -0.6834  1.0006  2.6314
 2259TIP3    H228269   4.596   4.827   5.812  0.3356  0.1067 -1.1730
 2260TIP3   OH228270   6.582   4.344   1.228  0.1271  0.6400  0.8203
 2260TIP3    H128271   6.588   4.251   1.206  0.0007  0.4005  1.7638
 2260TIP3    H228272   6.633   4.388   1.160 -1.1322  0.0243 -0.5497
 2261TIP3   OH228273   1.648   1.437  12.905 -0.4389  0.5117  0.4824
 2261TIP3    H128274   1.656   1.512  12.963  0.8216  1.2245 -0.5919
 2261TIP3    H228275   1.706   1.457  12.831  0.8936 -2.0858  0.7803
 2262TIP3   OH228276   2.264   5.704  12.868 -0.0580  0.0272 -0.1273
 2262TIP3    H128277   2.330   5.744  12.925 -1.4779  0.2731  1.3802
 2262TIP3    H228278   2.314   5.645  12.812  1.5988  1.1396  0.1410
 2263TIP3   OH228279   5.487   5.611   1.032  1.0727 -0.2454 -0.3537
 2263TIP3    H128280   5.507   5.579   0.944 -1.0796  0.2530 -1.0671
 2263TIP3    H228281   5.404   5.569   1.055  1.3621  0.0167  1.2326
 2264TIP3   OH228282   1.184   6.563   2.305 -0.6353  0.3217  0.3044
 2264TIP3    H128283   1.132   6.528   2.232 -1.6690  1.8657  0.2997
 2264TIP3    H228284   1.275   6.551   2.276 -0.9708 -1.8591  0.0754
 2265TIP3   OH228285   4.996   6.491  15.860  0.4834 -0.9216  0.1242
 2265TIP3    H128286   4.920   6.435  15.876 -0.3885  0.4077  0.7011
 2265TIP3    H228287   5.061   6.461  15.923  0.8718 -2.8218 -1.1281
 2266TIP3   OH228288   0.268   6.768  12.047  0.2016 -0.5819 -0.3879
 2266TIP3    H128289   0.297   6.842  11.994 -0.1299 -0.6377 -0.6488
 2266TIP3    H228290   0.350   6.727  12.077  0.3905 -0.4665 -0.7373
 2267TIP3   OH228291   5.569   6.377  16.051 -0.2723 -0.5035 -0.2055
 2267TIP3    H128292   5.554   6.427  15.971 -1.5121 -2.2524 -1.1113
 2267TIP3    H228293   5.662   6.355  16.049 -0.2571 -0.3645 -1.0848
 2268TIP3   OH228294   5.717   1.181  16.568  0.3159 -0.5741  0.7142
 2268TIP3    H128295   5.689   1.252  16.625 -2.1411  0.1095 -1.2750
 2268TIP3    H228296   5.793   1.215  16.521 -0.8011  0.7325 -0.1674
 2269TIP3   OH228297   6.768   5.502  14.711 -0.1942  0.4401 -0.1321
 2269TIP3    H128298   6.810   5.505  14.798 -1.0131  0.7791  0.2564
 2269TIP3    H228299   6.735   5.591  14.698  1.3570  0.8327 -1.5163
 2270TIP3   OH228300   2.572   4.712   4.409 -0.0151  0.0317 -0.3158
 2270TIP3    H128301   2.532   4.639   4.456 -0.9600  0.5367 -0.3251
 2270TIP3    H228302   2.542   4.701   4.319  0.0238  0.2958 -0.3618
 2271TIP3   OH228303   1.076   2.481  13.230 -0.0791 -0.3642  0.2014
 2271TIP3    H128304   1.155   2.461  13.280 -0.9630 -2.0600  0.9530
 2271TIP3    H228305   1.069   2.411  13.166  0.1673  0.9280 -1.2556
 2272TIP3   OH228306   3.467   5.794  16.182 -0.0845  0.0900 -0.1011
 2272TIP3    H128307   3.421   5.740  16.246  0.2432  1.2059  1.0752
 2272TIP3    H228308   3.491   5.873  16.229  0.1801  0.9148 -1.5989
 2273TIP3   OH228309   2.968   2.892   2.940 -0.3516  0.2759  0.0361
 2273TIP3    H128310   2.964   2.977   2.985  2.2213 -0.0648  1.0187
 2273TIP3    H228311   3.026   2.839   2.995 -1.5551 -1.9645 -0.8220
 2274TIP3   OH228312   4.549   1.271  10.779 -0.1461 -0.6499  0.1648
 2274TIP3    H128313   4.560   1.188  10.732  1.4131 -0.5715  0.3669
 2274TIP3    H228314   4.461   1.265  10.816 -0.2388 -2.0090 -0.2234
 2275TIP3   OH228315   1.444   2.188   1.565 -0.4245 -0.8028 -0.6526
 2275TIP3    H128316   1.387   2.230   1.501 -0.9096  0.1526  0.3877
 2275TIP3    H228317   1.414   2.096   1.567 -1.7291 -0.3863 -0.3352
 2276TIP3   OH228318   0.391   6.696  15.506 -0.7248 -0.6623 -0.2340
 2276TIP3    H128319   0.380   6.757  15.579 -0.7847 -0.7974 -0.1289
 2276TIP3    H228320   0.369   6.610  15.544 -0.0665 -0.8298 -0.2299
 2277TIP3   OH228321   5.211   0.095  11.170 -0.1521 -0.3927 -0.2885
 2277TIP3    H128322   5.243   0.113  11.259  1.1531 -0.2389 -0.7800
 2277TIP3    H228323   5.130   0.145  11.163 -0.4042 -0.6243  0.9212
 2278TIP3   OH228324   2.205   6.353   2.428 -0.1342  0.3103 -0.0455
 2278TIP3    H128325   2.226   6.353   2.334 -0.2255  0.8769 -0.0673
 2278TIP3    H228326   2.212   6.444   2.454  2.0063 -0.1048  0.9929
 2279TIP3   OH228327   2.928   2.014  15.052 -0.1686 -0.0417 -0.0660
 2279TIP3    H128328   2.922   1.922  15.076  0.5962 -0.1270 -0.2031
 2279TIP3    H228329   2.875   2.059  15.118 -2.5250 -0.7902 -1.3633
 2280TIP3   OH228330   3.048   5.815   5.946  0.2110 -0.2266 -0.8770
 2280TIP3    H128331   3.087   5.836   5.862 -2.0996  1.7636 -1.5121
 2280TIP3    H228332   2.964   5.861   5.946  0.3501  0.1836  2.7003
 2281TIP3   OH228333   6.101   6.022   5.092 -0.2420 -0.5435  0.3404
 2281TIP3    H128334   6.050   5.955   5.048  0.5197 -0.2456 -1.0378
 2281TIP3    H228335   6.192   5.994   5.082  0.0889  0.6714 -0.2767
 2282TIP3   OH228336   6.110   2.328   1.229 -0.3504  0.3843  0.5010
 2282TIP3    H128337   6.090   2.294   1.316 -0.6770 -0.2479  0.1820
 2282TIP3    H228338   6.151   2.413   1.246 -0.2056  0.1677  1.2744
 2283TIP3   OH228339   2.069   2.602  17.006  0.0117 -0.0111 -0.6410
 2283TIP3    H128340   2.142   2.566  17.057 -0.5990 -0.3521 -0.0083
 2283TIP3    H228341   2.028   2.526  16.966 -0.8917  0.0279  0.1879
 2284TIP3   OH228342   6.766   4.360   5.844 -0.1789  0.1424  0.2102
 2284TIP3    H128343   6.810   4.348   5.928 -0.8000  1.1809  0.6998
 2284TIP3    H228344   6.803   4.293   5.787  1.1262  0.2056  0.9669
 2285TIP3   OH228345   2.026   1.122  15.137 -0.1621 -0.0599  0.3971
 2285TIP3    H128346   2.020   1.124  15.232 -3.5760  0.9219  0.2395
 2285TIP3    H228347   2.014   1.214  15.110 -1.1691 -0.5969 -1.0379
 2286TIP3   OH228348   3.048   5.186   5.176 -0.3118 -0.5597 -0.4403
 2286TIP3    H128349   3.129   5.147   5.143 -0.3911 -2.3690  1.3750
 2286TIP3    H228350   3.059   5.280   5.163  2.2901 -0.7359  0.2175
 2287TIP3   OH228351   6.262   4.661  11.117  0.3060  0.1958 -0.0969
 2287TIP3    H128352   6.303   4.665  11.203 -0.4969  0.6702  0.2637
 2287TIP3    H228353   6.307   4.589  11.073  1.3082  0.4973  0.4052
 2288TIP3   OH228354   2.712   5.605  11.990  0.1876 -0.0424  0.5806
 2288TIP3    H128355   2.745   5.543  11.925 -1.5840  0.0189 -0.3961
 2288TIP3    H228356   2.746   5.690  11.962 -0.7835  0.0214 -0.4029
 2289TIP3   OH228357   5.820   6.752  17.137  0.5167  0.8211 -0.0218
 2289TIP3    H128358   5.864   6.797  17.210 -1.0360  2.2916  0.0293
 2289TIP3    H228359   5.783   6.673  17.176 -0.0430  1.4495  0.7394
 2290TIP3   OH228360   6.080   5.160   1.173  0.4175 -0.2022  0.0002
 2290TIP3    H128361   6.062   5.066   1.179  1.3771 -0.4239 -0.5843
 2290TIP3    H228362   6.026   5.199   1.243 -0.8624 -1.0575 -0.4818
 2291TIP3   OH228363   0.512   6.326  15.353 -0.1934 -0.0949  0.0062
 2291TIP3    H128364   0.548   6.392  15.412  0.0518 -0.9469  0.8260
 2291TIP3    H228365   0.582   6.261  15.344  0.0389  0.3777 -1.7970
 2292TIP3   OH228366   5.725   3.747  16.455 -0.0037 -0.1746 -0.3609
 2292TIP3    H128367   5.798   3.800  16.487 -1.6709  1.4800  0.8257
 2292TIP3    H228368   5.707   3.782  16.367 -1.2640  1.4986  0.5131
 2293TIP3   OH228369   4.038   6.673   3.341  0.0896 -0.2430 -0.0141
 2293TIP3    H128370   4.102   6.631   3.399 -1.3275 -1.5971  0.6064
 2293TIP3    H228371   4.058   6.766   3.346  0.6625 -0.4501  1.8458
 2294TIP3   OH228372   4.399   0.230   0.992 -0.4091 -0.2170  0.2253
 2294TIP3    H128373   4.453   0.220   0.914  0.3298 -0.4049  0.7546
 2294TIP3    H228374   4.374   0.323   0.992  0.0938 -0.0838  0.0994
 2295TIP3   OH228375   4.652   3.083  15.673  0.4366  0.7426 -0.5743
 2295TIP3    H128376   4.644   2.991  15.647  3.2067  1.3947 -4.0798
 2295TIP3    H228377   4.685   3.079  15.763  1.6181 -1.7136 -1.0765
 2296TIP3   OH228378   0.767   3.638  15.383 -0.5463 -0.4108 -0.3054
 2296TIP3    H128379   0.816   3.593  15.315 -0.6912  0.2817 -0.8731
 2296TIP3    H228380   0.689   3.671  15.339 -1.0352 -0.6507  0.3716
 2297TIP3   OH228381   0.363   5.085  15.065 -0.0532 -0.2966 -0.2187
 2297TIP3    H128382   0.284   5.132  15.039 -0.0570 -0.5197 -0.6043
 2297TIP3    H228383   0.344   4.993  15.046  0.3056 -0.3483 -0.3320
 2298TIP3   OH228384   4.141   5.322  16.802  0.6552  0.3705 -0.0538
 2298TIP3    H128385   4.100   5.340  16.886 -0.5911 -0.9234 -0.3618
 2298TIP3    H228386   4.225   5.281  16.825  0.9887  1.3671  0.5540
 2299TIP3   OH228387   1.976   2.531   1.226  0.8136 -0.2101  0.7245
 2299TIP3    H128388   2.070   2.550   1.223  0.3107  2.3670 -0.6787
 2299TIP3    H228389   1.963   2.464   1.159  1.3385  1.0262 -0.6373
 2300TIP3   OH228390   4.134   4.714  11.146  0.0512 -0.4220  0.3246
 2300TIP3    H128391   4.208   4.775  11.147 -0.2897  0.0394 -0.9734
 2300TIP3    H228392   4.119   4.696  11.053 -1.5756 -0.3841  0.5590
 2301TIP3   OH228393   5.950   0.410  16.977  0.1914 -0.2420 -0.1558
 2301TIP3    H128394   5.967   0.318  16.958  0.7816 -0.3613  0.9187
 2301TIP3    H228395   5.915   0.411  17.066  0.6089  0.6165  0.0024
 2302TIP3   OH228396   3.376   6.316   3.616  0.1734 -0.3124  0.2219
 2302TIP3    H128397   3.443   6.309   3.683 -0.3466 -1.8770  0.6212
 2302TIP3    H228398   3.422   6.344   3.537  1.0154  0.2118  0.9055
 2303TIP3   OH228399   4.636   0.756  13.991  0.0836  0.0171  0.4581
 2303TIP3    H128400   4.729   0.778  13.993  0.2993 -1.0425  2.7277
 2303TIP3    H228401   4.595   0.823  14.046 -0.7164  1.3281 -1.6621
 2304TIP3   OH228402   1.067   0.812   1.691  0.2274 -0.2351 -0.3527
 2304TIP3    H128403   0.985   0.839   1.732 -0.5046  1.1347 -2.6246
 2304TIP3    H228404   1.135   0.859   1.740 -0.4186 -0.4768  0.7977
 2305TIP3   OH228405   2.189   4.061   2.355  0.1948 -0.4220  0.0572
 2305TIP3    H128406   2.239   4.085   2.433 -1.2773  1.3343  0.5072
 2305TIP3    H228407   2.115   4.010   2.388  0.1636 -0.6180 -0.3106
 2306TIP3   OH228408   5.381   3.309   2.595 -0.0654 -0.5660 -0.7266
 2306TIP3    H128409   5.364   3.300   2.501 -0.2736 -0.1757 -0.7260
 2306TIP3    H228410   5.306   3.358   2.628 -0.2343 -1.1259 -0.2709
 2307TIP3   OH228411   3.962   5.387  14.731 -0.1430 -0.0897  0.0452
 2307TIP3    H128412   3.914   5.428  14.659 -1.3566 -2.5976 -0.6418
 2307TIP3    H228413   4.047   5.364  14.694  0.7751  2.3154  0.6105
 2308TIP3   OH228414   2.118   0.290   4.079  0.3475  0.7727  0.0868
 2308TIP3    H128415   2.082   0.356   4.019  1.9834  0.8908 -0.8013
 2308TIP3    H228416   2.044   0.233   4.099 -0.7515  2.0468 -0.2698
 2309TIP3   OH228417   6.247   0.169  14.000 -0.2889  0.3806  0.3063
 2309TIP3    H128418   6.290   0.235  14.054 -0.5143  0.5073  0.3312
 2309TIP3    H228419   6.175   0.216  13.958  0.0715  0.3575 -0.3463
 2310TIP3   OH228420   0.412   0.367  13.882 -0.3261 -0.3621  0.4124
 2310TIP3    H128421   0.403   0.284  13.931 -0.9454 -1.0741 -0.8951
 2310TIP3    H228422   0.332   0.374  13.831  0.3455  0.3468 -0.5616
 2311TIP3   OH228423   6.012   4.764   3.079 -0.1642 -0.3365 -0.1378
 2311TIP3    H128424   5.970   4.827   3.021 -0.2036  0.3139  0.5813
 2311TIP3    H228425   6.104   4.765   3.053 -0.2346 -0.2641 -0.3826
 2312TIP3   OH228426   1.219   5.743   4.493 -0.6663  0.1844  0.5377
 2312TIP3    H128427   1.308   5.767   4.516 -0.8296  0.4971  0.8419
 2312TIP3    H228428   1.184   5.700   4.571 -0.2990 -1.2571 -0.0756
 2313TIP3   OH228429   0.154   5.846  14.848 -0.0307 -0.6738  0.3520
 2313TIP3    H128430   0.236   5.828  14.801  0.5149  1.0589  0.6139
 2313TIP3    H228431   0.155   5.940  14.862 -0.9428 -0.9567  2.4634
 2314TIP3   OH228432   0.867   6.747  14.198 -0.5781  0.5677  0.0210
 2314TIP3    H128433   0.791   6.731  14.253 -1.6223  1.6297 -1.0925
 2314TIP3    H228434   0.834   6.742  14.108  1.1216 -1.3107 -0.5643
 2315TIP3   OH228435   4.256   5.774  16.718 -0.4532 -0.0612  0.2352
 2315TIP3    H128436   4.241   5.689  16.677 -1.4249 -0.4613  1.3534
 2315TIP3    H228437   4.322   5.816  16.664  1.4134 -2.2898  0.7181
 2316TIP3   OH228438   5.325   2.409  13.943  0.3393 -0.6494 -0.2690
 2316TIP3    H128439   5.378   2.437  13.868  1.0452 -0.1053  0.4390
 2316TIP3    H228440   5.238   2.394  13.905  0.6909 -0.3863 -1.2058
 2317TIP3   OH228441   4.290   1.591  15.117  0.0187 -0.0405 -0.1210
 2317TIP3    H128442   4.321   1.588  15.208 -1.1963  0.5157  0.3265
 2317TIP3    H228443   4.219   1.655  15.118 -0.7856 -0.9008 -1.2271
 2318TIP3   OH228444   0.602   6.251   3.720  0.1759 -0.2142  0.0021
 2318TIP3    H128445   0.550   6.209   3.788 -1.1372  0.3591 -0.6203
 2318TIP3    H228446   0.611   6.342   3.749  1.4576 -0.4798  0.4588
 2319TIP3   OH228447   1.453   4.530  14.730 -0.1567 -0.0379 -0.4361
 2319TIP3    H128448   1.506   4.589  14.784 -0.1409 -1.5700  1.2596
 2319TIP3    H228449   1.485   4.443  14.751 -1.0954 -0.7483 -1.9116
 2320TIP3   OH228450   1.282   3.540  14.202 -0.0396  0.0780 -0.3817
 2320TIP3    H128451   1.236   3.595  14.266  0.0650 -2.3835  1.8883
 2320TIP3    H228452   1.374   3.561  14.214 -0.1761  1.1598 -1.2130
 2321TIP3   OH228453   2.575   0.742  11.747 -0.0219 -0.0668 -0.1895
 2321TIP3    H128454   2.589   0.650  11.725  0.4670 -0.1029  0.2774
 2321TIP3    H228455   2.547   0.783  11.665  2.8944  0.0400 -1.1646
 2322TIP3   OH228456   3.140   3.646  16.001  0.0291 -0.1902  0.5554
 2322TIP3    H128457   3.166   3.718  16.059  0.2216  0.3501 -0.1971
 2322TIP3    H228458   3.190   3.660  15.921  0.4318 -1.4434  0.5745
 2323TIP3   OH228459   5.414   0.044  10.578 -0.2753  0.0026 -0.3856
 2323TIP3    H128460   5.400  -0.025  10.643 -1.4624  2.6484  2.2791
 2323TIP3    H228461   5.509   0.045  10.564  0.0318 -0.4473  1.5180
 2324TIP3   OH228462   4.787   3.202  10.636  0.0666 -0.2749 -0.2811
 2324TIP3    H128463   4.826   3.127  10.591  1.4902  0.8400 -0.9219
 2324TIP3    H228464   4.855   3.269  10.636 -0.7359  0.5791  1.4489
 2325TIP3   OH228465   3.996   6.250  15.907 -0.1750  0.4401  0.5471
 2325TIP3    H128466   4.090   6.266  15.917  0.2116 -0.2810 -1.5499
 2325TIP3    H228467   3.986   6.156  15.923 -0.2873  0.2395 -0.5967
 2326TIP3   OH228468   4.185   4.377   0.202  0.8278 -0.2008 -0.0349
 2326TIP3    H128469   4.160   4.367   0.110 -1.5055  0.2862  0.5046
 2326TIP3    H228470   4.244   4.303   0.218  1.4478 -0.1700 -1.9645
 2327TIP3   OH228471   5.315   6.252   3.935  0.0229  0.2462  0.4602
 2327TIP3    H128472   5.394   6.202   3.916 -0.9672 -2.7388  3.6084
 2327TIP3    H228473   5.292   6.294   3.852  4.3721  0.4973 -0.7099
 2328TIP3   OH228474   2.061   0.498   6.324 -0.4108  0.2740 -0.2455
 2328TIP3    H128475   2.135   0.439   6.342 -0.3732  0.7649  1.2994
 2328TIP3    H228476   2.097   0.586   6.341 -1.2129  0.5464  0.0352
 2329TIP3   OH228477   0.175   1.424  16.975  0.5948  0.4071 -0.2105
 2329TIP3    H128478   0.111   1.354  16.965  0.5807  0.3266  0.3862
 2329TIP3    H228479   0.124   1.498  17.009  0.4538  0.9758 -1.6372
 2330TIP3   OH228480   5.294   6.136   1.219  0.2694  0.5333  0.3218
 2330TIP3    H128481   5.278   6.052   1.178  1.3078 -0.6223  2.1959
 2330TIP3    H228482   5.285   6.200   1.149  0.2777 -1.2160 -1.2931
 2331TIP3   OH228483   2.849   6.455  14.339  0.3776 -0.2145  0.2693
 2331TIP3    H128484   2.755   6.446  14.323  0.2499  2.2683 -0.5484
 2331TIP3    H228485   2.855   6.509  14.417  1.1164  0.9455 -0.5715
 2332TIP3   OH228486   4.361   0.502  14.762 -0.3278 -0.2594 -0.4982
 2332TIP3    H128487   4.281   0.542  14.726 -1.2553 -1.7132 -0.0879
 2332TIP3    H228488   4.356   0.410  14.734  0.8738 -0.5028  0.1002
 2333TIP3   OH228489   5.650   5.434  12.666  0.6202 -0.0630 -0.0198
 2333TIP3    H128490   5.661   5.474  12.580 -0.8499  0.9079  0.2267
 2333TIP3    H228491   5.718   5.473  12.720 -0.1576  1.3857 -0.0487
 2334TIP3   OH228492   4.488   4.225  14.384 -0.0318 -0.7244 -0.1747
 2334TIP3    H128493   4.509   4.300  14.329  0.3313  0.0601  1.0141
 2334TIP3    H228494   4.483   4.261  14.473  1.0183 -2.2403  0.5245
 2335TIP3   OH228495   6.188   2.737   2.645  0.9370  0.4260 -0.0915
 2335TIP3    H128496   6.141   2.820   2.638  1.4582  0.8689  1.4518
 2335TIP3    H228497   6.196   2.722   2.739 -1.9332 -2.9825 -0.3269
 2336TIP3   OH228498   1.232   3.923   4.274 -0.4397  0.3387  0.3877
 2336TIP3    H128499   1.302   3.870   4.312  0.2165  0.8665 -0.0692
 2336TIP3    H228500   1.240   3.910   4.180 -0.7252  0.6845  0.3133
 2337TIP3   OH228501   1.724   3.832  14.281 -0.2629 -0.0700  0.1550
 2337TIP3    H128502   1.722   3.897  14.351  0.3454  1.3656 -1.1157
 2337TIP3    H228503   1.794   3.772  14.305  0.1846  0.6238  0.6091
 2338TIP3   OH228504   0.755   2.813   4.463 -0.8958  0.3190  0.4712
 2338TIP3    H128505   0.663   2.839   4.461 -0.8569  0.4098 -0.6870
 2338TIP3    H228506   0.766   2.758   4.385 -0.6381 -2.0615  2.1319
 2339TIP3   OH228507   1.462   5.870   0.267  0.3161 -0.3312 -0.0583
 2339TIP3    H128508   1.419   5.943   0.311  1.6918 -0.9752  2.4463
 2339TIP3    H228509   1.392   5.806   0.252 -0.5010  0.6365 -0.3923
 2340TIP3   OH228510   0.400   5.148  17.272  0.0778 -0.2750  0.2177
 2340TIP3    H128511   0.495   5.147  17.260  0.3289 -2.1819  2.0006
 2340TIP3    H228512   0.379   5.059  17.303 -2.2448  0.2097  0.1145
 2341TIP3   OH228513   2.558   2.093   0.893  0.2217  0.0333 -0.5314
 2341TIP3    H128514   2.519   2.006   0.890 -0.8310  0.4740  0.1443
 2341TIP3    H228515   2.539   2.130   0.807  3.6023 -1.6278 -2.0717
 2342TIP3   OH228516   6.447   1.937  16.948 -0.2420  0.6387 -0.0175
 2342TIP3    H128517   6.480   1.945  16.859  1.2717  0.7467  0.5423
 2342TIP3    H228518   6.382   2.008  16.956 -0.3830  0.6237 -1.0220
 2343TIP3   OH228519   2.394   3.808   1.653  0.3050 -0.0544  0.5602
 2343TIP3    H128520   2.447   3.888   1.657  0.3746 -0.0947  0.4710
 2343TIP3    H228521   2.440   3.752   1.589 -1.8206  1.3912 -2.3756
 2344TIP3   OH228522   3.856   2.961   2.796  0.6096  0.1008  0.5543
 2344TIP3    H128523   3.770   2.984   2.759  0.5135 -1.3501 -0.1648
 2344TIP3    H228524   3.840   2.949   2.889  0.7180  3.1590  1.0247
 2345TIP3   OH228525   5.696   4.374  11.823 -0.2532 -0.0068  0.5278
 2345TIP3    H128526   5.750   4.418  11.758  0.4700 -0.4352  0.8326
 2345TIP3    H228527   5.625   4.436  11.842  0.7496  1.0172  0.9486
 2346TIP3   OH228528   4.549   5.641   5.049  0.1894 -0.4553  0.1141
 2346TIP3    H128529   4.600   5.632   5.129  2.4922 -1.4829 -1.4292
 2346TIP3    H228530   4.611   5.676   4.985 -1.0625 -1.5908 -1.7693
 2347TIP3   OH228531   2.294   0.847   2.868  0.1318  0.5686  0.1619
 2347TIP3    H128532   2.262   0.930   2.833 -1.0238  0.1730  0.2539
 2347TIP3    H228533   2.215   0.798   2.890  0.5822 -2.3221 -3.9244
 2348TIP3   OH228534   6.669   3.089   2.903 -0.4358 -0.4140  0.0473
 2348TIP3    H128535   6.702   3.059   2.987 -0.3376 -1.0495 -0.2177
 2348TIP3    H228536   6.738   3.066   2.840 -1.4451 -1.8862 -0.5346
 2349TIP3   OH228537   3.131   5.623  16.018  0.0037 -0.2404  0.0664
 2349TIP3    H128538   3.208   5.574  16.047  0.9074  0.2937 -1.3736
 2349TIP3    H228539   3.069   5.556  15.990 -0.0434 -0.6701  1.1721
 2350TIP3   OH228540   0.572   3.502   6.623  0.4128  0.0999 -0.0956
 2350TIP3    H128541   0.546   3.415   6.591 -0.6602  0.4572 -0.2188
 2350TIP3    H228542   0.550   3.500   6.716 -1.7796  1.0190 -0.5564
 2351TIP3   OH228543   5.874   4.842   3.320  0.5970 -0.5429 -0.3869
 2351TIP3    H128544   5.918   4.927   3.316  1.5145 -0.8473  2.2358
 2351TIP3    H228545   5.906   4.794   3.244  0.0401  1.4354 -1.9238
 2352TIP3   OH228546   1.865   4.400   0.421  0.5149 -0.0314 -0.2679
 2352TIP3    H128547   1.915   4.395   0.340  0.2849 -0.2806 -0.3962
 2352TIP3    H228548   1.917   4.349   0.484 -0.0326 -1.0741 -0.6430
 2353TIP3   OH228549   0.329   5.111  13.323 -0.5277 -0.1373 -0.8866
 2353TIP3    H128550   0.383   5.071  13.254  0.0427  0.3053 -0.6965
 2353TIP3    H228551   0.259   5.047  13.337  0.5375 -1.2195 -0.3810
 2354TIP3   OH228552   0.328   6.182   4.094  0.4539 -0.0189 -0.0379
 2354TIP3    H128553   0.372   6.228   4.022  2.5730 -2.0011 -0.0650
 2354TIP3    H228554   0.306   6.097   4.057 -0.6183 -0.1813  0.9503
 2355TIP3   OH228555   2.543   3.758  13.356  0.5117  0.0526  0.0000
 2355TIP3    H128556   2.549   3.839  13.407  2.2972  0.8386 -1.4172
 2355TIP3    H228557   2.456   3.763  13.316  0.5599  1.2401  0.0009
 2356TIP3   OH228558   2.280   0.061   3.344 -0.8355 -0.6343 -0.5258
 2356TIP3    H128559   2.237   0.097   3.266 -2.1257 -0.5392  0.2305
 2356TIP3    H228560   2.223   0.085   3.417  1.1023  0.5349  0.6507
 2357TIP3   OH228561   2.104   1.798   0.823 -0.6467  0.0460  0.1087
 2357TIP3    H128562   2.124   1.769   0.734  1.8940 -0.2366  0.7383
 2357TIP3    H228563   2.136   1.728   0.880 -0.5342  1.0580  1.3329
 2358TIP3   OH228564   4.564   6.375  15.058  0.7279 -0.1607  0.2200
 2358TIP3    H128565   4.639   6.325  15.091  1.1524  0.3148 -0.0233
 2358TIP3    H228566   4.598   6.463  15.045  0.2550 -0.0676 -0.3899
 2359TIP3   OH228567   5.776   1.200  13.252 -0.0742 -0.2582  0.1989
 2359TIP3    H128568   5.779   1.110  13.219 -1.5090 -0.3225  0.2016
 2359TIP3    H228569   5.813   1.195  13.340 -0.7727 -0.9911  0.4638
 2360TIP3   OH228570   3.422   0.468  15.507  0.6440  0.0101 -0.2135
 2360TIP3    H128571   3.495   0.410  15.486  0.4789 -0.0913 -0.5157
 2360TIP3    H228572   3.350   0.408  15.526  0.9696  0.0860  1.3067
 2361TIP3   OH228573   3.759   6.109   1.939 -0.1691 -0.4256 -0.6106
 2361TIP3    H128574   3.851   6.114   1.916 -0.4893  0.4276 -1.7167
 2361TIP3    H228575   3.712   6.112   1.856 -1.2405  0.4847  0.0051
 2362TIP3   OH228576   1.443   4.382  12.176 -0.1713 -0.4596  0.4751
 2362TIP3    H128577   1.388   4.460  12.178 -1.1941 -1.1404 -0.8798
 2362TIP3    H228578   1.492   4.386  12.258 -0.1137  1.6658  0.3597
 2363TIP3   OH228579   0.853   6.092  12.130  0.5243 -0.0067 -0.6008
 2363TIP3    H128580   0.838   6.027  12.061 -1.9853  0.4021 -0.4965
 2363TIP3    H228581   0.948   6.095  12.140  0.8262 -1.4653 -2.7012
 2364TIP3   OH228582   0.623   5.070  16.488 -0.1157 -0.2532 -0.0838
 2364TIP3    H128583   0.535   5.083  16.523 -1.0614 -0.2390 -2.4015
 2364TIP3    H228584   0.655   5.159  16.473  1.1044 -0.1901  2.6218
 2365TIP3   OH228585   5.054   0.350   0.615  0.5739 -0.3222 -0.0858
 2365TIP3    H128586   5.016   0.428   0.573  0.6977 -0.5282 -0.5832
 2365TIP3    H228587   5.148   0.368   0.617  0.3964  0.5429  1.8755
 2366TIP3   OH228588   4.708   2.806  14.023  0.7153  0.5311  0.2952
 2366TIP3    H128589   4.632   2.752  14.040  2.1085 -1.8531 -0.7876
 2366TIP3    H228590   4.739   2.833  14.109 -0.2287 -0.0426  0.8168
 2367TIP3   OH228591   2.645   5.542   0.627  0.3645  0.7974 -0.4486
 2367TIP3    H128592   2.726   5.566   0.582 -0.3484  1.7993 -1.2436
 2367TIP3    H228593   2.653   5.448   0.645  0.8047  0.4585 -2.3731
 2368TIP3   OH228594   2.629   2.832   3.739 -0.0675 -0.1944  0.1285
 2368TIP3    H128595   2.624   2.737   3.745 -2.3598 -0.1063  0.0547
 2368TIP3    H228596   2.692   2.857   3.807 -0.5812 -1.6549  1.1697
 2369TIP3   OH228597   5.256   2.485  16.368 -0.8426 -0.1857 -0.5129
 2369TIP3    H128598   5.268   2.543  16.293 -3.2177  0.3809 -0.4938
 2369TIP3    H228599   5.295   2.534  16.441  0.0397 -0.0355 -1.0729
 2370TIP3   OH228600   4.623   5.412   3.282  0.2459  0.6012  0.0149
 2370TIP3    H128601   4.621   5.350   3.209 -1.3384  0.3505  0.2476
 2370TIP3    H228602   4.611   5.497   3.241 -2.7726  0.2845  0.1223
 2371TIP3   OH228603   2.836   4.122   2.058 -0.6798 -0.1925 -0.5331
 2371TIP3    H128604   2.800   4.088   2.140 -1.0429 -0.1644 -0.6804
 2371TIP3    H228605   2.839   4.047   1.999  0.4858 -0.4258 -0.1903
 2372TIP3   OH228606   1.794   2.863   6.020 -0.0204 -0.1428 -0.1503
 2372TIP3    H128607   1.810   2.786   6.075  0.3854 -0.1696 -0.3072
 2372TIP3    H228608   1.705   2.850   5.987 -0.5499  0.2426  1.0942
 2373TIP3   OH228609   1.342   3.669   0.191 -0.6203  0.4370  0.0862
 2373TIP3    H128610   1.373   3.705   0.107 -3.2511  1.1500 -0.6321
 2373TIP3    H228611   1.277   3.732   0.221 -0.6630 -0.5058  2.0444
 2374TIP3   OH228612   6.240   3.970  15.823 -0.7697  0.6076  0.5726
 2374TIP3    H128613   6.156   4.000  15.858 -1.7545 -0.7482 -0.5731
 2374TIP3    H228614   6.272   4.044  15.772 -1.8137  0.7299  0.0833
 2375TIP3   OH228615   5.481   3.549  13.210 -0.0426 -0.1745  0.0743
 2375TIP3    H128616   5.481   3.529  13.116 -0.9492 -0.9286  0.2230
 2375TIP3    H228617   5.554   3.497  13.245  0.7422  0.6509 -0.3151
 2376TIP3   OH228618   4.502   4.666   5.076 -0.0064  0.4346  0.4281
 2376TIP3    H128619   4.551   4.687   4.997  0.7925 -2.9713 -0.0629
 2376TIP3    H228620   4.522   4.737   5.137  2.0093  1.3581 -1.2724
 2377TIP3   OH228621   1.032   4.474  13.687  0.5633  0.3958 -1.0208
 2377TIP3    H128622   0.996   4.514  13.766 -0.2254  0.2556 -1.2994
 2377TIP3    H228623   1.108   4.424  13.718  0.1493  0.1821 -0.3178
 2378TIP3   OH228624   3.577   2.861  16.608  0.0359  0.1293  0.1310
 2378TIP3    H128625   3.645   2.801  16.640 -1.3256 -0.1698  2.5831
 2378TIP3    H228626   3.616   2.948  16.616  0.3297 -0.0793  0.9723
 2379TIP3   OH228627   2.617   6.278   1.794 -0.0440  0.3139  0.1623
 2379TIP3    H128628   2.561   6.249   1.722  0.1968  0.5799 -0.1353
 2379TIP3    H228629   2.692   6.319   1.751  0.5511 -0.3577  0.5596
 2380TIP3   OH228630   1.857   6.047   3.311  0.3187  0.1203  0.2192
 2380TIP3    H128631   1.871   5.966   3.360 -1.6984 -1.7182 -2.1255
 2380TIP3    H228632   1.787   6.092   3.359 -0.2145 -0.6799  0.1979
 2381TIP3   OH228633   1.051   4.670   4.956 -0.4546 -0.4314  0.0073
 2381TIP3    H128634   1.009   4.665   5.042 -1.1713  1.1159 -0.2523
 2381TIP3    H228635   1.029   4.586   4.915  0.5138 -1.5087  1.5924
 2382TIP3   OH228636   6.171   3.938   4.616  0.4143 -0.3725  0.2151
 2382TIP3    H128637   6.121   3.893   4.548  1.6166 -0.2132 -0.7995
 2382TIP3    H228638   6.108   3.952   4.687 -1.1539  0.4745 -1.3062
 2383TIP3   OH228639   4.179   4.129  12.991 -0.4741  0.6496 -0.1542
 2383TIP3    H128640   4.243   4.195  12.965 -0.6519  0.8109 -0.1780
 2383TIP3    H228641   4.135   4.166  13.067  0.9943 -0.3984  1.2530
 2384TIP3   OH228642   1.666   1.877   3.284  0.2305  0.2432 -0.7400
 2384TIP3    H128643   1.704   1.800   3.242  2.6778  0.8744  0.2430
 2384TIP3    H228644   1.597   1.843   3.340 -0.0269 -1.0240 -1.8126
 2385TIP3   OH228645   1.225   2.306   5.151 -0.0735 -0.0448 -0.8031
 2385TIP3    H128646   1.311   2.266   5.158 -0.7734 -1.2024  1.6641
 2385TIP3    H228647   1.170   2.238   5.111 -0.3081 -0.0311 -0.5017
 2386TIP3   OH228648   2.374   5.293  12.770  0.1595  0.0145 -0.4611
 2386TIP3    H128649   2.441   5.225  12.765  0.1753  0.0056 -0.1634
 2386TIP3    H228650   2.326   5.273  12.850  0.8501  0.9766  0.2139
 2387TIP3   OH228651   4.371   1.140  13.529  0.7414  0.3747  0.0078
 2387TIP3    H128652   4.393   1.070  13.590 -0.1860  0.4022  0.3834
 2387TIP3    H228653   4.389   1.103  13.442  0.6950 -0.1608  0.2243
 2388TIP3   OH228654   3.510   4.947  11.653  0.0389  0.0488 -0.1380
 2388TIP3    H128655   3.427   4.920  11.693  0.1555 -0.7864 -0.4496
 2388TIP3    H228656   3.520   5.039  11.679 -0.0926 -0.3557  1.4204
 2389TIP3   OH228657   1.111   0.182  15.013 -0.3649  0.2994  0.1712
 2389TIP3    H128658   1.178   0.135  15.063  0.8479  1.1832 -0.5851
 2389TIP3    H228659   1.118   0.273  15.044 -1.7197  0.2602  0.6125
 2390TIP3   OH228660   5.781   6.411  16.356  0.1964 -0.2488  0.4242
 2390TIP3    H128661   5.761   6.460  16.436 -0.1193 -0.6243  0.5750
 2390TIP3    H228662   5.808   6.325  16.387  1.8492  0.1638  0.2273
 2391TIP3   OH228663   3.406   1.023  16.240 -0.2417  0.4007  0.9271
 2391TIP3    H128664   3.314   1.039  16.261 -0.2816  0.9931  0.2954
 2391TIP3    H228665   3.424   0.936  16.276 -0.7538  0.7287  1.9847
 2392TIP3   OH228666   5.570   1.588   2.621 -0.3113  0.0076 -0.1722
 2392TIP3    H128667   5.553   1.520   2.556  2.5939 -0.1812 -0.8162
 2392TIP3    H228668   5.581   1.541   2.703 -1.0063 -0.0441 -0.1100
 2393TIP3   OH228669   5.860   6.341   3.032  0.7016  0.5183 -0.3565
 2393TIP3    H128670   5.801   6.329   2.958  0.5846 -3.4814  0.2631
 2393TIP3    H228671   5.947   6.345   2.994  0.5189 -0.0517 -0.8410
 2394TIP3   OH228672   3.277   4.987   6.644  0.2321 -0.4660 -0.6587
 2394TIP3    H128673   3.329   5.048   6.696 -2.6060  1.3997  0.1164
 2394TIP3    H228674   3.283   5.022   6.554 -1.4462  1.0793 -0.2080
 2395TIP3   OH228675   3.908   0.297  13.286 -0.3101  0.1040 -0.4339
 2395TIP3    H128676   3.903   0.392  13.293  0.2587  0.1175 -0.2015
 2395TIP3    H228677   3.989   0.281  13.238 -0.2547 -0.2784 -0.2101
 2396TIP3   OH228678   3.779   4.247  14.815  0.7482  0.0080 -0.3814
 2396TIP3    H128679   3.721   4.320  14.836  1.1271  0.0667  0.4409
 2396TIP3    H228680   3.866   4.285  14.812  0.9404 -0.4058 -0.0067
 2397TIP3   OH228681   1.900   4.416  12.201  0.1761  0.1485  0.0693
 2397TIP3    H128682   1.907   4.511  12.190 -2.3408  0.6006  1.9550
 2397TIP3    H228683   1.980   4.381  12.161 -0.1178  2.8467 -3.0409
 2398TIP3   OH228684   5.967   6.369   4.650 -0.0704  0.0658 -0.1312
 2398TIP3    H128685   6.046   6.314   4.652  0.0320 -0.0602 -4.3691
 2398TIP3    H228686   6.000   6.459   4.656  0.3682 -0.0196 -1.1602
 2399TIP3   OH228687   5.758   5.582   1.132  0.2734  0.6750  0.4552
 2399TIP3    H128688   5.730   5.638   1.204  0.2290  1.8693 -0.4778
 2399TIP3    H228689   5.677   5.560   1.085  0.4550  0.9903 -0.0090
 2400TIP3   OH228690   0.934   1.296  14.857  0.0915  0.1327 -0.3737
 2400TIP3    H128691   0.867   1.236  14.824  1.4590 -1.2201 -0.7551
 2400TIP3    H228692   0.945   1.361  14.787 -1.0086  0.5425 -0.1846
 2401TIP3   OH228693   6.605   4.886  13.664 -0.0874  0.0463 -0.0202
 2401TIP3    H128694   6.584   4.959  13.605 -1.3665 -0.2399  0.0776
 2401TIP3    H228695   6.613   4.810  13.606 -1.3929 -0.2454  0.1607
 2402TIP3   OH228696   4.709   6.324  17.209  0.1591 -0.5965  0.7629
 2402TIP3    H128697   4.674   6.404  17.246  0.8380 -0.1679  0.4808
 2402TIP3    H228698   4.771   6.291  17.275  0.9766 -0.1093  0.2523
 2403TIP3   OH228699   4.700   6.537   1.332 -0.0005  0.1904 -0.2662
 2403TIP3    H128700   4.758   6.500   1.265  0.8962 -3.2321  2.2399
 2403TIP3    H228701   4.758   6.567   1.401 -1.0493  0.6674  0.4213
 2404TIP3   OH228702   6.080   0.035   0.144  0.6145 -0.2947 -0.2455
 2404TIP3    H128703   6.009  -0.026   0.124 -0.3300  1.1026 -1.2487
 2404TIP3    H228704   6.077   0.100   0.074  2.0927  0.4860  0.3791
 2405TIP3   OH228705   5.521   2.848   3.755 -0.0534  0.0830  0.1398
 2405TIP3    H128706   5.473   2.788   3.698  0.9599 -0.2746 -0.3448
 2405TIP3    H228707   5.533   2.799   3.836  0.9834 -0.4663 -0.3392
 2406TIP3   OH228708   0.992   1.383   1.582  0.2344  0.1597  0.0209
 2406TIP3    H128709   1.082   1.353   1.597  0.6964  1.2223 -0.6278
 2406TIP3    H228710   0.983   1.387   1.487 -0.8463 -0.9528  0.0641
 2407TIP3   OH228711   3.156   4.382  12.922 -0.2568  0.3956  0.2308
 2407TIP3    H128712   3.233   4.438  12.927 -0.4372  0.6328  0.3672
 2407TIP3    H228713   3.089   4.437  12.881 -0.0433 -0.1482 -0.8591
 2408TIP3   OH228714   3.908   5.755   0.254 -0.3910 -0.3085  0.3804
 2408TIP3    H128715   3.820   5.787   0.271 -1.1449 -2.6646  1.0685
 2408TIP3    H228716   3.896   5.678   0.199  1.1441 -1.4651  1.6132
 2409TIP3   OH228717   2.490   0.935   5.004 -0.0095 -0.2500 -0.0504
 2409TIP3    H128718   2.442   0.935   5.087  1.3822 -0.1797  0.7852
 2409TIP3    H228719   2.553   0.863   5.013  0.3353 -0.0685 -0.9381
 2410TIP3   OH228720   0.873   4.727   6.005  0.3156 -0.3984  0.0977
 2410TIP3    H128721   0.811   4.753   5.937  0.7637  1.2564  0.2970
 2410TIP3    H228722   0.859   4.789   6.076  1.3778 -0.7439  0.6265
 2411TIP3   OH228723   6.482   5.132  11.453 -0.2111  0.1392 -0.3124
 2411TIP3    H128724   6.496   5.054  11.507  0.6113  0.6885  0.2794
 2411TIP3    H228725   6.392   5.159  11.472 -0.3885 -0.4733 -0.2747
 2412TIP3   OH228726   3.362   1.341  11.339  0.2080  0.3530 -0.5703
 2412TIP3    H128727   3.310   1.348  11.259  1.3346 -0.8077 -1.4300
 2412TIP3    H228728   3.449   1.373  11.313  0.8772 -1.0930 -0.1075
 2413TIP3   OH228729   2.073   5.816  13.027 -0.0940  0.0790 -0.3177
 2413TIP3    H128730   2.044   5.901  12.997 -1.0719 -0.1877 -0.1540
 2413TIP3    H228731   2.079   5.763  12.948  0.7200  0.3624 -0.4436
 2414TIP3   OH228732   1.756   0.896   2.908  0.1290 -0.4796 -0.1733
 2414TIP3    H128733   1.780   0.952   2.834 -2.8738  0.5264 -0.4436
 2414TIP3    H228734   1.761   0.954   2.985 -0.3767 -0.5606 -0.0818
 2415TIP3   OH228735   1.165   0.827  12.623  0.0244  0.3143 -0.7450
 2415TIP3    H128736   1.117   0.886  12.681  1.2589  1.7832 -1.1818
 2415TIP3    H228737   1.238   0.796  12.677  0.0321  0.0912 -0.8826
 2416TIP3   OH228738   2.984   3.745   4.488  0.1680 -0.0499 -0.4403
 2416TIP3    H128739   3.051   3.766   4.424 -0.9873 -1.0605 -2.0027
 2416TIP3    H228740   3.032   3.715   4.565  1.4898 -0.7511 -1.5378
 2417TIP3   OH228741   2.091   1.253   0.378 -0.0591 -0.2365 -0.3014
 2417TIP3    H128742   2.023   1.199   0.417  0.3241 -1.0080 -0.7041
 2417TIP3    H228743   2.043   1.314   0.322 -0.5165  0.0831  0.4199
 2418TIP3   OH228744   6.294   4.597   1.722 -0.1309 -0.4932  0.2438
 2418TIP3    H128745   6.228   4.593   1.653  0.2072 -2.8493  0.0354
 2418TIP3    H228746   6.348   4.673   1.700 -1.4744  0.1938 -0.7375
 2419TIP3   OH228747   2.119   0.430   4.464  0.1703 -0.1716  0.2654
 2419TIP3    H128748   2.139   0.507   4.410  1.3090  0.4338  1.5084
 2419TIP3    H228749   2.129   0.462   4.554 -0.7577 -1.4118  0.8077
 2420TIP3   OH228750   2.977   6.758  14.071  0.4636  0.6276 -0.2627
 2420TIP3    H128751   2.982   6.740  14.165  1.2144  1.6489 -0.0910
 2420TIP3    H228752   2.883   6.759  14.051  0.3501 -3.5606 -0.3589
 2421TIP3   OH228753   2.314   3.869   1.913 -0.1583 -0.0010 -0.0769
 2421TIP3    H128754   2.221   3.873   1.933 -0.1448  2.1109 -0.4021
 2421TIP3    H228755   2.318   3.855   1.819 -0.1400  0.1023 -0.0912
 2422TIP3   OH228756   3.657   1.702  16.529 -0.5120  0.0079  0.1545
 2422TIP3    H128757   3.741   1.748  16.523 -1.9410  2.6325 -0.7664
 2422TIP3    H228758   3.622   1.728  16.615 -0.1378 -1.5396  0.7844
 2423TIP3   OH228759   4.340   1.721  13.933  0.2494  0.4810  0.1353
 2423TIP3    H128760   4.382   1.657  13.875  1.3494  1.9309 -0.7110
 2423TIP3    H228761   4.408   1.786  13.950 -0.3496  0.5647  2.3356
 2424TIP3   OH228762   4.757   3.458   0.786  0.5040  0.0800 -0.2645
 2424TIP3    H128763   4.756   3.496   0.699  0.6924  0.4441 -0.1063
 2424TIP3    H228764   4.827   3.393   0.783  0.2283 -0.2100 -0.5106
 2425TIP3   OH228765   0.613   5.477  17.157  0.2616  0.0945  0.3728
 2425TIP3    H128766   0.689   5.481  17.215  0.6251 -1.5030  0.0375
 2425TIP3    H228767   0.543   5.442  17.211  0.5981 -1.3834 -0.1234
 2426TIP3   OH228768   2.888   1.363  16.548 -0.1579 -0.9835  0.9591
 2426TIP3    H128769   2.817   1.421  16.575  0.8006  0.5457  0.2706
 2426TIP3    H228770   2.852   1.314  16.474 -0.5361 -0.2665  0.6583
 2427TIP3   OH228771   2.781   1.810  17.100 -0.2465  1.1877  0.8800
 2427TIP3    H128772   2.725   1.886  17.117  0.8763  2.1950  0.2244
 2427TIP3    H228773   2.814   1.825  17.011  1.1076  0.6506  1.2835
 2428TIP3   OH228774   1.928   6.462   5.127 -0.3387  0.1642  0.0529
 2428TIP3    H128775   1.843   6.497   5.098 -1.1251 -2.4972 -0.9418
 2428TIP3    H228776   1.908   6.413   5.206  0.4207  0.1824  0.2566
 2429TIP3   OH228777   5.735   1.803  14.119 -0.0738 -0.4087 -0.3259
 2429TIP3    H128778   5.764   1.875  14.063  0.6244  0.5410  1.2474
 2429TIP3    H228779   5.654   1.773  14.078 -0.7329  1.7090 -0.6397
 2430TIP3   OH228780   4.012   4.036  14.717 -0.2091  0.5030 -0.5090
 2430TIP3    H128781   4.097   4.080  14.723 -1.2577  2.6080 -0.5191
 2430TIP3    H228782   4.007   3.984  14.797  1.3679 -0.1533 -0.8176
 2431TIP3   OH228783   5.351   5.257  17.192 -0.1476  0.3453  0.5260
 2431TIP3    H128784   5.398   5.339  17.179  1.5521 -0.4616  1.5056
 2431TIP3    H228785   5.414   5.199  17.234 -2.0496 -0.7048  2.0172
 2432TIP3   OH228786   1.971   3.916   2.414  0.4041 -0.2425  0.0978
 2432TIP3    H128787   1.892   3.936   2.465  0.3990 -0.5777  0.2211
 2432TIP3    H228788   2.015   3.847   2.464  1.6533  1.1090  0.9140
 2433TIP3   OH228789   4.626   5.197  16.777 -0.3124  0.6150  0.5416
 2433TIP3    H128790   4.649   5.201  16.684  0.2072  2.3022  0.7130
 2433TIP3    H228791   4.711   5.191  16.822 -0.4963  0.9608  0.9387
 2434TIP3   OH228792   3.922   1.727   4.619  0.3240  0.6080  0.3037
 2434TIP3    H128793   3.887   1.685   4.698  0.3391 -0.9936 -0.5209
 2434TIP3    H228794   3.956   1.655   4.566  0.2833  1.6603 -1.1937
 2435TIP3   OH228795   1.158   4.235  12.298 -0.0203  0.5039 -0.3514
 2435TIP3    H128796   1.212   4.312  12.277  0.9359 -0.4849 -1.5749
 2435TIP3    H228797   1.222   4.166  12.317 -0.8760  0.0083  0.7910
 2436TIP3   OH228798   5.062   4.404   0.216  0.7254 -0.3419  0.0191
 2436TIP3    H128799   5.096   4.429   0.303 -0.7092  2.9568 -0.3210
 2436TIP3    H228800   5.129   4.435   0.155  1.3795 -2.0049 -0.1302
 2437TIP3   OH228801   4.624   5.630  15.535 -0.2842  0.4182 -0.0018
 2437TIP3    H128802   4.627   5.714  15.490 -2.0063  0.5275  0.0656
 2437TIP3    H228803   4.672   5.571  15.477 -4.4423  0.0048 -3.2896
 2438TIP3   OH228804   3.077   0.547  12.205 -0.0498 -0.1353 -0.7247
 2438TIP3    H128805   3.009   0.606  12.175 -2.1460 -2.1774 -0.1256
 2438TIP3    H228806   3.097   0.576  12.294  0.0254  0.5687 -0.9653
 2439TIP3   OH228807   2.250   5.233  15.650 -0.3120 -0.1483 -0.1449
 2439TIP3    H128808   2.292   5.197  15.572 -1.1641 -0.9441 -0.2379
 2439TIP3    H228809   2.231   5.324  15.627  0.8358  0.0607 -0.3024
 2440TIP3   OH228810   3.185   2.696   0.006  0.5330 -0.4737  0.1250
 2440TIP3    H128811   3.133   2.626   0.045  0.2688 -0.1358  0.3838
 2440TIP3    H228812   3.273   2.661   0.000  0.1757 -1.2456 -0.8004
 2441TIP3   OH228813   2.003   3.941   1.960 -0.4144 -0.1700  0.7331
 2441TIP3    H128814   1.939   3.989   1.907  1.4032  0.9339 -0.4747
 2441TIP3    H228815   2.003   3.853   1.923 -0.8258 -0.0230  0.3841
 2442TIP3   OH228816   5.180   4.518   0.548  0.3855 -0.0770 -0.0142
 2442TIP3    H128817   5.236   4.458   0.596 -0.3938 -0.3615  0.5419
 2442TIP3    H228818   5.094   4.508   0.588 -0.4102 -0.7410 -1.8517
 2443TIP3   OH228819   4.315   5.240   2.587  0.1711 -0.3956 -0.1953
 2443TIP3    H128820   4.398   5.286   2.590  0.6344 -1.2084 -0.4522
 2443TIP3    H228821   4.258   5.287   2.648  0.3472  1.0933 -1.1699
 2444TIP3   OH228822   5.060   3.386   5.841 -0.1423 -0.1202 -0.3243
 2444TIP3    H128823   4.991   3.323   5.821 -0.4433  0.6899 -1.9084
 2444TIP3    H228824   5.092   3.360   5.928 -3.1530  0.1293  0.9194
 2445TIP3   OH228825   2.161   1.471   5.713  0.0600  0.2742 -0.5140
 2445TIP3    H128826   2.163   1.410   5.639 -2.6996  1.3349 -1.5014
 2445TIP3    H228827   2.085   1.526   5.698 -1.3446 -0.2986  3.7816
 2446TIP3   OH228828   4.252   2.897  12.862 -0.1777  0.0433  0.0034
 2446TIP3    H128829   4.318   2.959  12.831 -1.7983  1.6554 -0.3358
 2446TIP3    H228830   4.254   2.905  12.957  0.5152 -0.3424  0.0225
 2447TIP3   OH228831   6.338   3.682  10.872  0.4985 -0.0017 -0.1845
 2447TIP3    H128832   6.428   3.671  10.841  0.7222 -1.9470  1.0199
 2447TIP3    H228833   6.305   3.592  10.880 -1.2789  0.6700  0.1455
 2448TIP3   OH228834   2.736   4.574  15.720 -0.4531 -0.0931  0.2371
 2448TIP3    H128835   2.699   4.658  15.748  0.2387  0.5165 -0.6629
 2448TIP3    H228836   2.823   4.596  15.686  0.2594 -1.3537  1.1971
 2449TIP3   OH228837   3.475   2.922  14.208 -0.2569 -0.4454 -0.4715
 2449TIP3    H128838   3.400   2.867  14.232  0.3872 -2.0554 -2.0257
 2449TIP3    H228839   3.502   2.889  14.123  1.9302  0.4358 -0.1365
 2450TIP3   OH228840   4.282   4.560   5.198 -0.2149  0.3436 -0.3006
 2450TIP3    H128841   4.288   4.465   5.202  0.7969  0.4774  2.1360
 2450TIP3    H228842   4.370   4.588   5.175  0.9681  0.8720  4.3208
 2451TIP3   OH228843   1.614   6.071   2.963 -0.2744  0.3092 -0.3382
 2451TIP3    H128844   1.689   6.127   2.947  0.3503  0.1017  1.6401
 2451TIP3    H228845   1.640   5.985   2.931  0.0338  0.4269 -0.4024
 2452TIP3   OH228846   6.554   5.860   5.440  0.4066 -0.7112  0.3849
 2452TIP3    H128847   6.498   5.823   5.507 -1.5663 -0.6830 -1.1973
 2452TIP3    H228848   6.498   5.866   5.362  2.8298 -1.4219 -1.4742
 2453TIP3   OH228849   5.782   0.172  11.482  0.0764  0.3805  0.2175
 2453TIP3    H128850   5.833   0.220  11.548 -0.9626  1.5963  0.1430
 2453TIP3    H228851   5.841   0.167  11.406 -0.1418  2.3884 -0.1084
 2454TIP3   OH228852   3.369   6.272   0.823 -0.0632  0.0558  0.2780
 2454TIP3    H128853   3.348   6.362   0.849  0.0412  0.0253  0.4717
 2454TIP3    H228854   3.465   6.267   0.832 -0.1898 -0.4358  1.4295
 2455TIP3   OH228855   1.637   0.283   2.022  0.4308  0.1159 -0.0810
 2455TIP3    H128856   1.565   0.311   2.078 -0.2176 -1.9802  0.1786
 2455TIP3    H228857   1.675   0.208   2.068  0.3262 -1.2064 -2.0983
 2456TIP3   OH228858   0.948   4.560   3.577  0.0108 -0.2020  0.1413
 2456TIP3    H128859   0.926   4.470   3.550  0.3682 -0.5588  1.0395
 2456TIP3    H228860   0.906   4.571   3.662 -0.2366  0.5707 -0.0769
 2457TIP3   OH228861   0.958   0.518  16.498 -0.4364  0.2784  0.1498
 2457TIP3    H128862   0.951   0.484  16.587 -1.5625  0.0019 -0.0400
 2457TIP3    H228863   0.885   0.580  16.490 -1.9130 -1.6068 -1.4125
 2458TIP3   OH228864   6.545   1.016   3.103 -0.1749 -0.3448  0.3565
 2458TIP3    H128865   6.560   1.086   3.040  0.1966 -0.3902  0.3929
 2458TIP3    H228866   6.579   1.050   3.186  1.2819 -1.0850  0.0921
 2459TIP3   OH228867   2.796   4.664  16.377 -0.1060  0.0898 -1.0596
 2459TIP3    H128868   2.836   4.592  16.329  0.6184  0.2854 -0.7587
 2459TIP3    H228869   2.705   4.638  16.389  0.2571 -0.9641 -0.5703
 2460TIP3   OH228870   0.304   6.496  16.094  0.5141  0.6389  0.3167
 2460TIP3    H128871   0.397   6.475  16.105  0.3529 -0.0765  0.3861
 2460TIP3    H228872   0.288   6.570  16.152  0.9482  0.4842  0.6323
 2461TIP3   OH228873   1.815   1.303  16.059  0.4637  0.0258  0.1084
 2461TIP3    H128874   1.764   1.225  16.037  0.5874  0.6306 -2.5713
 2461TIP3    H228875   1.755   1.358  16.109 -0.5977 -0.4808 -0.5964
 2462TIP3   OH228876   6.634   1.597   2.613 -0.3330 -0.1851  0.1511
 2462TIP3    H128877   6.615   1.509   2.646 -0.7413 -0.4166 -0.6851
 2462TIP3    H228878   6.721   1.617   2.648  0.4273 -1.5481 -0.9192
 2463TIP3   OH228879   4.781   1.156  10.944 -0.1894  0.4142 -0.0614
 2463TIP3    H128880   4.730   1.075  10.945  0.3571  0.0676  0.7390
 2463TIP3    H228881   4.731   1.216  10.889 -2.0375  0.4370  1.5749
 2464TIP3   OH228882   3.688   2.189   1.751 -0.5757 -0.3383 -0.2665
 2464TIP3    H128883   3.679   2.267   1.696 -0.6285 -0.1836 -0.0345
 2464TIP3    H228884   3.612   2.192   1.809 -1.5825 -1.5354 -1.4994
 2465TIP3   OH228885   5.499   6.344   0.627 -0.6452 -0.2243  0.2428
 2465TIP3    H128886   5.537   6.302   0.550 -0.2469 -2.1764  1.4437
 2465TIP3    H228887   5.507   6.438   0.611  1.0042 -0.6115 -1.3302
 2466TIP3   OH228888   4.499   5.842   2.500 -0.7507 -0.0337  0.5181
 2466TIP3    H128889   4.478   5.844   2.594 -2.9202  0.0509  0.0491
 2466TIP3    H228890   4.424   5.882   2.457  0.9273  1.4005 -1.1786
 2467TIP3   OH228891   1.214   5.718   0.898  0.1042  0.5301  0.0984
 2467TIP3    H128892   1.209   5.625   0.875 -0.9362  0.9150 -1.3476
 2467TIP3    H228893   1.301   5.729   0.936  0.4762 -0.9066 -0.2926
 2468TIP3   OH228894   1.391   2.199  10.762 -0.4120  0.4776 -0.0182
 2468TIP3    H128895   1.376   2.268  10.827 -0.4110  1.7876 -1.3795
 2468TIP3    H228896   1.307   2.190  10.717 -0.6341 -0.9647  0.6658
 2469TIP3   OH228897   2.998   2.445   0.082 -0.2741  0.3896  0.3602
 2469TIP3    H128898   2.986   2.490   0.166 -0.6890  1.7337 -0.3976
 2469TIP3    H228899   3.090   2.417   0.082 -0.2656  0.4222  1.2501
 2470TIP3   OH228900   3.424   1.496   3.482  0.5727 -0.4906 -0.1373
 2470TIP3    H128901   3.359   1.492   3.552  1.3238  0.0206  0.6009
 2470TIP3    H228902   3.373   1.499   3.402 -0.2929 -2.0235  0.3409
 2471TIP3   OH228903   5.356   2.642   3.640 -0.3696  0.0914 -0.1061
 2471TIP3    H128904   5.389   2.566   3.592 -0.6924  0.1887 -0.4868
 2471TIP3    H228905   5.272   2.662   3.598 -0.3152  0.6195  0.0349
 2472TIP3   OH228906   3.346   3.018   2.398  0.1846 -0.1408  0.8848
 2472TIP3    H128907   3.408   2.946   2.408  1.4410  0.6921 -0.5056
 2472TIP3    H228908   3.312   3.007   2.309 -0.8565  0.0285  1.2658
 2473TIP3   OH228909   5.558   5.071   5.866  0.4338  0.3818  0.9292
 2473TIP3    H128910   5.558   5.100   5.775  0.2727 -0.4593  0.6554
 2473TIP3    H228911   5.574   5.151   5.917  1.5163  0.6991  0.1106
 2474TIP3   OH228912   5.560   4.325   0.535  0.0944  0.3379 -0.1440
 2474TIP3    H128913   5.591   4.352   0.449  1.5462 -0.8942 -0.0354
 2474TIP3    H228914   5.635   4.282   0.576 -1.2622 -1.2158  0.8029
 2475TIP3   OH228915   5.955   4.029  15.168  0.7355  0.1466 -0.1042
 2475TIP3    H128916   6.042   4.048  15.133  0.5032 -0.7741 -1.2018
 2475TIP3    H228917   5.909   3.985  15.096  0.5137 -2.5628  1.6211
 2476TIP3   OH228918   1.004   1.946  15.053  0.0896 -0.2284  0.0996
 2476TIP3    H128919   1.025   1.920  15.143 -1.2515 -0.3614  0.3876
 2476TIP3    H228920   1.069   1.902  14.999  1.3646  0.4310  1.0661
 2477TIP3   OH228921   1.326   5.105  13.030 -0.3182  0.1211 -0.5239
 2477TIP3    H128922   1.260   5.102  12.961 -0.0175 -2.0828 -0.7440
 2477TIP3    H228923   1.355   5.196  13.031 -1.0897  0.4144 -2.5793
 2478TIP3   OH228924   3.323   1.274   3.928  0.1306  0.1034  0.3968
 2478TIP3    H128925   3.295   1.354   3.884 -0.6855  0.4009  1.4401
 2478TIP3    H228926   3.279   1.204   3.881  0.2593  0.3217 -0.0500
 2479TIP3   OH228927   4.417   5.906   2.043 -0.1262  0.0391 -0.0656
 2479TIP3    H128928   4.407   6.000   2.031 -2.3049 -0.1568 -0.0860
 2479TIP3    H228929   4.507   5.887   2.016 -0.0629  1.9214 -1.2471
 2480TIP3   OH228930   2.549   5.357   4.918  0.6979  0.4240 -0.2589
 2480TIP3    H128931   2.610   5.376   4.989  0.5857  0.6501 -0.2221
 2480TIP3    H228932   2.589   5.284   4.871  0.8537  0.3816 -0.0617
 2481TIP3   OH228933   4.771   0.249  12.932  0.0269  0.4629 -0.0182
 2481TIP3    H128934   4.677   0.232  12.930  0.0932  0.2166 -1.8617
 2481TIP3    H228935   4.789   0.274  13.023 -2.0345  1.6977  0.0911
 2482TIP3   OH228936   3.219   2.314   1.317 -0.9267  0.6182 -0.0918
 2482TIP3    H128937   3.296   2.317   1.374 -1.6915 -1.0744  1.0697
 2482TIP3    H228938   3.151   2.359   1.366 -1.3483 -0.0656 -0.0463
 2483TIP3   OH228939   3.075   4.549   2.790 -0.1671 -0.1177  0.0895
 2483TIP3    H128940   3.132   4.565   2.715 -0.6923  1.1380 -0.0561
 2483TIP3    H228941   3.064   4.454   2.793  0.6156 -0.2377 -0.8551
 2484TIP3   OH228942   4.318   0.503   0.985  0.3155 -0.0157  0.0295
 2484TIP3    H128943   4.392   0.504   0.924  0.4444  0.6953  0.1953
 2484TIP3    H228944   4.331   0.580   1.040  0.3249 -0.7639  1.1086
 2485TIP3   OH228945   4.785   4.767  14.398 -0.1958  0.2494 -0.1958
 2485TIP3    H128946   4.856   4.702  14.406  1.5521  2.1317 -0.1481
 2485TIP3    H228947   4.765   4.768  14.304  0.8903  0.7684 -0.4386
 2486TIP3   OH228948   6.481   6.636   4.573 -0.3648 -0.1804  0.5705
 2486TIP3    H128949   6.538   6.651   4.498  0.1470  1.0710  1.1990
 2486TIP3    H228950   6.538   6.598   4.640 -0.7087 -0.8148  0.5086
 2487TIP3   OH228951   1.872   0.270  15.932 -0.5606  0.3212  0.7293
 2487TIP3    H128952   1.829   0.348  15.895  2.7502  1.4431 -0.9191
 2487TIP3    H228953   1.871   0.286  16.027 -1.8451  1.3095  0.5767
 2488TIP3   OH228954   2.248   4.425   5.141 -0.0225  0.6424  0.2174
 2488TIP3    H128955   2.213   4.338   5.121  0.5742  0.9801 -2.4576
 2488TIP3    H228956   2.310   4.442   5.071 -1.7660  4.1560 -0.5743
 2489TIP3   OH228957   4.826   2.916   5.785  0.2063 -0.5379  0.2945
 2489TIP3    H128958   4.746   2.923   5.733  0.4899 -1.6571 -0.3273
 2489TIP3    H228959   4.796   2.894   5.873 -0.2377  0.5070  0.4019
 2490TIP3   OH228960   6.534   3.938   4.182  0.0822  0.6541 -0.3962
 2490TIP3    H128961   6.452   3.908   4.142  1.0311  0.4021 -2.2346
 2490TIP3    H228962   6.515   3.944   4.275 -1.3127 -1.8036 -0.4856
 2491TIP3   OH228963   2.205   1.523  15.876 -0.2148 -0.1072 -0.4921
 2491TIP3    H128964   2.169   1.437  15.855  0.1251 -0.2422 -0.5354
 2491TIP3    H228965   2.217   1.521  15.971  1.4571 -0.7758 -0.6927
 2492TIP3   OH228966   4.282   5.856   0.140  0.0938  0.3277 -0.4735
 2492TIP3    H128967   4.194   5.888   0.120  0.2294  0.3605 -1.0387
 2492TIP3    H228968   4.320   5.836   0.054  0.0766 -1.1670 -0.1521
 2493TIP3   OH228969   2.340   6.650  14.193  0.2623 -0.1696 -0.1090
 2493TIP3    H128970   2.389   6.649  14.111 -1.7379  2.4503 -1.3911
 2493TIP3    H228971   2.382   6.718  14.246 -0.5740  0.5316 -0.3342
 2494TIP3   OH228972   4.073   6.393   1.497 -0.3063  0.2212  0.7835
 2494TIP3    H128973   4.059   6.356   1.584  0.8482 -1.7391  0.1898
 2494TIP3    H228974   4.138   6.334   1.457 -0.1115  1.6374 -1.0449
 2495TIP3   OH228975   0.443   6.319  11.515 -0.1872  0.2558  0.1280
 2495TIP3    H128976   0.393   6.336  11.435 -0.7915 -0.9708  0.2400
 2495TIP3    H228977   0.487   6.402  11.533  1.6268 -0.0599 -2.6313
 2496TIP3   OH228978   6.205   3.479   3.662 -0.4532 -0.0379 -0.5650
 2496TIP3    H128979   6.206   3.569   3.693 -0.5970  0.2058 -1.2564
 2496TIP3    H228980   6.298   3.457   3.651 -0.3330 -0.7046  1.6664
 2497TIP3   OH228981   1.627   3.094  14.629  0.1823 -0.2862 -0.4130
 2497TIP3    H128982   1.579   3.160  14.679 -1.4932 -2.5639  1.0950
 2497TIP3    H228983   1.610   3.116  14.538 -1.1950  0.7575  0.0692
 2498TIP3   OH228984   4.244   3.623  14.933  0.2348 -0.0884  0.6470
 2498TIP3    H128985   4.185   3.557  14.897 -0.0398  0.7321 -0.4173
 2498TIP3    H228986   4.311   3.572  14.979  1.0626 -1.2159 -1.7221
 2499TIP3   OH228987   3.029   0.072   0.896 -0.5911  0.3416 -0.2024
 2499TIP3    H128988   2.995   0.013   0.828 -0.2965  0.7933 -0.7552
 2499TIP3    H228989   3.089   0.018   0.947 -1.6556 -0.2914  0.3851
 2500TIP3   OH228990   5.499   0.731   6.382  0.3263  0.0569  0.1291
 2500TIP3    H128991   5.556   0.776   6.319  0.8966  0.8591  1.2010
 2500TIP3    H228992   5.454   0.802   6.429  0.2846 -0.5082  0.9582
 2501TIP3   OH228993   3.964   5.906  16.531  0.1886  0.2091 -0.0962
 2501TIP3    H128994   3.924   5.845  16.594 -1.9155  1.6005 -0.0429
 2501TIP3    H228995   3.897   5.920  16.465  1.2445  1.2244 -0.9788
 2502TIP3   OH228996   4.890   6.808  11.787  0.0351  0.3204  0.4767
 2502TIP3    H128997   4.852   6.785  11.872 -0.0210 -0.1606  0.3234
 2502TIP3    H228998   4.823   6.862  11.745 -0.8536 -1.2078 -0.1276
 2503TIP3   OH228999   1.648   2.423   1.398  0.8052  0.3982 -0.0064
 2503TIP3    H129000   1.643   2.483   1.323  3.2555  1.6227  0.7763
 2503TIP3    H229001   1.637   2.336   1.359  1.8272  1.0325 -1.7639
 2504TIP3   OH229002   3.779   0.511  11.861 -0.3377  0.4442  0.1496
 2504TIP3    H129003   3.809   0.582  11.804 -1.7358  0.5811 -0.4537
 2504TIP3    H229004   3.778   0.549  11.948  1.6620  0.2859  0.2493
 2505TIP3   OH229005   0.733   0.663  11.570 -0.1982  0.2920  0.1869
 2505TIP3    H129006   0.779   0.736  11.529  1.1080 -0.0106  1.0544
 2505TIP3    H229007   0.791   0.588  11.555  0.5122  0.2382  2.8507
 2506TIP3   OH229008   5.379   1.907  12.525 -0.3648  0.2591  0.1798
 2506TIP3    H129009   5.383   1.955  12.608 -0.8661  0.9837 -0.2103
 2506TIP3    H229010   5.286   1.896  12.508 -0.2794 -2.4939  1.1897
 2507TIP3   OH229011   4.600   6.432  16.276  0.2883  0.3124 -1.1055
 2507TIP3    H129012   4.644   6.506  16.318  0.9714 -0.0180 -1.2347
 2507TIP3    H229013   4.614   6.359  16.336  0.8432 -0.0459 -1.6634
 2508TIP3   OH229014   6.349   2.491  12.231  0.8679 -0.2277 -0.0997
 2508TIP3    H129015   6.276   2.501  12.292  1.9355  1.8032  0.8973
 2508TIP3    H229016   6.380   2.401  12.245 -0.5451 -0.6312  0.4720
 2509TIP3   OH229017   1.479   0.637  12.687 -0.0391  0.0803  0.0106
 2509TIP3    H129018   1.542   0.596  12.627 -0.7460  0.6951 -1.1625
 2509TIP3    H229019   1.429   0.563  12.723  1.1271 -0.3833  0.7090
 2510TIP3   OH229020   1.367   6.305   4.503  0.1214 -0.3097 -0.3239
 2510TIP3    H129021   1.299   6.360   4.541  1.0501 -1.2966  2.9845
 2510TIP3    H229022   1.422   6.366   4.453 -1.0228  1.1319  0.1417
 2511TIP3   OH229023   0.949   5.041   5.983 -0.0728  0.3931 -0.0740
 2511TIP3    H129024   0.943   5.037   6.079  0.8568  1.2750  0.0276
 2511TIP3    H229025   0.985   5.128   5.966  0.4801 -0.0647 -1.2041
 2512TIP3   OH229026   1.022   6.255   1.293 -0.0056  0.4981 -0.1563
 2512TIP3    H129027   0.961   6.217   1.357 -0.3171  1.2962  0.0195
 2512TIP3    H229028   0.965   6.296   1.228  0.3181  5.2273  2.3470
 2513TIP3   OH229029   1.685   4.081   2.812 -0.2975 -0.4688 -0.2121
 2513TIP3    H129030   1.713   4.007   2.865 -0.1564  0.1052  0.5296
 2513TIP3    H229031   1.751   4.148   2.827 -0.7412  0.0210 -0.4028
 2514TIP3   OH229032   0.791   2.991   5.043 -0.4826  0.3199  0.1547
 2514TIP3    H129033   0.774   3.011   4.950 -1.2775  2.3278  0.7073
 2514TIP3    H229034   0.809   3.076   5.083  2.4263 -0.8231  1.3655
 2515TIP3   OH229035   6.006   1.091   3.127  0.5620  0.2912  0.3440
 2515TIP3    H129036   6.069   1.058   3.062 -0.0265  1.6275 -0.9439
 2515TIP3    H229037   5.949   1.150   3.077 -0.1210  1.0895  2.0211
 2516TIP3   OH229038   4.103   3.641   1.572  0.3668  0.0741  0.1368
 2516TIP3    H129039   4.118   3.733   1.596 -0.3500  0.2154  0.0499
 2516TIP3    H229040   4.048   3.607   1.643  0.5115 -0.2488  0.0920
 2517TIP3   OH229041   2.897   0.960  12.330 -0.2506  0.1280  0.1633
 2517TIP3    H129042   2.835   1.017  12.285 -0.1719 -0.0757 -0.2087
 2517TIP3    H229043   2.897   0.880  12.279 -1.2068 -0.6352  1.3277
 2518TIP3   OH229044   2.062   1.241  13.429 -0.0192 -0.0345 -0.2837
 2518TIP3    H129045   2.044   1.169  13.369  1.1021 -0.5388 -0.0392
 2518TIP3    H229046   2.128   1.206  13.489  0.9066  1.3449 -0.4673
 2519TIP3   OH229047   1.517   0.299   0.583 -0.1236 -0.3064 -0.0829
 2519TIP3    H129048   1.562   0.291   0.499 -0.0728  0.4234 -0.1283
 2519TIP3    H229049   1.441   0.242   0.575 -0.2100 -0.1045 -0.6882
 2520TIP3   OH229050   3.947   4.663   4.252 -0.5305  0.0290  0.3021
 2520TIP3    H129051   3.894   4.715   4.192  0.3303  0.1398 -0.3767
 2520TIP3    H229052   3.936   4.572   4.223 -1.2495 -0.0657  0.8704
 2521TIP3   OH229053   2.330   5.935   2.549  0.1656  0.1012 -0.1693
 2521TIP3    H129054   2.363   5.845   2.541  0.2075  0.1629 -0.7181
 2521TIP3    H229055   2.276   5.947   2.472  1.6300  1.1628 -1.0667
 2522TIP3   OH229056   1.129   0.576   5.296 -0.0261  0.3335 -0.6793
 2522TIP3    H129057   1.129   0.638   5.369  1.1178  1.9239 -1.9915
 2522TIP3    H229058   1.040   0.581   5.262  0.5462  2.7426 -1.9561
 2523TIP3   OH229059   0.835   5.499   1.531  0.4469  0.0632 -0.0797
 2523TIP3    H129060   0.875   5.439   1.593  1.3670 -1.2172 -1.8423
 2523TIP3    H229061   0.806   5.442   1.459  3.5478  1.9406 -2.9295
 2524TIP3   OH229062   6.169   5.718  15.766 -0.5036 -0.5776 -0.2789
 2524TIP3    H129063   6.144   5.715  15.674 -0.3428 -1.5510 -0.3015
 2524TIP3    H229064   6.099   5.673  15.812 -0.9385  0.5313  0.1654
 2525TIP3   OH229065   4.778   5.914   5.079 -0.1038  0.7407  0.4264
 2525TIP3    H129066   4.866   5.948   5.092  0.1886  0.0485  0.2728
 2525TIP3    H229067   4.778   5.880   4.989  0.8260 -3.2049  1.7836
 2526TIP3   OH229068   3.976   3.631   2.718 -0.4309 -0.0382  0.4141
 2526TIP3    H129069   4.019   3.679   2.647 -3.7106  0.2484 -1.4950
 2526TIP3    H229070   3.949   3.698   2.780  1.3368 -0.1759  1.3792
 2527TIP3   OH229071   1.421   1.741   3.417 -0.5080  0.3501  0.4765
 2527TIP3    H129072   1.356   1.798   3.375 -0.7940  1.3029  2.1665
 2527TIP3    H229073   1.374   1.659   3.434 -0.1816 -0.3118 -1.6856
 2528TIP3   OH229074   5.958   5.314   6.508  0.0784  0.0937  0.0703
 2528TIP3    H129075   5.878   5.273   6.541 -0.0111 -1.4570 -1.9346
 2528TIP3    H229076   6.018   5.241   6.495  0.9676  0.9497 -0.7144
 2529TIP3   OH229077   0.480   6.319  12.710  0.1787  0.2353 -0.3939
 2529TIP3    H129078   0.569   6.348  12.690  0.2503  0.8212  0.7417
 2529TIP3    H229079   0.466   6.243  12.653  0.5012  1.6185 -2.3727
 2530TIP3   OH229080   3.109   2.439   1.628  0.4224 -0.1583  0.1753
 2530TIP3    H129081   3.119   2.361   1.683  1.3668 -0.1004  0.0792
 2530TIP3    H229082   3.196   2.455   1.592 -0.0010  0.3094 -0.6660
 2531TIP3   OH229083   2.388   2.310  14.732  0.2494 -0.3046 -0.0205
 2531TIP3    H129084   2.401   2.279  14.821 -1.4575  1.7909  1.0175
 2531TIP3    H229085   2.350   2.398  14.743 -1.3658 -0.6172 -2.7803
 2532TIP3   OH229086   6.387   5.530   1.587  0.4480  0.7649 -0.5731
 2532TIP3    H129087   6.311   5.566   1.633  0.8261  1.6125 -0.6016
 2532TIP3    H229088   6.352   5.492   1.507 -0.0426  0.4692 -0.2205
 2533TIP3   OH229089   3.373   1.766  15.977 -0.1668  0.1175 -0.7929
 2533TIP3    H129090   3.328   1.800  16.055 -0.0937  1.3098 -1.2513
 2533TIP3    H229091   3.353   1.673  15.977 -1.2121  0.3209 -0.0328
 2534TIP3   OH229092   5.872   5.941   1.749  0.2143 -0.1496 -0.0950
 2534TIP3    H129093   5.792   5.898   1.719 -1.5018  1.8907  1.3396
 2534TIP3    H229094   5.882   5.911   1.839 -0.6624  1.8483  0.7196
 2535TIP3   OH229095   3.120   5.819  13.092  0.5888 -0.2656  0.9129
 2535TIP3    H129096   3.123   5.804  12.998 -0.0689 -0.7040  0.9590
 2535TIP3    H229097   3.143   5.911  13.103 -0.7917  0.1762  0.2071
 2536TIP3   OH229098   6.793   4.237  12.227  0.5397  0.7012  0.5235
 2536TIP3    H129099   6.825   4.316  12.271 -1.6420  1.7948  0.2413
 2536TIP3    H229100   6.698   4.249  12.224  0.4188 -0.6493 -2.0218
 2537TIP3   OH229101   1.961   6.770   4.997  0.1434 -0.4700 -0.3726
 2537TIP3    H129102   1.881   6.804   5.038 -0.6154 -1.9451 -0.6084
 2537TIP3    H229103   1.950   6.788   4.904  0.9641  1.0469 -0.2037
 2538TIP3   OH229104   0.156   1.436  12.878  0.0678  0.2417 -0.0727
 2538TIP3    H129105   0.158   1.492  12.956  2.9766  1.9332 -1.2723
 2538TIP3    H229106   0.241   1.393  12.877  0.2277  0.5371 -2.4873
 2539TIP3   OH229107   0.518   6.388   1.029 -0.0376  0.0962 -0.2041
 2539TIP3    H129108   0.592   6.353   0.979  0.2891  1.2297 -0.5232
 2539TIP3    H229109   0.556   6.417   1.111 -0.2295  0.1406 -0.1307
 2540TIP3   OH229110   4.697   1.994   3.794 -0.5833 -0.1793 -0.0799
 2540TIP3    H129111   4.747   2.016   3.872 -0.2904  0.7456 -0.5211
 2540TIP3    H229112   4.629   2.062   3.789 -1.7540 -1.2887  0.3929
 2541TIP3   OH229113   6.765   2.000   2.293  0.3450 -0.2807 -0.4440
 2541TIP3    H129114   6.696   1.936   2.313 -0.1918 -0.1979 -1.9171
 2541TIP3    H229115   6.755   2.015   2.199  1.2224  1.0975 -0.3143
 2542TIP3   OH229116   6.306   3.139   3.503  0.6937 -0.0273  0.0556
 2542TIP3    H129117   6.341   3.065   3.453  1.8579  1.0527 -0.7512
 2542TIP3    H229118   6.357   3.140   3.584  1.2664  0.4080 -0.3072
 2543TIP3   OH229119   0.867   6.675   1.504 -0.3120 -0.3558 -0.0374
 2543TIP3    H129120   0.776   6.697   1.525 -1.0521 -1.6308 -1.8444
 2543TIP3    H229121   0.874   6.689   1.410  1.8161  1.2238  0.3255
 2544TIP3   OH229122   4.365   6.666   1.520  0.2693  0.2902  0.3289
 2544TIP3    H129123   4.423   6.725   1.568  0.6932  0.7232 -0.6968
 2544TIP3    H229124   4.424   6.601   1.481 -0.0171  0.2191  0.0069
 2545TIP3   OH229125   0.406   5.681  14.860 -0.2845  0.0300  0.3335
 2545TIP3    H129126   0.441   5.631  14.786 -1.2443  0.8774 -0.7172
 2545TIP3    H229127   0.426   5.772  14.839 -1.9542  0.4226  0.3158
 2546TIP3   OH229128   5.291   1.858  11.923  0.0716 -0.1233  0.1044
 2546TIP3    H129129   5.279   1.834  12.015 -0.5306  1.1574  0.3682
 2546TIP3    H229130   5.203   1.859  11.887  0.3162 -0.7005 -0.5117
 2547TIP3   OH229131   2.650   1.935   3.632  0.2062  0.3658 -0.3806
 2547TIP3    H129132   2.730   1.910   3.585 -0.3143 -3.5496  0.6765
 2547TIP3    H229133   2.682   1.969   3.716  0.8055 -0.5274 -0.2369
 2548TIP3   OH229134   2.932   4.217   0.755  0.2646  0.0146  0.6021
 2548TIP3    H129135   2.862   4.152   0.753  0.2328  0.0404  0.8915
 2548TIP3    H229136   3.012   4.166   0.759  0.3508 -0.0556 -1.4282
 2549TIP3   OH229137   3.887   0.895  15.418  0.0021  0.1755 -0.2996
 2549TIP3    H129138   3.808   0.852  15.453  0.1291 -0.0774 -0.3224
 2549TIP3    H229139   3.868   0.988  15.424 -0.3276  0.1142 -0.3642
 2550TIP3   OH229140   6.596   0.697  14.083 -0.9950  0.7276 -0.2797
 2550TIP3    H129141   6.646   0.684  14.164 -0.6008  2.8798 -0.1431
 2550TIP3    H229142   6.505   0.700  14.111 -0.8917  0.9624  0.0408
 2551TIP3   OH229143   2.168   4.682   2.183 -0.5462  0.3644 -0.1461
 2551TIP3    H129144   2.230   4.632   2.131 -1.7776 -0.4897 -0.8236
 2551TIP3    H229145   2.169   4.770   2.145  0.6854  0.5130  0.2338
 2552TIP3   OH229146   3.126   0.906   4.895  0.0825  0.2868 -0.6829
 2552TIP3    H129147   3.188   0.856   4.842  0.2364  0.6223 -0.8184
 2552TIP3    H229148   3.164   0.993   4.901 -1.0379  0.8936 -1.9121
 2553TIP3   OH229149   1.364   0.973   5.542 -0.0659 -0.6303 -0.2393
 2553TIP3    H129150   1.353   1.048   5.483  0.6251 -0.5204 -0.2418
 2553TIP3    H229151   1.295   0.912   5.517 -1.0951  0.3255  0.2653
 2554TIP3   OH229152   2.884   6.760   2.250 -0.2867  0.4021  0.2267
 2554TIP3    H129153   2.896   6.728   2.160 -0.0662  1.1233 -0.0041
 2554TIP3    H229154   2.900   6.854   2.244  0.1017  0.3955  1.0975
 2555TIP3   OH229155   0.973   3.447  11.969 -0.3129  0.2919  0.0399
 2555TIP3    H129156   0.917   3.492  11.906  0.1049  0.8306  0.0474
 2555TIP3    H229157   1.021   3.383  11.918 -0.7696 -0.0205 -0.0031
 2556TIP3   OH229158   4.590   1.011  15.583 -0.5563  0.1995  0.3858
 2556TIP3    H129159   4.563   1.023  15.674 -2.1240 -1.9350  0.2343
 2556TIP3    H229160   4.509   0.988  15.537  0.1522  1.6635 -1.6333
 2557TIP3   OH229161   2.612   4.925   1.031  0.5926 -0.5152 -0.2705
 2557TIP3    H129162   2.625   5.010   0.988  0.2331 -1.2191 -1.7973
 2557TIP3    H229163   2.550   4.879   0.976 -0.6862 -1.0696  1.5823
 2558TIP3   OH229164   6.804   5.705   5.036 -0.1123 -0.3761  0.5515
 2558TIP3    H129165   6.786   5.640   4.968  0.4332 -1.0356  1.0201
 2558TIP3    H229166   6.885   5.747   5.008 -0.6780  0.3785  0.0486
 2559TIP3   OH229167   5.935   6.757   0.684  0.3192  0.3815 -0.3636
 2559TIP3    H129168   5.984   6.813   0.623  0.1242  0.2438 -0.6468
 2559TIP3    H229169   5.874   6.709   0.628 -0.7389  1.1891  0.0967
 2560TIP3   OH229170   3.481   5.727  15.899  0.5281 -0.1073 -0.7286
 2560TIP3    H129171   3.451   5.637  15.915  0.9754 -0.1749 -0.2955
 2560TIP3    H229172   3.478   5.770  15.984 -0.7630  0.6206 -1.1198
 2561TIP3   OH229173   0.952   5.562  16.560  0.0196  0.0995 -0.5066
 2561TIP3    H129174   0.966   5.511  16.640 -0.8810  0.8789  0.1646
 2561TIP3    H229175   0.876   5.618  16.580  0.6766  1.3339 -1.3966
 2562TIP3   OH229176   6.179   4.403   2.982  0.3873  0.6060  0.5122
 2562TIP3    H129177   6.151   4.410   2.891 -1.8754  1.5962  1.2562
 2562TIP3    H229178   6.186   4.308   2.997  0.3413  0.4277 -0.5491
 2563TIP3   OH229179   0.634   0.720   4.695  0.0436 -0.4136 -0.2512
 2563TIP3    H129180   0.704   0.756   4.750 -0.0254 -1.3778  0.4706
 2563TIP3    H229181   0.553   0.749   4.737 -0.0197 -1.7892  0.6022
 2564TIP3   OH229182   2.416   1.410  16.384  0.3376 -0.0634 -0.0900
 2564TIP3    H129183   2.333   1.414  16.432 -0.0443  0.5506 -0.7943
 2564TIP3    H229184   2.480   1.452  16.442 -0.2838  1.3925 -0.4556
 2565TIP3   OH229185   4.806   6.058   5.990  0.4171 -0.3259 -0.1538
 2565TIP3    H129186   4.812   6.149   6.017  1.7424  0.5165 -3.1981
 2565TIP3    H229187   4.776   6.061   5.899 -1.8245 -3.0277  0.4110
 2566TIP3   OH229188   5.920   0.804  15.920 -0.3552 -0.2557 -0.5003
 2566TIP3    H129189   5.942   0.778  15.831  0.1890 -0.6351 -0.2504
 2566TIP3    H229190   5.966   0.887  15.932  1.7254 -1.5315  0.3614
 2567TIP3   OH229191   6.652   3.850  13.401 -0.1569 -0.6070 -0.3465
 2567TIP3    H129192   6.589   3.793  13.358 -1.1971  0.4421 -0.2431
 2567TIP3    H229193   6.599   3.904  13.460  0.7547  0.7507 -0.7599
 2568TIP3   OH229194   4.100   6.187  14.184 -0.0266 -0.0340  0.3744
 2568TIP3    H129195   4.091   6.105  14.135  0.0654  0.2055 -0.0451
 2568TIP3    H229196   4.010   6.209  14.210  0.1229 -1.0567  1.7938
 2569TIP3   OH229197   4.542   6.780  12.028  0.4713 -0.6527 -0.3303
 2569TIP3    H129198   4.504   6.853  11.980 -1.2748 -0.9898  0.4781
 2569TIP3    H229199   4.499   6.783  12.114  1.0813 -2.0317  0.0376
 2570TIP3   OH229200   3.606   1.065   1.209  0.5405  0.2989  0.0730
 2570TIP3    H129201   3.595   1.124   1.284  0.8099 -0.4138  0.6743
 2570TIP3    H229202   3.593   0.977   1.244 -0.7839  0.0452 -1.0115
 2571TIP3   OH229203   6.456   1.867  14.502 -0.0356  0.0482 -0.6857
 2571TIP3    H129204   6.529   1.929  14.501  0.0873 -0.1072 -1.1596
 2571TIP3    H229205   6.381   1.919  14.532  0.6058 -0.1634  1.3531
 2572TIP3   OH229206   0.252   4.543  11.025  0.8189 -0.1917  0.2870
 2572TIP3    H129207   0.324   4.489  11.058  2.2342  1.0677 -0.6755
 2572TIP3    H229208   0.249   4.525  10.931 -0.3624 -0.4931  0.3684
 2573TIP3   OH229209   6.017   2.136  16.692 -0.5987  0.0205  0.2051
 2573TIP3    H129210   5.945   2.125  16.754 -0.5102 -0.0642  0.2914
 2573TIP3    H229211   6.002   2.223  16.655 -1.9904 -0.8576 -1.3724
 2574TIP3   OH229212   5.670   6.267  16.699  0.1327  0.4558  0.2497
 2574TIP3    H129213   5.640   6.343  16.748  1.6658  1.2297  0.0035
 2574TIP3    H229214   5.646   6.192  16.754 -0.6363  1.1517  0.8761
 2575TIP3   OH229215   5.859   0.622   1.569  0.2082 -0.2909  0.6267
 2575TIP3    H129216   5.857   0.624   1.665 -1.2741 -0.8829  0.6134
 2575TIP3    H229217   5.885   0.711   1.544 -0.1777  0.0944  1.5694
 2576TIP3   OH229218   4.098   4.784  12.068 -0.1235 -0.7102  0.2094
 2576TIP3    H129219   4.044   4.804  12.144 -0.4850 -0.1856 -0.1805
 2576TIP3    H229220   4.180   4.831  12.084 -0.2582 -0.4706  0.2060
 2577TIP3   OH229221   3.019   5.110  16.284 -0.1053  0.2667  0.1235
 2577TIP3    H129222   2.960   5.179  16.315 -0.9828 -0.6209  0.4571
 2577TIP3    H229223   2.996   5.099  16.191 -0.6860 -0.2729  0.3201
 2578TIP3   OH229224   5.821   2.104  16.869 -0.3778  0.3254  0.4370
 2578TIP3    H129225   5.742   2.059  16.838 -0.8610  0.6941  1.1185
 2578TIP3    H229226   5.842   2.061  16.952  1.4571 -1.2902 -0.8274
 2579TIP3   OH229227   2.816   4.863  11.584  0.1970  0.6054  0.0438
 2579TIP3    H129228   2.735   4.882  11.631 -0.1711  0.0575 -0.3685
 2579TIP3    H229229   2.808   4.772  11.557  1.7030  0.0364  1.4661
 2580TIP3   OH229230   0.367   2.261   2.486 -0.3782  0.2567  0.0903
 2580TIP3    H129231   0.331   2.231   2.403  2.5918  0.4549 -1.3356
 2580TIP3    H229232   0.380   2.355   2.475  1.8584 -0.0180 -0.0119
 2581TIP3   OH229233   4.449   4.655   2.955  0.0586  0.5241 -0.6191
 2581TIP3    H129234   4.523   4.665   3.015 -0.2307  0.7609 -0.2986
 2581TIP3    H229235   4.474   4.708   2.879  0.4750  0.1344 -0.7549
 2582TIP3   OH229236   6.332   5.753   4.577 -0.5823 -0.1971 -0.3755
 2582TIP3    H129237   6.391   5.826   4.559 -2.3165  1.4499  0.3638
 2582TIP3    H229238   6.389   5.681   4.604  1.1280  1.0511 -0.5675
 2583TIP3   OH229239   0.889   0.550  16.153  0.0604  0.1892 -0.1424
 2583TIP3    H129240   0.830   0.625  16.151 -0.4985 -0.1780  1.6018
 2583TIP3    H229241   0.970   0.581  16.114 -0.4320  1.4745 -0.1415
 2584TIP3   OH229242   0.848   6.064   1.684 -0.4454  0.2867 -0.3792
 2584TIP3    H129243   0.849   5.996   1.750 -2.0917 -0.4529 -1.0816
 2584TIP3    H229244   0.929   6.051   1.634 -1.0940 -1.6502 -0.9820
 2585TIP3   OH229245   6.783   2.995  13.545 -0.0372 -0.3591  0.4618
 2585TIP3    H129246   6.812   3.086  13.549 -0.6255 -0.2345  2.5299
 2585TIP3    H229247   6.815   2.963  13.461  0.1212  1.7705 -0.3184
 2586TIP3   OH229248   3.219   4.967  12.574 -0.3943 -0.5123 -0.1685
 2586TIP3    H129249   3.303   4.999  12.606 -0.0329 -1.2914 -0.3160
 2586TIP3    H229250   3.162   4.965  12.651  0.3772 -2.0750  0.3774
 2587TIP3   OH229251   6.672   3.108  12.441 -0.7411  0.2259  0.6228
 2587TIP3    H129252   6.691   3.198  12.414 -0.7755  0.5841  1.7987
 2587TIP3    H229253   6.577   3.104  12.447 -0.6522  0.6214  2.3369
 2588TIP3   OH229254   1.666   6.125  12.085  0.7229  0.4183 -0.0366
 2588TIP3    H129255   1.637   6.164  12.003  1.3403  0.4655 -0.2392
 2588TIP3    H229256   1.656   6.031  12.073 -1.1001  0.5168  0.5791
 2589TIP3   OH229257   5.063   4.509   5.713  0.1141 -0.0625 -0.4096
 2589TIP3    H129258   4.982   4.557   5.698 -0.8245 -1.1437  1.1850
 2589TIP3    H229259   5.132   4.570   5.686 -1.2365  0.5434 -2.6188
 2590TIP3   OH229260   6.016   2.414  16.261 -0.2067 -0.0003 -0.0717
 2590TIP3    H129261   5.967   2.493  16.284  0.2522  0.3516 -0.3137
 2590TIP3    H229262   5.954   2.364  16.208 -0.1329  0.6893 -0.8197
 2591TIP3   OH229263   2.581   3.543  12.175  0.4723  0.6680 -0.2245
 2591TIP3    H129264   2.662   3.541  12.125  0.3229  0.2632 -0.4507
 2591TIP3    H229265   2.603   3.593  12.253  0.2055  2.9355 -1.5629
 2592TIP3   OH229266   0.208   0.879   1.065 -0.2348  0.0780  0.0015
 2592TIP3    H129267   0.215   0.819   1.139 -0.8580  0.0360  0.0296
 2592TIP3    H229268   0.159   0.830   0.999  0.0114  0.2424 -0.3041
 2593TIP3   OH229269   1.969   1.410   3.669  0.6340  0.4875  0.4634
 2593TIP3    H129270   2.004   1.330   3.707  1.3793 -0.2438 -1.6910
 2593TIP3    H229271   2.040   1.446   3.617 -0.5073  1.1730 -0.6650
 2594TIP3   OH229272   5.902   0.572  16.454  0.0418 -0.0148  0.3094
 2594TIP3    H129273   5.884   0.574  16.548 -1.4033 -0.5622  0.0661
 2594TIP3    H229274   5.865   0.489  16.425  1.1813 -0.2125 -0.6142
 2595TIP3   OH229275   4.903   2.108   2.521  0.0011  0.0296 -0.4655
 2595TIP3    H129276   4.967   2.144   2.582 -0.9556  0.5778  0.2336
 2595TIP3    H229277   4.948   2.107   2.437  1.1973 -0.3539  0.1667
 2596TIP3   OH229278   0.097   1.106   4.354  0.1042  0.8161  0.1472
 2596TIP3    H129279   0.189   1.088   4.335  0.0047 -0.0971  0.5013
 2596TIP3    H229280   0.057   1.019   4.362 -0.3741  1.1830  1.9555
 2597TIP3   OH229281   3.737   1.202   5.534  0.5042 -0.2144 -0.5705
 2597TIP3    H129282   3.776   1.242   5.611 -1.6498  0.3041  0.2730
 2597TIP3    H229283   3.670   1.143   5.569 -0.4433 -0.0300 -2.0323
 2598TIP3   OH229284   5.159   5.905   2.986  0.6514  0.0581  0.4595
 2598TIP3    H129285   5.210   5.986   2.994  0.2555  0.3252  0.2944
 2598TIP3    H229286   5.149   5.874   3.077  1.7632 -0.4080  0.4225
 2599TIP3   OH229287   0.794   0.794  13.919  0.4714  0.2239 -0.2623
 2599TIP3    H129288   0.811   0.804  13.826 -0.0212 -0.2689 -0.4107
 2599TIP3    H229289   0.712   0.842  13.933  1.0065  1.0487  0.0914
 2600TIP3   OH229290   0.510   0.253  10.782 -0.0683 -0.0399  0.5552
 2600TIP3    H129291   0.445   0.266  10.850 -0.9292 -0.2301 -0.2226
 2600TIP3    H229292   0.569   0.186  10.816 -1.7640 -1.7281  0.2083
 2601TIP3   OH229293   3.030   4.931   2.099  0.2635  0.3899  0.5697
 2601TIP3    H129294   3.107   4.939   2.043 -0.8728  1.2476 -0.9073
 2601TIP3    H229295   3.062   4.947   2.188  2.1932 -1.5158  0.2607
 2602TIP3   OH229296   5.205   5.379   0.193 -0.0031 -0.2089 -0.6537
 2602TIP3    H129297   5.130   5.349   0.243  0.3242  3.2199  2.1097
 2602TIP3    H229298   5.170   5.448   0.136  0.4727 -0.9135 -1.8226
 2603TIP3   OH229299   2.843   4.658   2.952 -0.0974 -0.2322  0.4154
 2603TIP3    H129300   2.857   4.752   2.950 -0.2152 -0.2074  0.7169
 2603TIP3    H229301   2.903   4.623   2.886 -0.6443  0.1261 -0.2708
 2604TIP3   OH229302   0.572   1.472  16.681 -0.0652  0.5568 -0.2706
 2604TIP3    H129303   0.517   1.394  16.680  1.1077 -0.3474  1.8940
 2604TIP3    H229304   0.518   1.541  16.642 -1.4521 -1.1171 -1.3282
 2605TIP3   OH229305   1.584   5.265  10.961  0.2978  0.1669 -0.7083
 2605TIP3    H129306   1.678   5.265  10.978  0.3484  1.4606 -0.9880
 2605TIP3    H229307   1.548   5.209  11.029  1.3659 -1.1432 -1.1720
 2606TIP3   OH229308   4.249   1.931  14.475 -0.2927 -0.3953 -0.6615
 2606TIP3    H129309   4.166   1.886  14.461  0.7002 -1.7563 -2.2564
 2606TIP3    H229310   4.280   1.955  14.387  0.9086  0.2712 -0.0839
 2607TIP3   OH229311   2.370   4.026   0.392  0.1775 -0.3358  0.4295
 2607TIP3    H129312   2.342   4.111   0.425  2.8564  0.7527  0.0434
 2607TIP3    H229313   2.310   4.007   0.320 -0.8399  0.9032  0.9234
 2608TIP3   OH229314   4.985   5.734   1.738  0.7865 -0.4157  0.1027
 2608TIP3    H129315   4.930   5.776   1.672  2.4800  0.8873 -0.5045
 2608TIP3    H229316   4.948   5.763   1.821 -0.4347 -0.8522 -0.2798
 2609TIP3   OH229317   2.229   1.107   5.707 -0.0156 -0.4712 -0.3236
 2609TIP3    H129318   2.221   1.020   5.669  0.5047  0.2010 -2.0123
 2609TIP3    H229319   2.185   1.165   5.644 -0.3316  0.4894  0.7667
 2610TIP3   OH229320   0.112   2.478   1.182  0.5832 -0.2163  0.3571
 2610TIP3    H129321   0.077   2.547   1.126  0.5813 -0.1531  0.4354
 2610TIP3    H229322   0.055   2.402   1.166  1.3011 -0.5584 -0.6074
 2611TIP3   OH229323   2.212   1.904  14.366 -0.4855  0.1232 -0.4844
 2611TIP3    H129324   2.261   1.913  14.447  0.3466 -0.6412 -0.8973
 2611TIP3    H229325   2.139   1.965  14.375  0.5879  1.3398  0.0842
 2612TIP3   OH229326   6.642   3.248  15.862 -0.1638 -0.4645  0.1273
 2612TIP3    H129327   6.601   3.174  15.815  2.8672 -0.6375 -2.3901
 2612TIP3    H229328   6.575   3.317  15.860 -0.9001 -1.1897 -2.6591
 2613TIP3   OH229329   4.893   4.600   0.524 -0.3468 -0.3080 -0.2160
 2613TIP3    H129330   4.840   4.542   0.469 -2.2346  0.3947  0.8172
 2613TIP3    H229331   4.917   4.672   0.467  0.0439 -0.9563 -0.8751
 2614TIP3   OH229332   2.339   2.746   1.799  0.3591  0.3458 -0.2329
 2614TIP3    H129333   2.248   2.767   1.821  0.7752  0.6464  1.2664
 2614TIP3    H229334   2.364   2.678   1.861  1.4197  0.8641 -0.0803
 2615TIP3   OH229335   0.037   2.698   4.170  0.5581 -0.1804 -0.5545
 2615TIP3    H129336   0.064   2.631   4.107 -4.4798 -2.8547 -0.0823
 2615TIP3    H229337   0.002   2.769   4.116  2.3772  0.4810 -0.9111
 2616TIP3   OH229338   3.283   1.507   3.724 -0.4683  0.6035 -0.2083
 2616TIP3    H129339   3.289   1.603   3.726  1.0997  0.5310 -0.4545
 2616TIP3    H229340   3.192   1.489   3.702 -0.8116  2.0413 -0.0325
 2617TIP3   OH229341   4.831   3.258  12.556  0.1173 -0.1647 -0.0327
 2617TIP3    H129342   4.924   3.273  12.574  0.6177 -1.5986 -1.2795
 2617TIP3    H229343   4.820   3.284  12.464 -0.1697 -2.1803 -0.6030
 2618TIP3   OH229344   2.062   3.943   3.681 -0.1609  0.5422  0.0837
 2618TIP3    H129345   2.076   4.037   3.668 -0.3229  1.0154  2.9572
 2618TIP3    H229346   2.139   3.901   3.642  0.4478  1.9364 -0.2408
 2619TIP3   OH229347   3.425   2.213   1.474  0.0714  0.2618  0.0956
 2619TIP3    H129348   3.408   2.196   1.567 -0.2684  0.8264  0.1379
 2619TIP3    H229349   3.519   2.204   1.465 -0.1818 -2.6170 -0.0738
 2620TIP3   OH229350   5.768   2.966  11.885 -0.1177  0.7609 -0.5501
 2620TIP3    H129351   5.713   2.890  11.873  0.0207  0.6805 -0.6812
 2620TIP3    H229352   5.751   2.995  11.975  0.6937 -0.1092 -0.1103
 2621TIP3   OH229353   5.272   1.416  17.237  0.0877 -0.5543 -0.0546
 2621TIP3    H129354   5.186   1.375  17.245 -0.6265  1.1697  1.2347
 2621TIP3    H229355   5.270   1.461  17.152 -0.8196  0.7277  0.6439
 2622TIP3   OH229356   4.933   0.439  12.767 -0.2371  0.8604  0.0131
 2622TIP3    H129357   4.902   0.391  12.844 -0.4986  1.4017  0.2471
 2622TIP3    H229358   5.017   0.477  12.795  0.1260  0.2798 -0.2769
 2623TIP3   OH229359   6.282   5.653  11.991  0.4643 -0.1697  0.4449
 2623TIP3    H129360   6.338   5.578  12.010 -1.2033 -1.8156 -0.9558
 2623TIP3    H229361   6.283   5.660  11.896  0.7483  1.7182  0.5735
 2624TIP3   OH229362   0.459   0.488  14.995 -0.0491  0.5959 -0.5560
 2624TIP3    H129363   0.528   0.535  14.949  0.1254 -0.9510 -1.8986
 2624TIP3    H229364   0.378   0.527  14.962  0.1287  1.2440 -0.2423
 2625TIP3   OH229365   6.056   1.016   4.939  0.5886  0.3472 -0.6873
 2625TIP3    H129366   6.092   0.970   4.863  0.8744 -0.4812 -0.0560
 2625TIP3    H229367   6.106   0.982   5.014  0.7419  1.6222 -0.2010
 2626TIP3   OH229368   6.025   5.719  14.293  0.0523 -0.7402 -0.3188
 2626TIP3    H129369   5.978   5.799  14.318  0.3411 -1.3201  2.2204
 2626TIP3    H229370   5.956   5.655  14.277 -0.1337 -0.4208 -0.8065
 2627TIP3   OH229371   1.134   0.971   1.184  0.2845 -0.2082 -0.1739
 2627TIP3    H129372   1.068   1.000   1.247  1.0378  0.1103  0.4755
 2627TIP3    H229373   1.214   1.018   1.209  0.7119 -0.4390 -1.0712
 2628TIP3   OH229374   1.925   2.397  15.118 -0.2694 -0.6879 -0.2720
 2628TIP3    H129375   1.914   2.309  15.153 -2.0375 -0.1326  0.6626
 2628TIP3    H229376   1.873   2.397  15.038  1.1194 -0.9879 -1.1851
 2629TIP3   OH229377   1.655   0.850   4.029  0.3097 -0.5479 -0.0260
 2629TIP3    H129378   1.626   0.839   3.938  1.5662  3.4427 -1.0085
 2629TIP3    H229379   1.578   0.887   4.073  0.5777  0.1684 -0.1524
 2630TIP3   OH229380   2.616   5.383  14.295  0.5225 -0.1390 -0.1000
 2630TIP3    H129381   2.574   5.458  14.253  1.8566  1.1725  0.8735
 2630TIP3    H229382   2.698   5.372  14.248  0.5186 -0.7372  0.0294
 2631TIP3   OH229383   0.557   6.003   5.776  0.2219  0.3533 -0.3207
 2631TIP3    H129384   0.535   5.921   5.732  2.6431 -0.2518 -0.4576
 2631TIP3    H229385   0.579   5.977   5.866  2.1289  0.6734 -0.6767
 2632TIP3   OH229386   2.676   1.922  14.498  0.7808 -0.3925  0.0593
 2632TIP3    H129387   2.676   1.841  14.448 -1.2412  0.2540 -1.0169
 2632TIP3    H229388   2.765   1.928  14.534  1.5802 -1.9988 -1.5805
 2633TIP3   OH229389   1.767   1.350  14.724 -0.5811 -0.5495 -0.0877
 2633TIP3    H129390   1.797   1.417  14.663  0.0232 -1.4696 -0.8100
 2633TIP3    H229391   1.838   1.286  14.727 -0.8759 -0.8294  1.0960
 2634TIP3   OH229392   4.313   2.346  12.618  0.8574 -0.2860  0.7178
 2634TIP3    H129393   4.264   2.429  12.620  0.9339 -0.2628  1.5654
 2634TIP3    H229394   4.375   2.357  12.546  1.3264  0.6539  1.2546
 2635TIP3   OH229395   5.887   5.766  12.314  0.2306  0.2865 -0.3192
 2635TIP3    H129396   5.883   5.836  12.249 -2.0268 -0.4370 -1.0124
 2635TIP3    H229397   5.845   5.802  12.392 -0.1437  0.0206 -0.3937
 2636TIP3   OH229398   0.737   5.502  13.796  0.0838 -0.1028  0.3717
 2636TIP3    H129399   0.670   5.517  13.729 -0.9360  0.2978  1.4646
 2636TIP3    H229400   0.808   5.457  13.750 -0.7533 -0.1364 -0.8953
 2637TIP3   OH229401   2.880   6.074  15.393 -0.1539 -0.4279 -0.3311
 2637TIP3    H129402   2.907   6.050  15.482  0.2487  1.3793  0.0587
 2637TIP3    H229403   2.962   6.088  15.346 -0.3713 -1.1834 -0.9366
 2638TIP3   OH229404   2.667   4.030  16.031  0.2714  0.4235  0.0127
 2638TIP3    H129405   2.709   3.957  16.076 -1.2309 -0.9506 -0.7570
 2638TIP3    H229406   2.588   4.047  16.083 -0.2435  0.3891 -0.7487
 2639TIP3   OH229407   4.305   0.283   1.979  0.3603 -0.1732 -0.1021
 2639TIP3    H129408   4.275   0.191   1.978 -1.6910  0.4651 -0.7060
 2639TIP3    H229409   4.305   0.307   2.072 -1.6049 -0.0406 -0.1053
 2640TIP3   OH229410   1.637   2.506  11.972  0.5679  0.3034  0.3723
 2640TIP3    H129411   1.592   2.580  11.932  1.9850  0.6002 -0.6948
 2640TIP3    H229412   1.567   2.446  11.997 -0.5241  1.5659  0.3589
 2641TIP3   OH229413   0.887   3.329  11.505  0.4279  0.3890 -0.0243
 2641TIP3    H129414   0.793   3.344  11.519  0.1977 -0.3029 -0.7608
 2641TIP3    H229415   0.909   3.384  11.430  0.5953  0.5161  0.1205
 2642TIP3   OH229416   4.269   3.877   6.134  0.1887 -0.2451 -0.0520
 2642TIP3    H129417   4.361   3.876   6.108 -0.6878  0.3072 -3.4347
 2642TIP3    H229418   4.226   3.931   6.068 -2.3118  0.9281  2.4369
 2643TIP3   OH229419   3.082   1.431   2.633 -0.3863  0.0641 -0.5724
 2643TIP3    H129420   3.129   1.348   2.643  0.2569  0.4357 -0.4773
 2643TIP3    H229421   3.127   1.491   2.692 -1.7755  0.1029  0.4615
 2644TIP3   OH229422   6.664   4.980   2.412 -0.2982  0.4492  0.1480
 2644TIP3    H129423   6.593   5.045   2.411 -1.6236 -0.9482 -3.4204
 2644TIP3    H229424   6.623   4.899   2.382  1.7415 -1.6891  2.8659
 2645TIP3   OH229425   5.336   4.744   1.013  0.1047 -0.6141 -0.7172
 2645TIP3    H129426   5.428   4.730   0.989  0.7152 -1.5878  1.9342
 2645TIP3    H229427   5.339   4.814   1.077 -1.0347 -0.4714 -0.8128
 2646TIP3   OH229428   1.501   3.284  14.815  0.1824 -0.0363  0.1738
 2646TIP3    H129429   1.561   3.342  14.862  0.7055 -0.1136 -0.4032
 2646TIP3    H229430   1.445   3.343  14.764 -0.6178  0.0706  1.1439
 2647TIP3   OH229431   3.574   4.920   2.180 -0.4336  0.8414  0.2797
 2647TIP3    H129432   3.633   4.917   2.105 -0.7617  0.8303  0.0179
 2647TIP3    H229433   3.585   4.834   2.222 -1.9772 -0.0804 -1.1136
 2648TIP3   OH229434   0.254   0.170   4.447 -0.3038  0.1005  0.4516
 2648TIP3    H129435   0.192   0.202   4.513 -0.9577 -1.0340  0.4029
 2648TIP3    H229436   0.203   0.169   4.365  0.1041  0.2039  0.1945
 2649TIP3   OH229437   3.509   0.158  14.307  0.2976  0.3535 -1.0139
 2649TIP3    H129438   3.545   0.073  14.282  1.8016  0.3962  0.8843
 2649TIP3    H229439   3.556   0.221  14.253 -0.4534  0.0342 -2.0577
 2650TIP3   OH229440   0.397   4.247   3.174  0.2016 -0.1230 -0.4379
 2650TIP3    H129441   0.478   4.238   3.124  0.8823  1.2019  0.4090
 2650TIP3    H229442   0.382   4.342   3.179 -2.2262 -0.3805 -1.8941
 2651TIP3   OH229443   5.338   0.196  15.425  0.1766  0.4525 -0.1447
 2651TIP3    H129444   5.263   0.170  15.478  1.4962  1.1093  2.1321
 2651TIP3    H229445   5.403   0.225  15.489  1.9045  1.0852 -2.1384
 2652TIP3   OH229446   3.002   3.770   0.714 -0.0888 -0.3060 -0.0774
 2652TIP3    H129447   3.061   3.844   0.699 -1.0991  0.8011  1.2602
 2652TIP3    H229448   3.038   3.726   0.791 -0.0357 -0.6226 -0.2863
 2653TIP3   OH229449   2.774   5.728   3.189 -0.3711  0.0351  0.1951
 2653TIP3    H129450   2.830   5.680   3.128  0.1117  1.3895 -0.4348
 2653TIP3    H229451   2.829   5.741   3.266 -1.0663 -1.9047  1.0477
 2654TIP3   OH229452   1.022   6.772  17.070 -0.2760 -0.4245 -0.4090
 2654TIP3    H129453   1.061   6.688  17.097 -0.9815 -0.1173  1.6914
 2654TIP3    H229454   0.933   6.749  17.043 -0.2463 -0.4504 -0.4845
 2655TIP3   OH229455   0.883   0.369  15.180  0.1911  0.4635 -0.3787
 2655TIP3    H129456   0.943   0.444  15.179 -0.8227  1.2785 -0.5206
 2655TIP3    H229457   0.801   0.404  15.213  0.4346 -1.1736  2.1383
 2656TIP3   OH229458   6.678   2.483   3.907 -0.2715  0.1238  0.1439
 2656TIP3    H129459   6.626   2.427   3.964 -0.4267  0.3557  0.2295
 2656TIP3    H229460   6.756   2.431   3.886 -0.1219  0.1160  0.7278
 2657TIP3   OH229461   5.597   4.996  15.129 -0.5960 -0.0938 -0.1782
 2657TIP3    H129462   5.560   5.015  15.043  1.0608 -0.1338 -0.9167
 2657TIP3    H229463   5.606   5.082  15.171  1.0577  0.2145 -1.0962
 2658TIP3   OH229464   1.885   6.642  16.822  0.2155  0.1973  0.1043
 2658TIP3    H129465   1.813   6.592  16.784 -1.3308  1.1632  1.7013
 2658TIP3    H229466   1.917   6.587  16.894  1.4473 -0.4672 -0.9243
 2659TIP3   OH229467   0.513   3.057  14.185 -0.1551  0.1782  0.2658
 2659TIP3    H129468   0.451   3.003  14.135 -0.0284  1.5813 -1.4626
 2659TIP3    H229469   0.592   3.060  14.130  0.3813  0.8519  1.0629
 2660TIP3   OH229470   1.590   3.866  10.206 -0.0276  0.7044  0.1800
 2660TIP3    H129471   1.512   3.862  10.151  0.4619  0.9210 -0.5469
 2660TIP3    H229472   1.603   3.960  10.222 -1.3936  0.5306  2.4632
 2661TIP3   OH229473   5.834   3.619   5.804 -0.5561 -0.8181  0.1567
 2661TIP3    H129474   5.808   3.608   5.713  0.1643  0.8860 -0.2889
 2661TIP3    H229475   5.826   3.532   5.843 -0.1832 -1.7064 -1.7098
 2662TIP3   OH229476   3.611   1.357   0.213  0.1476  0.4644 -0.0997
 2662TIP3    H129477   3.567   1.359   0.128  0.6215 -1.4230 -0.4168
 2662TIP3    H229478   3.544   1.384   0.276 -0.5267  0.7629 -0.9458
 2663TIP3   OH229479   5.955   0.015   4.049 -0.5533 -0.0404 -0.2690
 2663TIP3    H129480   6.043   0.027   4.013 -0.3685 -1.9697 -0.5244
 2663TIP3    H229481   5.970  -0.020   4.137 -1.0498  1.2551  0.3346
 2664TIP3   OH229482   2.303   1.205  12.325 -0.0196 -0.5845  0.0534
 2664TIP3    H129483   2.327   1.140  12.260  0.1158 -0.0541 -0.4334
 2664TIP3    H229484   2.296   1.287  12.276  0.2116 -0.1543  0.7197
 2665TIP3   OH229485   2.723   1.760  13.109 -0.0983 -0.3226  0.0173
 2665TIP3    H129486   2.730   1.678  13.159  0.4353  0.2849  0.9411
 2665TIP3    H229487   2.798   1.757  13.049  1.8952  1.0332  2.3539
 2666TIP3   OH229488   2.589   6.803  13.268  0.0047  0.2806 -0.5319
 2666TIP3    H129489   2.668   6.749  13.276 -1.8936 -2.5679 -0.4445
 2666TIP3    H229490   2.583   6.823  13.175 -0.2693 -1.2555 -0.8594
 2667TIP3   OH229491   3.942   5.594  14.979  0.1748  0.8847  0.9491
 2667TIP3    H129492   4.007   5.567  14.913 -0.1578  0.9427  0.6002
 2667TIP3    H229493   3.984   5.666  15.025  1.1481 -0.3136  2.0031
 2668TIP3   OH229494   3.292   1.216  16.050 -0.2437  0.0818  0.1429
 2668TIP3    H129495   3.364   1.194  16.109 -0.7312 -2.2708 -0.1137
 2668TIP3    H229496   3.314   1.172  15.968 -0.9469  1.0842 -0.5998
 2669TIP3   OH229497   0.420   4.501   4.879  0.0223  0.4782  0.2450
 2669TIP3    H129498   0.420   4.470   4.788  0.7212 -0.7743  0.6585
 2669TIP3    H229499   0.499   4.461   4.917 -0.0736  1.2932  1.2988
 2670TIP3   OH229500   0.302   5.210   5.601 -0.1969 -0.3921 -0.5325
 2670TIP3    H129501   0.365   5.277   5.575 -1.2457  0.4683 -0.9112
 2670TIP3    H229502   0.333   5.180   5.686  0.4938  0.3072 -0.5294
 2671TIP3   OH229503   1.555   2.580   3.166 -0.1466  0.5310 -0.2268
 2671TIP3    H129504   1.618   2.512   3.192 -0.3751  0.7313  0.9015
 2671TIP3    H229505   1.576   2.654   3.223 -1.5962  0.5010  0.3699
 2672TIP3   OH229506   0.217   2.690  13.757  0.9190  0.0359  0.0817
 2672TIP3    H129507   0.173   2.678  13.673  1.8441 -0.0842 -0.3975
 2672TIP3    H229508   0.228   2.601  13.790 -0.4826  0.1465  0.8887
 2673TIP3   OH229509   1.146   6.736   3.759  0.5945  0.0366  0.0783
 2673TIP3    H129510   1.132   6.672   3.829  0.0559  2.0456  1.8644
 2673TIP3    H229511   1.167   6.683   3.682 -1.2338 -2.3399  1.1465
 2674TIP3   OH229512   5.572   4.116   6.254  0.2129 -0.3349  0.3563
 2674TIP3    H129513   5.639   4.062   6.212 -0.0251 -0.7532  0.5170
 2674TIP3    H229514   5.528   4.057   6.315 -1.9103 -0.6988 -1.4720
 2675TIP3   OH229515   5.663   1.564   4.154  0.7111 -0.1778 -0.0930
 2675TIP3    H129516   5.737   1.507   4.174  0.0747 -1.1976 -0.6344
 2675TIP3    H229517   5.689   1.611   4.075  2.1404  1.9266  1.5438
 2676TIP3   OH229518   0.064   1.140  14.560 -0.8378  0.1895 -0.1738
 2676TIP3    H129519   0.005   1.193  14.507  0.9978  0.5238 -1.9535
 2676TIP3    H229520   0.120   1.204  14.605  0.1508 -0.1804 -0.8635
 2677TIP3   OH229521   1.496   5.607  16.332  0.0088 -0.2329 -0.1153
 2677TIP3    H129522   1.418   5.582  16.382 -0.2342  0.8767  0.0600
 2677TIP3    H229523   1.480   5.697  16.305  0.7648 -0.3477 -0.9996
 2678TIP3   OH229524   3.696   4.906  17.097 -0.3233  0.1552 -0.1855
 2678TIP3    H129525   3.693   4.996  17.064 -0.0306  0.4770  0.6518
 2678TIP3    H229526   3.631   4.859  17.044  1.4757  0.2087 -2.5436
 2679TIP3   OH229527   5.619   3.059   0.805  0.3183 -0.3949 -0.4966
 2679TIP3    H129528   5.674   3.115   0.750 -0.4778  0.0233 -0.8703
 2679TIP3    H229529   5.681   3.001   0.850  1.1390  0.7250 -0.1798
 2680TIP3   OH229530   2.195   3.365   2.308  0.4623  0.0282 -0.5506
 2680TIP3    H129531   2.240   3.408   2.381 -0.9859  0.2595  0.2330
 2680TIP3    H229532   2.175   3.277   2.341 -1.2768  0.5291 -0.1945
 2681TIP3   OH229533   4.041   6.031  12.759 -0.2960  0.0049 -0.1323
 2681TIP3    H129534   4.032   6.011  12.852 -0.2122 -0.7988 -0.2893
 2681TIP3    H229535   4.087   5.956  12.723 -1.4433 -0.2868 -1.0406
 2682TIP3   OH229536   5.128   0.235   3.732 -0.7351  0.3413 -0.0821
 2682TIP3    H129537   5.216   0.232   3.696 -0.1353 -0.0661  1.4139
 2682TIP3    H229538   5.102   0.326   3.723  0.8999  1.0301  2.0090
 2683TIP3   OH229539   0.208   3.448   0.740  0.1413  0.0464  0.5029
 2683TIP3    H129540   0.122   3.444   0.697 -0.2454 -0.7426  1.3322
 2683TIP3    H229541   0.224   3.358   0.769  0.4290  0.5527  1.9524
 2684TIP3   OH229542   5.756   1.601  16.106 -0.3610  0.2406  1.0233
 2684TIP3    H129543   5.687   1.667  16.119 -0.0366  0.6800  0.5455
 2684TIP3    H229544   5.719   1.539  16.043  0.4424  1.6228 -0.8527
 2685TIP3   OH229545   1.296   4.920   5.491 -0.3854  0.4834 -0.5609
 2685TIP3    H129546   1.343   4.994   5.528  1.2092 -0.3073 -0.9329
 2685TIP3    H229547   1.322   4.845   5.544 -3.5653  0.4739  1.1048
 2686TIP3   OH229548   5.945   6.599   0.073 -0.3102 -0.1616  0.0590
 2686TIP3    H129549   5.953   6.516   0.026  1.2656  0.6652 -1.2047
 2686TIP3    H229550   5.931   6.574   0.164  1.7708 -1.8619 -0.0321
 2687TIP3   OH229551   6.544   4.621   5.974  0.3072  0.0280  0.2576
 2687TIP3    H129552   6.617   4.590   6.028  0.7682  0.9442  0.1620
 2687TIP3    H229553   6.578   4.619   5.885  0.2770  0.6329  0.2337
 2688TIP3   OH229554   6.816   0.748  13.883  0.5604 -0.0117  0.6816
 2688TIP3    H129555   6.825   0.841  13.902  0.6129  0.2906 -0.8104
 2688TIP3    H229556   6.751   0.717  13.946  0.3691  1.0784  1.0272
 2689TIP3   OH229557   2.479   0.379   2.780  0.1237 -0.0628  0.8838
 2689TIP3    H129558   2.426   0.340   2.849 -0.0999  0.8271  1.2241
 2689TIP3    H229559   2.432   0.459   2.755  0.4870 -0.0846  0.0891
 2690TIP3   OH229560   0.352   4.181  16.152 -0.5836 -0.2228  0.3224
 2690TIP3    H129561   0.445   4.158  16.145 -0.7273 -0.3748 -1.4131
 2690TIP3    H229562   0.351   4.277  16.150 -0.2859 -0.1092  3.2843
 2691TIP3   OH229563   3.179   6.286   1.533  0.2337 -0.3033  0.3284
 2691TIP3    H129564   3.123   6.362   1.514  0.5128  0.0720  0.9618
 2691TIP3    H229565   3.208   6.301   1.623  2.2921  0.1001 -0.3766
 2692TIP3   OH229566   3.866   4.894  11.151 -0.2002 -0.2287  0.3528
 2692TIP3    H129567   3.843   4.812  11.195 -0.6196 -0.6309 -0.6012
 2692TIP3    H229568   3.883   4.869  11.060  1.8452  0.4091  0.5439
 2693TIP3   OH229569   3.767   6.165  14.611  0.2069 -0.5343 -0.3983
 2693TIP3    H129570   3.743   6.236  14.671  0.0878 -0.1501 -0.8984
 2693TIP3    H229571   3.726   6.188  14.528  1.3077 -0.4809 -0.9333
 2694TIP3   OH229572   3.788   3.140  13.483 -0.0044 -0.3485  0.3960
 2694TIP3    H129573   3.744   3.087  13.416 -1.0025 -0.4592  1.1334
 2694TIP3    H229574   3.878   3.149  13.450 -0.4464 -0.4881 -0.9100
 2695TIP3   OH229575   1.941   3.482   3.378 -0.2972  0.5156  0.1327
 2695TIP3    H129576   2.003   3.428   3.329 -0.6501 -1.1517  1.4786
 2695TIP3    H229577   1.949   3.570   3.339  1.5094 -0.1133 -0.9523
 2696TIP3   OH229578   4.273   6.019  13.995 -0.0224 -0.5596  0.0233
 2696TIP3    H129579   4.295   6.112  13.987  0.9934 -0.8487 -0.6670
 2696TIP3    H229580   4.338   5.975  13.940  0.7653 -1.8475  1.9660
 2697TIP3   OH229581   2.197   1.962   6.088 -0.3325  0.4357  0.2781
 2697TIP3    H129582   2.265   1.896   6.104 -1.9945 -1.7328 -1.3961
 2697TIP3    H229583   2.192   2.010   6.171  0.8631 -1.5731  1.5871
 2698TIP3   OH229584   0.195   4.740  14.577 -0.4953 -0.0309  0.0648
 2698TIP3    H129585   0.227   4.766  14.490  1.5255  2.8952  1.5663
 2698TIP3    H229586   0.104   4.714  14.563 -0.4807  1.2735 -2.7843
 2699TIP3   OH229587   6.582   2.136  14.118 -0.1013 -0.1953  0.0253
 2699TIP3    H129588   6.495   2.101  14.101 -0.3265 -0.4728  1.6472
 2699TIP3    H229589   6.570   2.194  14.194  0.8826  0.8160 -0.5787
 2700TIP3   OH229590   1.863   3.778   4.833 -0.5037  0.3408  0.1214
 2700TIP3    H129591   1.868   3.767   4.928 -1.4173 -2.0761 -0.0787
 2700TIP3    H229592   1.952   3.758   4.803 -0.6364 -0.5984  0.3297
 2701TIP3   OH229593   0.830   6.265   2.903 -0.2595  0.2970 -0.2709
 2701TIP3    H129594   0.863   6.197   2.844  2.2943  0.4002  0.9802
 2701TIP3    H229595   0.905   6.323   2.917 -1.1600  0.9516  2.1149
 2702TIP3   OH229596   0.263   5.857   5.187 -0.0477  0.2154 -0.1743
 2702TIP3    H129597   0.316   5.784   5.219  0.7078  0.9524  0.2675
 2702TIP3    H229598   0.290   5.867   5.095 -0.1667 -0.0765 -0.2416
 2703TIP3   OH229599   3.916   1.111   5.344 -0.8809 -0.0840 -0.2158
 2703TIP3    H129600   3.854   1.095   5.273 -2.3127 -0.4747  1.0988
 2703TIP3    H229601   3.864   1.153   5.412  0.8606  1.8922 -0.0491
 2704TIP3   OH229602   0.069   3.256  13.465  0.4992 -0.2993 -1.2248
 2704TIP3    H129603   0.086   3.335  13.413  2.0436 -0.1206 -0.4658
 2704TIP3    H229604   0.155   3.225  13.490 -0.1779 -1.3396 -0.1661
 2705TIP3   OH229605   4.470   2.301  14.024  0.2686 -0.3556  0.0051
 2705TIP3    H129606   4.462   2.272  13.933 -0.9743 -0.0443  0.0126
 2705TIP3    H229607   4.380   2.311  14.054  0.6515  2.4336  0.3599
 2706TIP3   OH229608   6.082   6.142  13.936 -0.1153 -0.0740 -0.1273
 2706TIP3    H129609   6.147   6.211  13.925  0.9760 -1.0629 -0.0203
 2706TIP3    H229610   6.124   6.064  13.899 -0.1954 -1.2952  2.2448
 2707TIP3   OH229611   0.074   1.007   3.468  0.8089 -0.4968 -0.4837
 2707TIP3    H129612   0.158   0.965   3.487  1.7464  0.8711 -1.5648
 2707TIP3    H229613   0.094   1.101   3.465 -0.6075 -0.2141 -1.5237
 2708TIP3   OH229614   2.480   1.429   2.045 -0.2891 -0.4044  0.1165
 2708TIP3    H129615   2.437   1.461   2.125  1.1463 -0.7888  1.0472
 2708TIP3    H229616   2.555   1.487   2.033 -1.8672  1.2533 -2.3728
 2709TIP3   OH229617   6.173   6.747   2.220  0.5398 -0.3881 -0.4947
 2709TIP3    H129618   6.186   6.737   2.315 -0.3662  1.6625 -0.1238
 2709TIP3    H229619   6.224   6.676   2.182  1.8371 -0.5806  1.4862
 2710TIP3   OH229620   5.189   5.494   3.352 -0.5014  0.2470 -0.3613
 2710TIP3    H129621   5.225   5.420   3.401 -0.7593  0.5014  0.2132
 2710TIP3    H229622   5.120   5.529   3.408 -1.1175  0.2511 -1.1134
 2711TIP3   OH229623   5.457   5.458   0.763 -0.0810 -0.3009  0.3695
 2711TIP3    H129624   5.404   5.537   0.758 -0.8596 -0.8942 -0.8441
 2711TIP3    H229625   5.425   5.402   0.692  2.0464 -0.7363 -0.2781
 2712TIP3   OH229626   6.582   3.683   5.203 -0.0199  0.4032 -0.0977
 2712TIP3    H129627   6.595   3.716   5.292 -0.4590  1.8703 -0.5715
 2712TIP3    H229628   6.667   3.646   5.179  1.1792  3.1866 -0.3665
 2713TIP3   OH229629   1.301   1.985   3.122  0.5382  0.2770 -0.0475
 2713TIP3    H129630   1.298   1.988   3.218 -1.3876  1.1728 -0.1049
 2713TIP3    H229631   1.274   1.896   3.100  0.3081  0.2738  0.2431
 2714TIP3   OH229632   3.720   3.693  12.846  0.4824 -0.1327  0.1768
 2714TIP3    H129633   3.631   3.715  12.874  1.3314  1.4841  1.7243
 2714TIP3    H229634   3.745   3.618  12.899  0.8301  0.8047  1.3721
 2715TIP3   OH229635   0.663   5.691   1.933 -0.2848 -0.0914 -0.1806
 2715TIP3    H129636   0.602   5.654   1.870 -1.3566  0.2779  0.6257
 2715TIP3    H229637   0.637   5.653   2.017 -1.3563  2.3700  0.6443
 2716TIP3   OH229638   0.706   3.354   3.955 -0.0045 -0.3997 -0.2654
 2716TIP3    H129639   0.743   3.396   4.033  0.6225 -0.5258 -0.4945
 2716TIP3    H229640   0.705   3.423   3.889  2.9289 -1.2686 -1.2559
 2717TIP3   OH229641   2.603   6.662  12.342  0.5557 -0.3644  0.2530
 2717TIP3    H129642   2.667   6.696  12.404 -0.6334 -0.7876  1.7342
 2717TIP3    H229643   2.557   6.592  12.389  0.4569 -1.5291 -1.5051
 2718TIP3   OH229644   2.887   5.034  12.282 -0.5611 -0.5889 -0.4808
 2718TIP3    H129645   2.864   4.942  12.269 -1.4795 -0.9354  3.1470
 2718TIP3    H229646   2.982   5.034  12.289 -0.4240 -1.0123 -2.1212
 2719TIP3   OH229647   1.409   1.964  13.853  0.2468 -0.0876 -0.2958
 2719TIP3    H129648   1.446   1.937  13.770 -0.2752  0.4172 -0.7024
 2719TIP3    H229649   1.340   2.027  13.829  1.7378  1.9449  0.6282
 2720TIP3   OH229650   5.810   1.155   0.863 -0.1700  0.1235  0.1975
 2720TIP3    H129651   5.866   1.214   0.913  1.0406 -1.2863  0.5386
 2720TIP3    H229652   5.792   1.203   0.782  0.0354  1.3353  0.8556
 2721TIP3   OH229653   5.117   6.805  16.675 -0.4771 -0.5289 -0.0764
 2721TIP3    H129654   5.036   6.815  16.626 -0.8446 -1.5248  0.3196
 2721TIP3    H229655   5.090   6.807  16.767  0.2983  2.2144  0.1411
 2722TIP3   OH229656   2.773   3.496   2.280  0.1241  0.2093 -0.3752
 2722TIP3    H129657   2.714   3.444   2.225  0.1093 -0.5812  0.3735
 2722TIP3    H229658   2.736   3.584   2.279 -0.1412  0.0930 -1.2470
 2723TIP3   OH229659   6.083   3.907   0.950 -0.0093  0.5937  0.1979
 2723TIP3    H129660   6.140   3.833   0.926 -1.4154 -0.3112 -0.3812
 2723TIP3    H229661   6.109   3.976   0.889  0.5704  0.2334  0.0235
 2724TIP3   OH229662   2.827   0.164   0.382 -0.1760 -0.8612 -0.0844
 2724TIP3    H129663   2.893   0.231   0.367 -0.8320 -0.4143 -0.9870
 2724TIP3    H229664   2.748   0.197   0.340 -0.4465 -2.2999 -0.7651
 2725TIP3   OH229665   4.661   2.088  14.724  0.3310  0.3812  0.2944
 2725TIP3    H129666   4.634   2.111  14.813 -1.6978 -0.8159  0.0243
 2725TIP3    H229667   4.730   2.150  14.703 -2.0121  3.4033  1.1606
 2726TIP3   OH229668   5.264   0.831  14.760 -0.1424  0.0765  0.4610
 2726TIP3    H129669   5.250   0.926  14.751 -0.8633  0.1026  1.7150
 2726TIP3    H229670   5.178   0.796  14.781  0.3412 -0.7122  1.1466
 2727TIP3   OH229671   4.839   1.924  12.753 -0.4834 -0.7673  0.2308
 2727TIP3    H129672   4.870   1.935  12.842  2.0133 -1.7858 -0.4724
 2727TIP3    H229673   4.870   2.002  12.706 -1.1232 -0.6030  0.0723
 2728TIP3   OH229674   6.140   0.984   1.067  0.1812  0.4642  0.2265
 2728TIP3    H129675   6.146   0.894   1.100  3.4753 -0.3641 -2.3698
 2728TIP3    H229676   6.063   0.984   1.009  0.4670 -0.8513 -0.1612
 2729TIP3   OH229677   3.596   0.873   4.748 -0.5654  0.0095  0.6742
 2729TIP3    H129678   3.655   0.837   4.681  0.9880  1.1842  1.3911
 2729TIP3    H229679   3.554   0.947   4.705  1.0549  1.2813  1.2246
 2730TIP3   OH229680   4.153   1.092   6.304  0.3087 -0.3747  0.3323
 2730TIP3    H129681   4.070   1.046   6.313  0.8013 -1.1989  0.7622
 2730TIP3    H229682   4.210   1.031   6.258  0.3994  0.5533 -0.8188
 2731TIP3   OH229683   2.617   0.626  14.172  0.3113 -0.3762 -0.2590
 2731TIP3    H129684   2.562   0.621  14.250  0.6981 -1.3885 -0.0493
 2731TIP3    H229685   2.692   0.679  14.199  0.4475 -0.7280  0.0612
 2732TIP3   OH229686   6.763   2.786  17.016 -0.5319 -0.3132  0.7759
 2732TIP3    H129687   6.736   2.755  16.929  0.0749  0.2354  0.3945
 2732TIP3    H229688   6.713   2.867  17.029 -0.5049 -0.3132  0.8778
 2733TIP3   OH229689   1.804   2.407  11.753  0.5339  0.1973  0.4928
 2733TIP3    H129690   1.753   2.417  11.833  0.2225  0.6031  0.2453
 2733TIP3    H229691   1.783   2.485  11.701  2.0756  0.8185  0.7673
 2734TIP3   OH229692   5.020   6.587  15.600 -0.1157  0.3995 -0.1714
 2734TIP3    H129693   5.017   6.549  15.688  0.6791  2.5533  0.8098
 2734TIP3    H229694   5.020   6.511  15.541  0.8609 -1.1086  1.7146
 2735TIP3   OH229695   4.606   6.421   6.209  0.2574  0.5699  0.0748
 2735TIP3    H129696   4.586   6.329   6.223  0.4148  0.7060  1.3171
 2735TIP3    H229697   4.568   6.465   6.285 -2.3206  1.8870 -1.9150
 2736TIP3   OH229698   0.308   0.194  15.229  0.3238  0.2898 -0.2272
 2736TIP3    H129699   0.400   0.218  15.222 -0.1511  2.1429 -0.2008
 2736TIP3    H229700   0.284   0.217  15.318  0.4379 -2.4579  0.5811
 2737TIP3   OH229701   5.205   2.270   3.943  0.3423  0.2411  0.2817
 2737TIP3    H129702   5.186   2.262   3.850 -0.2149  2.4910  0.1893
 2737TIP3    H229703   5.292   2.232   3.953  0.0540 -0.7947 -0.9963
 2738TIP3   OH229704   2.105   0.088   3.569 -0.3246  0.2103  0.3162
 2738TIP3    H129705   2.018   0.106   3.606 -1.2014 -2.0783 -0.5608
 2738TIP3    H229706   2.125  -0.001   3.595  0.9999  0.1188 -0.9442
 2739TIP3   OH229707   6.555   1.385  13.817 -0.4061  0.3232  0.3375
 2739TIP3    H129708   6.585   1.369  13.906 -0.5702  3.4885  1.0252
 2739TIP3    H229709   6.462   1.406  13.826 -0.4347  0.6550 -0.6038
 2740TIP3   OH229710   1.884   1.395   1.758  0.5232  0.9024  0.8060
 2740TIP3    H129711   1.846   1.463   1.703 -1.1521 -0.1237  0.6519
 2740TIP3    H229712   1.895   1.320   1.699  1.8030  0.8481  1.1068
 2741TIP3   OH229713   2.468   5.785  14.271  0.7290  0.2527  0.2044
 2741TIP3    H129714   2.513   5.870  14.264  0.8160  0.2380  0.5647
 2741TIP3    H229715   2.506   5.744  14.349  1.5658 -0.6382 -0.6577
 2742TIP3   OH229716   6.302   1.529   1.755 -0.4979 -0.0295  1.1337
 2742TIP3    H129717   6.289   1.617   1.791 -0.3014  0.4585  0.0305
 2742TIP3    H229718   6.323   1.544   1.663  1.2567 -1.1413  1.3365
 2743TIP3   OH229719   3.274   6.478  13.338  0.2031 -0.0989 -0.2648
 2743TIP3    H129720   3.276   6.548  13.403  1.9288  0.8553 -1.3099
 2743TIP3    H229721   3.235   6.519  13.260 -0.2520 -0.7491 -0.3812
 2744TIP3   OH229722   6.747   5.889  11.238  0.6442 -0.0281 -0.0623
 2744TIP3    H129723   6.697   5.921  11.163  3.3966  2.6604 -0.8458
 2744TIP3    H229724   6.684   5.889  11.310 -1.3308  0.0443 -1.7415
 2745TIP3   OH229725   2.560   5.809   3.534  0.6756  0.1801 -0.1016
 2745TIP3    H129726   2.576   5.849   3.448 -0.0216  0.1039 -0.2669
 2745TIP3    H229727   2.648   5.795   3.570  1.0244 -0.8980 -1.3066
 2746TIP3   OH229728   1.759   1.842   6.669  0.4779 -0.3592  0.9344
 2746TIP3    H129729   1.693   1.776   6.691  1.2855 -1.0434  1.3260
 2746TIP3    H229730   1.720   1.924   6.697 -1.4225 -0.3872 -1.4502
 2747TIP3   OH229731   4.843   6.597   0.921  0.0783  0.1888  0.0688
 2747TIP3    H129732   4.933   6.629   0.921  0.1604  0.0346  2.3105
 2747TIP3    H229733   4.789   6.675   0.930  0.1323  0.0308  1.9015
 2748TIP3   OH229734   4.477   0.420  14.482 -0.6465 -0.5990 -0.1179
 2748TIP3    H129735   4.489   0.410  14.387  0.2970 -4.3751  0.3563
 2748TIP3    H229736   4.541   0.487  14.506 -1.1644  0.7127 -2.1546
 2749TIP3   OH229737   6.196   5.174  11.482 -0.2325  0.2077 -0.3040
 2749TIP3    H129738   6.120   5.193  11.538 -0.9297 -0.7025 -0.9160
 2749TIP3    H229739   6.198   5.078  11.477  0.2897  0.2595 -1.2019
 2750TIP3   OH229740   2.926   3.017   0.538 -0.0350  0.1504 -0.0347
 2750TIP3    H129741   2.958   2.993   0.451 -0.3064  0.0768 -0.1131
 2750TIP3    H229742   2.842   3.060   0.522 -0.4115 -0.4703  0.2419
 2751TIP3   OH229743   5.322   5.047   1.356 -0.1277 -0.7514  0.1012
 2751TIP3    H129744   5.239   5.084   1.384 -0.0865 -0.9305  0.4570
 2751TIP3    H229745   5.310   4.952   1.361  0.1230 -0.7785  0.2292
 2752TIP3   OH229746   0.520   6.508   6.194  0.2947  0.4740  0.3591
 2752TIP3    H129747   0.446   6.560   6.225 -0.5761 -0.8020  0.4833
 2752TIP3    H229748   0.492   6.417   6.208  1.2697 -0.0440 -1.0332
 2753TIP3   OH229749   4.417   1.689  14.286  0.9830 -0.2085 -0.2071
 2753TIP3    H129750   4.342   1.721  14.237  1.5990 -0.2260 -1.1671
 2753TIP3    H229751   4.398   1.596  14.301 -0.1150  0.2365  1.3089
 2754TIP3   OH229752   2.116   5.887   0.045  0.3404  0.2381 -0.0353
 2754TIP3    H129753   2.103   5.824  -0.026  1.4019 -0.2696  0.2117
 2754TIP3    H229754   2.070   5.966   0.015 -1.7856 -0.9186  0.0833
 2755TIP3   OH229755   1.503   1.395  16.597  0.3914 -0.4358  0.5820
 2755TIP3    H129756   1.550   1.327  16.644 -1.6866 -1.1123  1.7225
 2755TIP3    H229757   1.411   1.381  16.619 -0.4203  0.5781 -1.9498
 2756TIP3   OH229758   2.825   3.838   0.342  0.0027  0.1115  0.3036
 2756TIP3    H129759   2.790   3.921   0.311  1.2186  0.1660 -0.9738
 2756TIP3    H229760   2.804   3.836   0.436 -0.4652  1.6250  0.2315
 2757TIP3   OH229761   2.153   5.957   6.327 -0.1388 -0.5308  0.2319
 2757TIP3    H129762   2.118   6.015   6.259  0.8613  2.1565  1.9140
 2757TIP3    H229763   2.246   5.979   6.331  0.1835 -2.0238  1.1610
 2758TIP3   OH229764   4.445   1.406   0.320 -0.8352 -0.1716  0.1800
 2758TIP3    H129765   4.425   1.491   0.281 -0.6900 -1.4703 -2.8030
 2758TIP3    H229766   4.539   1.408   0.335 -0.9594  0.4934  0.9593
 2759TIP3   OH229767   2.540   1.363  17.217  0.0322 -0.7003 -0.0218
 2759TIP3    H129768   2.563   1.455  17.204 -0.0818 -0.8066 -0.9961
 2759TIP3    H229769   2.495   1.361  17.302  0.0101  0.1430 -0.0151
 2760TIP3   OH229770   6.166   6.495   5.948  0.1108 -0.0213 -0.3899
 2760TIP3    H129771   6.153   6.436   6.022  0.0445  1.7502  1.0290
 2760TIP3    H229772   6.246   6.464   5.907 -1.3994 -2.8332 -1.3643
 2761TIP3   OH229773   3.664   2.088  15.724 -0.4664 -0.1507  0.1087
 2761TIP3    H129774   3.617   2.049  15.798 -0.9122 -1.8860 -1.0625
 2761TIP3    H229775   3.599   2.092  15.654  0.1367  0.8479 -0.3913
 2762TIP3   OH229776   4.809   1.611   1.315 -0.1731  0.0053  0.4420
 2762TIP3    H129777   4.886   1.638   1.265 -1.1763 -1.4873 -1.9440
 2762TIP3    H229778   4.829   1.523   1.346 -1.4234 -0.9290 -1.3252
 2763TIP3   OH229779   3.376   0.076  13.733 -0.0250 -0.5379 -0.1224
 2763TIP3    H129780   3.388   0.112  13.821 -0.8594  1.0242 -0.6450
 2763TIP3    H229781   3.463   0.045  13.708  0.9663  2.0664 -0.0698
 2764TIP3   OH229782   5.893   6.061   3.588 -0.5912  0.2168 -0.3529
 2764TIP3    H129783   5.973   6.033   3.541 -1.3406  0.2010 -1.6499
 2764TIP3    H229784   5.873   6.147   3.552 -1.4787 -0.0247 -0.4495
 2765TIP3   OH229785   2.236   5.025  16.173  0.1602  0.0583  0.4819
 2765TIP3    H129786   2.319   5.072  16.168 -0.1640  0.7220  1.2552
 2765TIP3    H229787   2.236   4.967  16.097  0.5930  1.2351 -0.4196
 2766TIP3   OH229788   2.295   3.680  12.540 -0.4902 -0.2331 -0.0236
 2766TIP3    H129789   2.336   3.738  12.476  2.8686 -0.2661  1.9613
 2766TIP3    H229790   2.210   3.719  12.558 -1.0498  0.3603 -3.6645
 2767TIP3   OH229791   5.069   6.066   5.793  0.1657  0.3232 -0.3652
 2767TIP3    H129792   5.099   6.108   5.712  2.2699  0.8208  0.6280
 2767TIP3    H229793   5.000   6.006   5.765  2.4900 -1.2993 -2.8874
 2768TIP3   OH229794   5.341   6.435   3.695 -0.4375 -0.1094  0.2714
 2768TIP3    H129795   5.260   6.482   3.676  0.2633  0.8649 -0.3054
 2768TIP3    H229796   5.363   6.459   3.785  0.1746  1.0384 -0.1850
 2769TIP3   OH229797   0.800   5.718  10.372  0.3101  0.5513 -0.2164
 2769TIP3    H129798   0.743   5.654  10.329 -0.6833  2.3428 -1.5976
 2769TIP3    H229799   0.743   5.790  10.396  1.5908  1.3654  0.4580
 2770TIP3   OH229800   0.408   6.036   3.404  0.3106 -0.1367 -0.3395
 2770TIP3    H129801   0.487   6.033   3.459 -0.8180 -1.0829  1.2855
 2770TIP3    H229802   0.339   6.062   3.464 -0.3486  2.3185 -2.1190
 2771TIP3   OH229803   6.148   6.051  15.253 -0.0831 -1.2212 -0.5892
 2771TIP3    H129804   6.146   6.118  15.184 -1.0491 -0.8777 -0.2283
 2771TIP3    H229805   6.071   6.069  15.306 -0.6175 -2.9437 -0.7690
 2772TIP3   OH229806   0.279   3.135  11.873  0.0326 -0.0055  0.1952
 2772TIP3    H129807   0.207   3.081  11.907 -0.2208  0.2158  0.0139
 2772TIP3    H229808   0.355   3.077  11.874  0.0297  0.0009  1.1399
 2773TIP3   OH229809   1.301   0.983   4.804  0.6559  0.2980  0.0518
 2773TIP3    H129810   1.241   1.010   4.734  0.7165  1.2643  0.3711
 2773TIP3    H229811   1.326   1.064   4.847  1.6781 -0.1729  0.3500
 2774TIP3   OH229812   1.321   6.703   4.124  0.1932 -0.4921 -0.0265
 2774TIP3    H129813   1.300   6.663   4.040 -0.8842 -1.8372  0.8501
 2774TIP3    H229814   1.240   6.696   4.175  0.8301  0.2840  1.1291
 2775TIP3   OH229815   0.060   4.896  13.732  0.6133  0.0486  0.3784
 2775TIP3    H129816  -0.016   4.854  13.692  1.3535 -1.2287  0.2836
 2775TIP3    H229817   0.062   4.862  13.822  2.7483 -2.2593 -0.4732
 2776TIP3   OH229818   2.453   2.614   1.576  0.1002 -0.0365  0.4979
 2776TIP3    H129819   2.412   2.665   1.647  1.8394  0.0212  1.5051
 2776TIP3    H229820   2.538   2.587   1.613  0.6839 -0.6881 -1.2915
 2777TIP3   OH229821   6.589   1.105  15.298  0.9293  0.0544  0.9709
 2777TIP3    H129822   6.580   1.010  15.300 -1.6366  0.2437 -0.1709
 2777TIP3    H229823   6.629   1.124  15.213 -0.8692  0.1494  0.1332
 2778TIP3   OH229824   3.715   1.325  14.881 -0.2123  0.3431 -0.2556
 2778TIP3    H129825   3.757   1.383  14.818  1.0311 -1.5072 -1.1655
 2778TIP3    H229826   3.649   1.380  14.923  2.5584  3.1305  0.6673
 2779TIP3   OH229827   0.701   5.042   2.138 -0.1734  0.4848 -0.0579
 2779TIP3    H129828   0.674   5.049   2.046  1.8167 -0.9343 -0.7942
 2779TIP3    H229829   0.795   5.057   2.136  0.1149 -1.0091  1.5570
 2780TIP3   OH229830   3.359   6.622   0.071  0.2800  0.3516 -0.1909
 2780TIP3    H129831   3.426   6.609   0.004 -1.7217 -0.1997 -2.1788
 2780TIP3    H229832   3.332   6.533   0.095  1.0253  0.5471  1.4169
 2781TIP3   OH229833   3.249   4.522  13.316  0.0024  0.2831 -0.2909
 2781TIP3    H129834   3.328   4.574  13.301 -0.2142  0.5823 -0.3949
 2781TIP3    H229835   3.281   4.439  13.351  0.4904 -0.3641 -2.2695
 2782TIP3   OH229836   5.689   2.090  12.094 -0.2323  0.3118  0.8520
 2782TIP3    H129837   5.662   2.160  12.035 -1.4251 -1.3494 -0.5950
 2782TIP3    H229838   5.615   2.079  12.154 -0.6125 -0.6162  0.2238
 2783TIP3   OH229839   1.307   2.444   3.165 -0.0709  0.5365  0.0464
 2783TIP3    H129840   1.291   2.500   3.089 -0.4990 -1.0509 -1.0824
 2783TIP3    H229841   1.396   2.465   3.193 -0.4560  2.2129  0.0446
 2784TIP3   OH229842   4.123   0.860  12.978 -0.3322 -0.3001 -0.2771
 2784TIP3    H129843   4.124   0.777  13.025  0.1479 -0.9446 -1.4030
 2784TIP3    H229844   4.156   0.924  13.041  0.3572 -1.1603  0.2459
 2785TIP3   OH229845   4.913   3.472   4.680 -0.1942 -0.2860  0.4403
 2785TIP3    H129846   4.948   3.560   4.690 -0.1882 -0.2151 -0.1708
 2785TIP3    H229847   4.858   3.458   4.758 -0.8408  0.5641  0.1400
 2786TIP3   OH229848   2.399   4.128  15.753 -0.1260  0.3111 -0.2946
 2786TIP3    H129849   2.439   4.045  15.781  0.1372  0.7124  0.5431
 2786TIP3    H229850   2.361   4.109  15.667 -0.4451 -0.8020  0.0813
 2787TIP3   OH229851   2.419   1.978  14.593 -0.5601 -0.1749 -0.4176
 2787TIP3    H129852   2.511   1.989  14.570  0.0343 -1.0898  1.4899
 2787TIP3    H229853   2.417   1.901  14.650 -2.4507  0.0903 -0.0890
 2788TIP3   OH229854   2.387   0.971   3.736 -0.4417  0.1866  0.2184
 2788TIP3    H129855   2.309   0.989   3.683 -0.9638  0.2728  1.0006
 2788TIP3    H229856   2.400   1.052   3.786  0.3074  0.2652 -0.0982
 2789TIP3   OH229857   3.920   4.944  16.160  0.6321  0.1554 -0.8593
 2789TIP3    H129858   3.940   4.855  16.187 -1.7387 -0.1269  0.1158
 2789TIP3    H229859   3.832   4.939  16.122  1.0225  1.8347 -2.0766
 2790TIP3   OH229860   4.415   5.908  16.508  0.2254  0.5470 -0.4221
 2790TIP3    H129861   4.485   5.880  16.449 -0.1208 -0.5742 -0.3152
 2790TIP3    H229862   4.461   5.936  16.588  0.4881 -1.9854  0.3606
 2791TIP3   OH229863   0.835   1.620  15.712 -0.1081 -0.8045 -0.6568
 2791TIP3    H129864   0.832   1.685  15.642  1.4941  0.4193  0.3688
 2791TIP3    H229865   0.799   1.665  15.788  1.8981 -0.7540  0.3047
 2792TIP3   OH229866   2.554   3.335   5.082 -0.2371 -0.5235 -0.2906
 2792TIP3    H129867   2.538   3.328   4.988 -1.6137  2.5103 -0.3329
 2792TIP3    H229868   2.469   3.318   5.122  0.1715 -1.0051  0.3755
 2793TIP3   OH229869   4.575   2.118   4.185  0.3329 -0.4604  0.6633
 2793TIP3    H129870   4.581   2.046   4.248 -1.1352  0.0415  1.4035
 2793TIP3    H229871   4.528   2.081   4.110  1.1131 -0.7528  0.3169
 2794TIP3   OH229872   0.192   0.999   1.852 -0.7265  0.1512 -0.2274
 2794TIP3    H129873   0.187   0.922   1.909 -0.7113  0.1642 -0.2083
 2794TIP3    H229874   0.128   1.060   1.889  1.5058  1.4383  1.7141
 2795TIP3   OH229875   6.600   0.014  16.001 -0.0317  0.2172 -0.0954
 2795TIP3    H129876   6.623   0.074  15.930 -1.8473  0.1309 -0.7788
 2795TIP3    H229877   6.520   0.051  16.039 -1.5656 -2.0854 -0.9596
 2796TIP3   OH229878   4.667   6.616  17.243  0.3049 -0.1371  0.3849
 2796TIP3    H129879   4.727   6.638  17.314  1.8664 -0.8522 -0.6741
 2796TIP3    H229880   4.695   6.672  17.170 -1.8029  1.1884  0.5524
 2797TIP3   OH229881   3.030   0.470   3.002  0.3355 -0.3380  0.1483
 2797TIP3    H129882   3.041   0.519   2.921 -0.5142 -1.2265 -0.5218
 2797TIP3    H229883   3.035   0.536   3.071  2.9223  0.1802 -0.4888
 2798TIP3   OH229884   1.610   1.375   6.003 -0.8355 -0.0445  0.3144
 2798TIP3    H129885   1.674   1.344   6.067  0.2586  0.1013 -0.6890
 2798TIP3    H229886   1.530   1.326   6.022 -0.2908 -0.5444  1.2979
 2799TIP3   OH229887   0.709   1.123  16.456 -0.1369 -0.3204 -0.4527
 2799TIP3    H129888   0.679   1.047  16.408 -0.7671 -0.0507 -0.4915
 2799TIP3    H229889   0.687   1.105  16.547 -1.0688  0.1839 -0.5726
 2800TIP3   OH229890   5.179   3.466   1.381 -0.1005 -0.4951  0.4264
 2800TIP3    H129891   5.175   3.417   1.463 -0.4864 -2.1164 -0.5405
 2800TIP3    H229892   5.087   3.484   1.360 -0.1746 -2.6641 -1.1606
 2801TIP3   OH229893   4.668   5.113  10.675 -0.1014 -0.5589 -0.4069
 2801TIP3    H129894   4.619   5.104  10.757  1.1071 -1.3294  0.2449
 2801TIP3    H229895   4.629   5.189  10.632 -1.8500 -1.1401  0.1017
 2802TIP3   OH229896   1.573   4.877  14.388  0.0258  0.4124  0.1365
 2802TIP3    H129897   1.574   4.944  14.319 -1.6315 -0.5381 -0.8294
 2802TIP3    H229898   1.482   4.848  14.392  0.9615 -2.7340 -0.3734
 2803TIP3   OH229899   0.627   3.178   2.249 -0.3062  0.1258 -0.8564
 2803TIP3    H129900   0.648   3.215   2.335 -2.2086  0.3570 -0.4736
 2803TIP3    H229901   0.710   3.139   2.219  0.1429 -0.8759  1.5357
 2804TIP3   OH229902   5.541   2.212  11.166  0.5220  0.2063 -0.5351
 2804TIP3    H129903   5.571   2.284  11.110 -1.4288 -0.8204 -3.0314
 2804TIP3    H229904   5.464   2.246  11.210 -0.0527 -0.1216 -1.2646
 2805TIP3   OH229905   1.233   4.777   4.740  0.2642  0.8706 -0.1158
 2805TIP3    H129906   1.158   4.742   4.789  1.7200  0.4031  1.8494
 2805TIP3    H229907   1.232   4.871   4.759 -0.1066  0.9352 -0.4658
 2806TIP3   OH229908   3.454   5.625  17.017 -0.4720 -0.3981 -0.0524
 2806TIP3    H129909   3.443   5.699  17.077  0.0236 -0.7078  0.4189
 2806TIP3    H229910   3.366   5.588  17.008 -0.3776 -0.9654  1.2747
 2807TIP3   OH229911   4.948   1.348   0.041  0.1078  0.3680  0.0219
 2807TIP3    H129912   4.868   1.390   0.009  0.4156  1.1171  0.2214
 2807TIP3    H229913   4.980   1.298  -0.033 -0.4678  0.1926 -0.1091
 2808TIP3   OH229914   4.780   4.382   5.322 -0.0104  0.5410 -0.2343
 2808TIP3    H129915   4.726   4.411   5.395 -1.3112 -0.4593 -0.7718
 2808TIP3    H229916   4.827   4.306   5.357 -0.7260 -0.0129 -0.4701
 2809TIP3   OH229917   0.231   1.968  15.589 -0.0488  0.2040  0.1946
 2809TIP3    H129918   0.247   1.927  15.674 -0.2017 -0.3861 -0.0579
 2809TIP3    H229919   0.188   1.900  15.537  2.2507 -0.2587 -1.1773
 2810TIP3   OH229920   1.567   5.014  12.027  0.0007  0.1994 -0.6492
 2810TIP3    H129921   1.489   5.038  11.977 -0.8604 -0.9310  0.1064
 2810TIP3    H229922   1.564   5.071  12.104 -0.5961 -0.4842 -0.1617
 2811TIP3   OH229923   2.473   2.292  14.409  0.6426 -0.9657  0.2326
 2811TIP3    H129924   2.431   2.292  14.495  0.0521 -0.9178 -0.0502
 2811TIP3    H229925   2.514   2.378  14.403  0.9232 -1.0747  0.5801
 2812TIP3   OH229926   2.162   3.021  11.680 -0.4448  0.0653 -0.4568
 2812TIP3    H129927   2.147   2.939  11.634 -1.2965 -0.0609  0.0373
 2812TIP3    H229928   2.226   3.067  11.627 -0.8781 -0.3953 -1.3828
 2813TIP3   OH229929   1.267   1.651   5.185  0.1879 -0.0782 -0.4348
 2813TIP3    H129930   1.293   1.698   5.105  4.0866 -0.0169  0.7779
 2813TIP3    H229931   1.233   1.719   5.243  0.4034  0.3695 -0.8270
 2814TIP3   OH229932   3.509   2.066  14.992  0.4490 -0.4726 -0.2011
 2814TIP3    H129933   3.471   2.142  14.947  1.8529  0.6097  0.4291
 2814TIP3    H229934   3.599   2.063  14.961  0.2435 -2.2238 -0.6408
 2815TIP3   OH229935   0.760   2.965  12.387  0.5147 -0.5170  0.0587
 2815TIP3    H129936   0.842   2.937  12.345  1.0468  1.9744 -0.6315
 2815TIP3    H229937   0.788   2.998  12.473  0.0742 -0.6435  0.2518
 2816TIP3   OH229938   6.061   4.577  16.102  0.1627 -0.7863 -0.3585
 2816TIP3    H129939   6.117   4.649  16.131 -1.1416  0.5310 -1.0070
 2816TIP3    H229940   6.076   4.508  16.166 -0.9980  1.2670  2.2438
 2817TIP3   OH229941   3.511   1.344   0.640 -0.7872  0.1782 -0.1847
 2817TIP3    H129942   3.467   1.299   0.713 -2.0435  1.2487 -0.2829
 2817TIP3    H229943   3.495   1.437   0.656 -1.7356  0.3848 -2.2490
 2818TIP3   OH229944   1.713   1.485   2.011  0.3603 -0.9231  0.4778
 2818TIP3    H129945   1.722   1.580   2.011  1.9450 -1.0561  0.0230
 2818TIP3    H229946   1.732   1.459   1.921 -2.0113 -1.5322  0.1001
 2819TIP3   OH229947   6.419   0.746   2.412 -0.4947  0.7403  0.2182
 2819TIP3    H129948   6.496   0.799   2.430  1.0579 -1.1531 -0.6733
 2819TIP3    H229949   6.377   0.734   2.497  0.9737  0.6132  0.9284
 2820TIP3   OH229950   2.123   5.237   0.109  0.5125  0.0056 -0.0192
 2820TIP3    H129951   2.065   5.212   0.181  0.4899  0.3791  0.0922
 2820TIP3    H229952   2.174   5.158   0.091 -1.3554 -0.9204 -1.4034
 2821TIP3   OH229953   3.699   2.271  12.504 -0.0949 -0.4687 -0.4618
 2821TIP3    H129954   3.741   2.328  12.569 -0.2766 -1.4510  0.5316
 2821TIP3    H229955   3.607   2.271  12.530 -0.4332  0.3136 -1.6163
 2822TIP3   OH229956   5.341   0.177   4.146  0.9282 -0.5919  0.4435
 2822TIP3    H129957   5.369   0.191   4.056 -0.8240 -1.6724 -0.2969
 2822TIP3    H229958   5.368   0.087   4.166 -2.3315 -1.8592 -0.4749
 2823TIP3   OH229959   3.267   3.599  12.306 -0.2364  0.6600 -0.0278
 2823TIP3    H129960   3.298   3.672  12.251 -1.7078  1.6626  0.4333
 2823TIP3    H229961   3.324   3.526  12.283  0.1972  1.4995 -1.7358
 2824TIP3   OH229962   6.441   3.583  14.394  0.0211 -0.1202  0.2690
 2824TIP3    H129963   6.500   3.612  14.464  0.5260 -0.2795 -0.0880
 2824TIP3    H229964   6.353   3.589  14.433  0.1773  1.1779  0.4388
 2825TIP3   OH229965   4.034   1.181   0.519  0.2287 -0.1152  0.9114
 2825TIP3    H129966   4.018   1.115   0.452  1.5096  0.7119 -0.2525
 2825TIP3    H229967   3.953   1.184   0.570 -0.3780 -1.5178  0.0735
 2826TIP3   OH229968   5.520   3.674  16.611  1.0526 -0.0683 -0.4452
 2826TIP3    H129969   5.595   3.726  16.584 -0.4398  1.8872 -0.9499
 2826TIP3    H229970   5.510   3.693  16.705  1.3678 -0.5357 -0.3222
 2827TIP3   OH229971   0.987   1.615   2.315  0.3173 -0.4542 -0.0991
 2827TIP3    H129972   1.009   1.630   2.223 -0.5218 -0.2702 -0.2695
 2827TIP3    H229973   1.047   1.544   2.342 -0.4608 -1.5577 -1.2077
 2828TIP3   OH229974   5.101   2.564   4.608  0.0812 -0.1749  0.4404
 2828TIP3    H129975   5.058   2.480   4.619  1.0653 -0.8529 -0.8430
 2828TIP3    H229976   5.094   2.583   4.515 -1.3643  1.8509  0.9193
 2829TIP3   OH229977   4.580   2.650   0.297 -0.4645 -0.1558 -0.2761
 2829TIP3    H129978   4.557   2.566   0.259  0.9618 -0.3482 -0.7166
 2829TIP3    H229979   4.645   2.688   0.237 -0.6921  1.0154  0.1921
 2830TIP3   OH229980   4.507   2.145  14.437  0.0876  0.4863  0.2176
 2830TIP3    H129981   4.570   2.135  14.508  0.2104 -1.1781 -0.1016
 2830TIP3    H229982   4.428   2.179  14.479  1.3490  3.1387  0.5301
 2831TIP3   OH229983   4.445   5.483  12.773 -0.0296  0.0798 -0.3531
 2831TIP3    H129984   4.506   5.557  12.773 -1.2310  1.1056  1.3837
 2831TIP3    H229985   4.360   5.523  12.755 -0.5463 -1.0417 -0.4239
 2832TIP3   OH229986   3.839   0.922  12.326  0.3079 -0.0867 -0.4147
 2832TIP3    H129987   3.855   0.981  12.252  0.7162 -0.9220 -0.9959
 2832TIP3    H229988   3.892   0.845  12.307 -0.4795 -0.7809  0.1823
 2833TIP3   OH229989   4.979   4.299  15.137  0.6799  0.4916 -0.3774
 2833TIP3    H129990   4.997   4.235  15.068 -2.1295 -0.0160 -0.6910
 2833TIP3    H229991   4.898   4.342  15.110  0.6123  1.6907  1.6021
 2834TIP3   OH229992   2.348   1.241  15.976 -0.4155 -0.5416  0.3539
 2834TIP3    H129993   2.357   1.334  16.000  0.2777 -0.5172  0.0176
 2834TIP3    H229994   2.267   1.237  15.927  0.0379  0.0694 -0.4655
 2835TIP3   OH229995   1.527   5.474   1.300 -0.5179 -0.4057  0.2911
 2835TIP3    H129996   1.455   5.531   1.272 -1.2061 -0.7407  1.3685
 2835TIP3    H229997   1.544   5.418   1.224 -1.9139 -0.8510  0.3037
 2836TIP3   OH229998   5.654   2.040  14.767  0.1427 -0.0287  0.2053
 2836TIP3    H129999   5.685   2.061  14.678 -0.8056 -0.4509 -0.2346
 2836TIP3    H230000   5.666   1.945  14.774  2.3737  0.3142  1.3843
 2837TIP3   OH230001   3.167   0.652  16.477 -0.3984  0.1118  0.3486
 2837TIP3    H130002   3.145   0.660  16.384  2.2336 -1.5084 -0.4578
 2837TIP3    H230003   3.176   0.742  16.507 -0.4529  0.6471 -1.1873
 2838TIP3   OH230004   0.722   1.614  10.905  0.9531  0.8540  0.0402
 2838TIP3    H130005   0.672   1.590  10.828  1.6771  1.4093 -0.6134
 2838TIP3    H230006   0.771   1.535  10.928 -1.8138 -0.3677  1.9681
 2839TIP3   OH230007   1.892   5.571  14.838 -0.1310  0.4067  0.1089
 2839TIP3    H130008   1.808   5.616  14.829 -0.8840 -1.0620 -0.2744
 2839TIP3    H230009   1.904   5.562  14.933  0.7068  2.6431  0.2436
 2840TIP3   OH230010   5.488   5.570  12.294 -0.9290 -0.0341 -0.0225
 2840TIP3    H130011   5.576   5.539  12.314 -0.6662  0.9631  0.3728
 2840TIP3    H230012   5.495   5.607  12.206 -0.7336  0.9056  0.3873
 2841TIP3   OH230013   2.694   5.438  12.910  0.4312  0.5168  0.1160
 2841TIP3    H130014   2.747   5.391  12.845 -1.0304  0.1907 -0.8774
 2841TIP3    H230015   2.699   5.384  12.988  2.2064  0.9050  0.2802
 2842TIP3   OH230016   5.882   4.406  14.439 -0.2107 -0.7358 -0.0417
 2842TIP3    H130017   5.851   4.452  14.517  0.5578  1.2157 -0.8656
 2842TIP3    H230018   5.976   4.395  14.454  0.2271  1.0199 -1.3499
 2843TIP3   OH230019   1.216   0.319   0.981 -0.2083 -0.2279 -0.5770
 2843TIP3    H130020   1.174   0.346   0.899  0.1960  1.0034 -0.3851
 2843TIP3    H230021   1.292   0.377   0.990 -0.2995 -0.2826  0.7089
 2844TIP3   OH230022   4.707   4.450  10.633  0.5428 -0.4243 -0.3317
 2844TIP3    H130023   4.635   4.509  10.613  1.4217  0.8825  0.2378
 2844TIP3    H230024   4.768   4.460  10.560  1.4160  0.5786  0.5043
 2845TIP3   OH230025   0.003   3.548   5.267 -0.2237  0.4579  0.4338
 2845TIP3    H130026   0.083   3.592   5.297  0.7086  0.1987 -1.5700
 2845TIP3    H230027   0.033   3.465   5.230 -1.7608 -0.9635  2.3091
 2846TIP3   OH230028   1.650   6.319  16.478  0.2624  0.7298  0.4251
 2846TIP3    H130029   1.732   6.273  16.496  0.5887  1.2302  0.2160
 2846TIP3    H230030   1.676   6.397  16.431 -0.2849  1.2170  0.9228
 2847TIP3   OH230031   2.961   4.291  14.690 -0.0448 -0.8357 -0.3250
 2847TIP3    H130032   2.914   4.348  14.750 -2.2002  0.0402 -2.7808
 2847TIP3    H230033   3.039   4.340  14.666  0.6642 -1.0505  1.4249
 2848TIP3   OH230034   5.147   4.324   5.304 -0.5457 -0.1429 -0.4091
 2848TIP3    H130035   5.170   4.393   5.242 -0.9127  0.6235  0.2944
 2848TIP3    H230036   5.089   4.266   5.256 -1.1198  0.6479 -0.6706
 2849TIP3   OH230037   5.969   3.859   2.628 -0.6861 -0.3456 -0.8118
 2849TIP3    H130038   5.987   3.786   2.569 -1.1767 -0.2077 -1.1399
 2849TIP3    H230039   5.875   3.875   2.617 -0.4908  0.6025 -1.0406
 2850TIP3   OH230040   1.845   0.892  16.429  0.3633  0.0968 -0.7013
 2850TIP3    H130041   1.822   0.918  16.518 -0.9309 -1.1608 -0.6472
 2850TIP3    H230042   1.938   0.871  16.433  0.2863 -0.0374  0.3754
 2851TIP3   OH230043   3.130   2.369  16.225  0.3411  0.1995  0.0503
 2851TIP3    H130044   3.079   2.442  16.191  0.2840 -0.4781 -1.3754
 2851TIP3    H230045   3.220   2.403  16.230 -0.1129  1.2081  2.0202
 2852TIP3   OH230046   6.195   3.421   5.712  0.2843 -0.3142  0.2794
 2852TIP3    H130047   6.176   3.490   5.649  1.3611  0.0707  0.3786
 2852TIP3    H230048   6.193   3.465   5.797 -1.0901 -0.8176  0.5276
 2853TIP3   OH230049   0.428   4.224   0.734 -0.1256  0.1324 -0.6855
 2853TIP3    H130050   0.424   4.185   0.821 -0.2817  1.9492  0.1469
 2853TIP3    H230051   0.503   4.182   0.691 -0.7000 -1.5475 -0.0796
 2854TIP3   OH230052   4.023   3.238   4.153  0.2496  0.2800  0.3102
 2854TIP3    H130053   4.105   3.245   4.203  0.3188  1.2660  0.0646
 2854TIP3    H230054   3.959   3.287   4.204 -0.6915 -2.0984  1.4962
 2855TIP3   OH230055   1.961   5.105  12.214  0.6613 -0.4290 -0.6776
 2855TIP3    H130056   1.921   5.163  12.149 -0.8318 -2.4779 -1.6571
 2855TIP3    H230057   1.900   5.108  12.288  2.5515  2.2023  0.8733
 2856TIP3   OH230058   3.943   6.121   1.402 -0.3939  0.4824 -0.0896
 2856TIP3    H130059   3.969   6.129   1.310  0.0454  0.4957  0.0331
 2856TIP3    H230060   4.025   6.127   1.450 -0.1234 -3.4515  0.0799
 2857TIP3   OH230061   0.048   4.876  13.198  0.3005 -0.6356  0.8728
 2857TIP3    H130062   0.040   4.782  13.211  0.8877 -0.3686  3.4289
 2857TIP3    H230063   0.082   4.909  13.281  0.0299  1.8479  0.0435
 2858TIP3   OH230064   0.440   1.583   2.414 -0.0586  0.1752 -0.1657
 2858TIP3    H130065   0.525   1.619   2.439 -0.4690  1.9378 -1.1543
 2858TIP3    H230066   0.434   1.500   2.460  1.3429  0.9656  1.5004
 2859TIP3   OH230067   0.397   5.423  12.457  0.1240  0.2354  0.8815
 2859TIP3    H130068   0.325   5.486  12.465 -1.2654 -1.1603 -0.3492
 2859TIP3    H230069   0.467   5.461  12.510  0.3731  4.2434 -2.1299
 2860TIP3   OH230070   5.213   5.175   4.102 -0.8319 -0.0922  0.4792
 2860TIP3    H130071   5.181   5.220   4.024 -0.2601  1.2849  1.0056
 2860TIP3    H230072   5.221   5.245   4.168  1.3362 -0.7220  0.9359
 2861TIP3   OH230073   4.071   3.893  14.465  0.0935 -0.0109  0.2467
 2861TIP3    H130074   3.982   3.871  14.438 -0.2655 -1.4608  2.4023
 2861TIP3    H230075   4.062   3.923  14.556  1.9256 -1.6021  1.0103
 2862TIP3   OH230076   5.220   4.659   2.926  0.2731  1.3804  0.3251
 2862TIP3    H130077   5.230   4.660   3.021  2.2783  0.4205  0.1358
 2862TIP3    H230078   5.307   4.641   2.892 -0.4742  1.4088 -1.7054
 2863TIP3   OH230079   4.206   4.939   3.660  0.5456  0.3677  0.4502
 2863TIP3    H130080   4.116   4.965   3.680  1.0353  2.0379  0.5529
 2863TIP3    H230081   4.204   4.916   3.567 -0.2520 -0.8374  0.7539
 2864TIP3   OH230082   6.725   2.695  11.132 -0.2208  0.3579  0.8333
 2864TIP3    H130083   6.696   2.612  11.169  0.6967  0.0657  0.9067
 2864TIP3    H230084   6.708   2.688  11.038 -1.0965  0.4959  0.9717
 2865TIP3   OH230085   5.198   3.921   5.000 -0.0798 -0.0319  0.8895
 2865TIP3    H130086   5.280   3.901   4.954 -0.1339  0.5167  0.5561
 2865TIP3    H230087   5.184   3.846   5.057  0.4607 -0.3027  0.6686
 2866TIP3   OH230088   0.069   1.600  16.167  0.9061  0.8048 -0.4335
 2866TIP3    H130089   0.041   1.540  16.237  0.7989  1.3953  0.0339
 2866TIP3    H230090   0.066   1.547  16.088 -0.1297  0.4441 -0.1686
 2867TIP3   OH230091   5.227   2.539   1.777 -0.2681 -0.4459 -0.0048
 2867TIP3    H130092   5.230   2.586   1.861 -2.4307 -0.3780  0.0658
 2867TIP3    H230093   5.147   2.487   1.782 -0.0934 -0.9077 -1.8018
 2868TIP3   OH230094   2.039   5.896  16.043 -0.1151  0.1345 -0.2609
 2868TIP3    H130095   2.062   5.973  16.094  0.0819  1.4494 -2.2611
 2868TIP3    H230096   2.072   5.915  15.955  0.9894 -2.7531 -0.5237
 2869TIP3   OH230097   5.519   4.609  16.035 -0.6034  0.2277  0.1615
 2869TIP3    H130098   5.602   4.589  16.078 -0.3913 -0.6124 -0.6262
 2869TIP3    H230099   5.540   4.677  15.971 -0.6474  0.4864  0.4217
 2870TIP3   OH230100   1.315   6.286  14.632  0.0173 -0.5531 -0.6116
 2870TIP3    H130101   1.361   6.363  14.596 -0.2792  1.6855  3.5319
 2870TIP3    H230102   1.252   6.263  14.564 -0.7464  3.6785 -1.4956
 2871TIP3   OH230103   5.337   0.388  16.336  0.1767  0.8410  0.3926
 2871TIP3    H130104   5.344   0.358  16.245 -1.1218  0.5362  0.3853
 2871TIP3    H230105   5.286   0.319  16.379  1.9260  0.3117  1.6741
 2872TIP3   OH230106   4.455   4.550   3.908  0.0622 -0.7451 -0.0215
 2872TIP3    H130107   4.542   4.531   3.874 -0.3688 -3.5317  0.3541
 2872TIP3    H230108   4.436   4.638   3.875  1.4264 -1.6049 -3.3300
 2873TIP3   OH230109   2.936   0.816   4.197 -0.2094  0.6300  0.2435
 2873TIP3    H130110   3.016   0.868   4.200 -0.5996  1.1375  2.2870
 2873TIP3    H230111   2.891   0.836   4.279 -2.9478  1.1435 -1.3418
 2874TIP3   OH230112   2.830   6.659  12.015  0.5329 -0.0401 -0.4138
 2874TIP3    H130113   2.900   6.614  11.968  0.7208  1.0776 -1.2259
 2874TIP3    H230114   2.749   6.630  11.972  0.2894 -2.9492  1.8531
 2875TIP3   OH230115   0.765   0.051   2.594 -0.3533  0.2793 -0.2923
 2875TIP3    H130116   0.739   0.051   2.687 -0.3832 -1.2280 -0.2727
 2875TIP3    H230117   0.859   0.033   2.596 -0.1858  1.1419 -0.5218
 2876TIP3   OH230118   0.939   4.913   0.848 -0.2986 -0.4801 -0.0364
 2876TIP3    H130119   0.843   4.909   0.852 -0.2361 -1.5560  0.5261
 2876TIP3    H230120   0.960   5.000   0.883 -1.1427  0.4082 -1.6894
 2877TIP3   OH230121   2.256   4.363  15.759  0.3233  0.1081 -0.3435
 2877TIP3    H130122   2.299   4.410  15.831 -0.9342 -0.9358  1.1081
 2877TIP3    H230123   2.316   4.291  15.738 -0.8665 -1.6200  1.9830
 2878TIP3   OH230124   3.263   1.983   4.709  0.1631  0.2935  0.1770
 2878TIP3    H130125   3.225   1.976   4.621  0.9512  1.0869 -0.2428
 2878TIP3    H230126   3.357   1.968   4.695  0.2608  0.2129  0.9141
 2879TIP3   OH230127   3.324   1.518  16.365  0.1080 -0.3591  0.2652
 2879TIP3    H130128   3.246   1.522  16.310  1.3355 -0.5021 -1.5310
 2879TIP3    H230129   3.355   1.608  16.370 -0.8433 -0.1032  2.0162
 2880TIP3   OH230130   2.851   3.895   5.436  0.0053  0.3135 -0.2149
 2880TIP3    H130131   2.870   3.844   5.515  1.5240  2.3154  0.7545
 2880TIP3    H230132   2.855   3.832   5.364  0.5849 -1.1587  1.0935
 2881TIP3   OH230133   5.404   1.412   2.130  0.0629 -0.5797 -0.1243
 2881TIP3    H130134   5.444   1.493   2.099 -1.2730  0.2601  0.2491
 2881TIP3    H230135   5.433   1.404   2.221 -1.5160  0.6879  0.5410
 2882TIP3   OH230136   4.067   6.088  16.748  0.1952 -0.3453  0.3665
 2882TIP3    H130137   4.143   6.146  16.750  0.2123 -0.4120  1.6838
 2882TIP3    H230138   4.095   6.009  16.793 -0.4261 -0.6616  0.2106
 2883TIP3   OH230139   0.380   3.278   0.082  0.3001  0.5071  0.0531
 2883TIP3    H130140   0.396   3.184   0.095  0.3547  0.4661 -0.3273
 2883TIP3    H230141   0.417   3.319   0.160  0.7485  0.2585 -0.0301
 2884TIP3   OH230142   6.756   2.931   4.974  0.0825  0.6299 -0.0135
 2884TIP3    H130143   6.813   2.855   4.962 -0.1416  0.6353 -1.2453
 2884TIP3    H230144   6.724   2.924   5.063  2.1239  0.6995  0.7670
 2885TIP3   OH230145   5.804   6.356   4.423 -0.1498  0.1735  0.7626
 2885TIP3    H130146   5.851   6.350   4.506 -0.6297  0.4624  1.0598
 2885TIP3    H230147   5.751   6.276   4.419  0.7458 -0.4001  0.1851
 2886TIP3   OH230148   1.619   4.435   6.652  0.3348  0.3971 -0.3730
 2886TIP3    H130149   1.621   4.416   6.746 -3.0004  1.4836 -0.0045
 2886TIP3    H230150   1.684   4.504   6.641 -0.2698  1.2987  1.4183
 2887TIP3   OH230151   5.802   4.994   4.024  0.2322  0.6190  0.5185
 2887TIP3    H130152   5.727   5.002   3.965  0.7337  0.7105 -0.1259
 2887TIP3    H230153   5.789   5.064   4.088  0.3468  1.3768 -0.2623
 2888TIP3   OH230154   6.545   0.111   4.299  0.3450 -0.2982 -0.0402
 2888TIP3    H130155   6.464   0.080   4.340  1.1328 -0.5760  1.3126
 2888TIP3    H230156   6.558   0.053   4.224  0.4985 -1.7027  1.0617
 2889TIP3   OH230157   1.797   6.142  17.049  0.2943  0.6736 -0.6223
 2889TIP3    H130158   1.704   6.121  17.049 -0.0235  1.9944 -0.4604
 2889TIP3    H230159   1.838   6.075  16.994 -0.4827 -1.0151  0.8570
 2890TIP3   OH230160   0.261   5.257   2.844  0.3240  0.5765 -0.2147
 2890TIP3    H130161   0.347   5.218   2.828  0.0522 -0.6272  1.1854
 2890TIP3    H230162   0.271   5.348   2.816  2.0839  0.4794  0.0193
 2891TIP3   OH230163   3.537   5.955   3.015  0.1691 -0.0318  0.7343
 2891TIP3    H130164   3.614   5.913   3.054 -0.8897 -1.7016  1.0426
 2891TIP3    H230165   3.572   6.008   2.943  1.5548 -1.0957  0.6130
 2892TIP3   OH230166   2.496   1.623  11.831 -0.5507  0.2295  0.1174
 2892TIP3    H130167   2.569   1.576  11.870 -0.9949 -2.9801 -2.6802
 2892TIP3    H230168   2.535   1.702  11.793  1.0242 -0.2375  0.7303
 2893TIP3   OH230169   6.218   0.716  13.608 -0.5110  0.0065 -0.5342
 2893TIP3    H130170   6.264   0.681  13.532 -0.3896 -0.7841 -0.0988
 2893TIP3    H230171   6.286   0.727  13.674 -0.7056  0.2250 -0.3690
 2894TIP3   OH230172   6.104   0.525  15.970  0.1347 -0.0080  0.0832
 2894TIP3    H130173   6.087   0.498  15.879  0.2802 -2.5927  0.7795
 2894TIP3    H230174   6.017   0.540  16.007  0.0681  0.9056 -0.4366
 2895TIP3   OH230175   5.373   3.292   5.432  0.2276 -0.0060 -0.4773
 2895TIP3    H130176   5.354   3.204   5.465 -0.6007  0.2099 -0.3693
 2895TIP3    H230177   5.330   3.351   5.494  2.9192  0.5949  0.9376
 2896TIP3   OH230178   6.265   2.145   4.906  0.7270 -0.9131 -0.3969
 2896TIP3    H130179   6.222   2.201   4.971  0.4297  0.4001 -1.6796
 2896TIP3    H230180   6.336   2.198   4.872  1.5803 -2.0127 -0.3579
 2897TIP3   OH230181   6.384   3.067  17.104  0.0850 -0.5512  0.2354
 2897TIP3    H130182   6.468   3.104  17.078 -1.1103  0.5575 -2.1855
 2897TIP3    H230183   6.352   3.124  17.174 -0.0293  0.7969 -0.9093
 2898TIP3   OH230184   5.247   2.855  12.804 -0.0313  0.1286 -0.5208
 2898TIP3    H130185   5.222   2.941  12.770  0.4685  1.0776  1.4577
 2898TIP3    H230186   5.167   2.822  12.845 -0.5872 -0.9415 -2.4195
 2899TIP3   OH230187   2.143   3.750   2.232 -0.0783 -0.1225  0.0514
 2899TIP3    H130188   2.087   3.676   2.256 -1.5768  1.4002  1.3690
 2899TIP3    H230189   2.211   3.752   2.299 -0.3272  0.0030  0.2997
 2900TIP3   OH230190   3.315   6.435  15.009  0.2486  0.3546  0.0680
 2900TIP3    H130191   3.225   6.410  14.988  0.4090  0.0040 -0.2119
 2900TIP3    H230192   3.315   6.531  15.005 -0.7065  0.4883  2.5204
 2901TIP3   OH230193   6.144   0.916  14.053  0.0712 -0.1772 -0.6275
 2901TIP3    H130194   6.203   0.844  14.076 -1.3898 -1.2552 -0.2353
 2901TIP3    H230195   6.059   0.875  14.041 -0.7980  1.5052 -0.3372
 2902TIP3   OH230196   0.164   3.572  17.273  0.2143 -0.5686 -0.1836
 2902TIP3    H130197   0.184   3.481  17.253  0.3370 -0.2403 -1.6254
 2902TIP3    H230198   0.077   3.569  17.314  0.7166 -1.4330  0.8348
 2903TIP3   OH230199   2.014   4.516   6.621 -0.1919  0.0747  0.3144
 2903TIP3    H130200   2.038   4.601   6.584 -1.3816  0.5434  0.5873
 2903TIP3    H230201   2.079   4.456   6.587  0.6078  1.0804  0.0291
 2904TIP3   OH230202   1.520   4.285   4.380 -0.4873  0.2037 -0.0548
 2904TIP3    H130203   1.457   4.228   4.423  0.4037 -0.3265  0.5577
 2904TIP3    H230204   1.477   4.370   4.374 -0.7970  0.1481  1.4368
 2905TIP3   OH230205   1.263   1.038  14.641  0.1550  0.2716  0.0999
 2905TIP3    H130206   1.287   0.945  14.635  1.9130  0.7200 -0.1907
 2905TIP3    H230207   1.185   1.046  14.585 -2.1508 -1.6894  2.8659
 2906TIP3   OH230208   2.313   4.140   4.683  0.3548  0.4912  0.0239
 2906TIP3    H130209   2.405   4.141   4.709  0.7768 -2.1445 -1.2322
 2906TIP3    H230210   2.270   4.082   4.745 -0.1041  0.2557 -0.5096
 2907TIP3   OH230211   3.696   4.658   5.534 -0.2037 -0.0368 -0.1024
 2907TIP3    H130212   3.614   4.703   5.550 -0.1040 -0.3310  1.3201
 2907TIP3    H230213   3.756   4.693   5.600  0.6598 -0.2088 -0.7855
 2908TIP3   OH230214   6.211   3.355  13.921  0.2583  0.3185  0.3983
 2908TIP3    H130215   6.169   3.425  13.970  2.0350  0.7619  1.3581
 2908TIP3    H230216   6.245   3.296  13.989  0.9044 -0.1722 -0.3506
 2909TIP3   OH230217   1.439   1.542  12.560 -0.0610  0.0357  0.2164
 2909TIP3    H130218   1.450   1.447  12.573 -0.1440 -0.1465 -1.0366
 2909TIP3    H230219   1.506   1.565  12.495  0.0531  0.8668  0.6281
 2910TIP3   OH230220   4.413   1.391  14.634  0.2224  0.3817  0.0789
 2910TIP3    H130221   4.422   1.428  14.722 -0.0873 -0.3972  0.4477
 2910TIP3    H230222   4.361   1.311  14.647 -0.8004  0.8595 -0.9707
 2911TIP3   OH230223   0.992   2.892  12.214  0.5331  0.3176  0.1425
 2911TIP3    H130224   0.967   2.829  12.147  1.5100  0.2991 -0.2235
 2911TIP3    H230225   1.012   2.972  12.164  1.4510  0.2449  0.3846
 2912TIP3   OH230226   1.049   5.425  14.279  0.5478 -0.5826  0.8784
 2912TIP3    H130227   1.018   5.340  14.249 -0.0253 -0.1240  0.1611
 2912TIP3    H230228   1.100   5.459  14.206  0.7777 -0.3133  1.1664
 2913TIP3   OH230229   1.931   1.617   3.201  0.2646 -0.3459 -0.6689
 2913TIP3    H130230   1.838   1.595   3.202  0.6011 -1.8078 -0.9915
 2913TIP3    H230231   1.966   1.578   3.282  0.8878 -1.1113 -1.2995
 2914TIP3   OH230232   2.612   3.179   5.561  0.1443 -0.2524  1.0480
 2914TIP3    H130233   2.626   3.272   5.543  0.0407 -0.2321  1.0736
 2914TIP3    H230234   2.614   3.136   5.476  0.3858 -0.2521  1.0529
 2915TIP3   OH230235   1.197   0.142  12.795 -0.1201  0.0383  0.7364
 2915TIP3    H130236   1.266   0.096  12.747 -0.3562  0.6782 -0.2254
 2915TIP3    H230237   1.121   0.138  12.738 -0.0740  1.8211  0.5289
 2916TIP3   OH230238   3.594   3.249   0.648  0.3724  0.3001 -0.5034
 2916TIP3    H130239   3.605   3.339   0.678 -0.7405 -0.1402  1.3402
 2916TIP3    H230240   3.680   3.208   0.659  0.4611  0.6900  0.2458
 2917TIP3   OH230241   2.238   6.631   1.902  0.6844 -0.2163  0.4502
 2917TIP3    H130242   2.193   6.660   1.822  0.7892 -1.8450 -0.2044
 2917TIP3    H230243   2.271   6.712   1.941  0.2150  0.6430 -0.9022
 2918TIP3   OH230244   4.910   4.582   6.019 -0.2956  1.1017 -0.0669
 2918TIP3    H130245   4.860   4.509   5.983  0.9278  0.0856  0.2691
 2918TIP3    H230246   4.852   4.620   6.085 -0.2918 -0.6537  0.9815
 2919TIP3   OH230247   0.448   6.218   2.727  0.1853 -0.2365  0.4990
 2919TIP3    H130248   0.410   6.204   2.641 -0.6175 -0.4696  0.8864
 2919TIP3    H230249   0.505   6.142   2.741  0.2751 -0.2254  0.2002
 2920TIP3   OH230250   2.425   5.926  16.347  0.5692 -0.3944  0.2333
 2920TIP3    H130251   2.363   5.853  16.353  0.6135 -0.6469 -1.9709
 2920TIP3    H230252   2.496   5.901  16.407 -0.2293 -1.3119  0.8306
 2921TIP3   OH230253   3.038   1.616   2.310 -0.3401 -0.6037 -0.2929
 2921TIP3    H130254   2.950   1.608   2.347 -0.3393  1.1639  0.1776
 2921TIP3    H230255   3.024   1.650   2.222 -0.0852  1.4254  0.4138
 2922TIP3   OH230256   3.004   4.525  15.128 -0.0414  0.4446 -0.3615
 2922TIP3    H130257   3.043   4.604  15.089  0.6509  0.2855  0.0137
 2922TIP3    H230258   2.959   4.556  15.206  0.0255  0.4989 -0.3448
 2923TIP3   OH230259   1.989   1.004  14.096 -0.0271  0.4550  0.2357
 2923TIP3    H130260   1.925   1.044  14.155  0.1588  1.8890 -0.5309
 2923TIP3    H230261   1.965   0.911  14.094 -1.3814  0.7906  0.8264
 2924TIP3   OH230262   5.749   0.661   5.703 -0.9041 -0.2384 -0.3044
 2924TIP3    H130263   5.677   0.627   5.756 -0.7939 -1.8437 -1.1518
 2924TIP3    H230264   5.706   0.694   5.624 -0.5726 -2.9064 -1.6457
 2925TIP3   OH230265   1.207   0.296  13.309  0.1991  0.1141  0.2799
 2925TIP3    H130266   1.256   0.297  13.227 -0.0779  0.5745  0.1166
 2925TIP3    H230267   1.153   0.217  13.305  0.2632  0.0820  0.0682
 2926TIP3   OH230268   2.406   5.283  16.618  0.2388  0.0195 -0.1045
 2926TIP3    H130269   2.369   5.273  16.706  0.3476 -1.0674 -0.1759
 2926TIP3    H230270   2.393   5.375  16.598 -0.9263  0.0171  0.5441
 2927TIP3   OH230271   2.198   4.509   3.874 -0.3485  0.2734  0.0568
 2927TIP3    H130272   2.129   4.448   3.901 -1.7163  1.3786 -0.9363
 2927TIP3    H230273   2.183   4.587   3.928 -1.8476  1.7194 -2.3761
 2928TIP3   OH230274   1.409   6.770  16.925  0.1479 -0.5399 -0.3864
 2928TIP3    H130275   1.427   6.698  16.865 -0.8767  0.3114 -1.7451
 2928TIP3    H230276   1.479   6.765  16.990  1.0322 -1.7300 -1.4114
 2929TIP3   OH230277   0.225   0.872   0.740 -0.5140  0.9225  0.4856
 2929TIP3    H130278   0.301   0.834   0.694 -0.6822  2.8557 -1.4249
 2929TIP3    H230279   0.211   0.813   0.814  2.5133  0.1986  0.5565
 2930TIP3   OH230280   0.284   6.087  13.824 -0.4756 -0.0760  0.2319
 2930TIP3    H130281   0.344   6.044  13.764 -0.7358  2.0656 -1.6365
 2930TIP3    H230282   0.203   6.098  13.773 -0.7530  1.6498  1.0077
 2931TIP3   OH230283   3.502   0.865  10.922 -0.3752  0.5347 -0.4244
 2931TIP3    H130284   3.573   0.879  10.858  0.4271 -0.3293  0.2497
 2931TIP3    H230285   3.543   0.813  10.991 -1.7912 -0.3361 -0.2253
 2932TIP3   OH230286   5.003   1.520   5.378 -0.2810  0.7177  0.4353
 2932TIP3    H130287   5.093   1.549   5.391  0.5382 -1.8776  0.9192
 2932TIP3    H230288   5.012   1.433   5.339 -2.5991  1.0823 -0.9951
 2933TIP3   OH230289   5.990   4.157  17.154  0.5888 -0.0687 -0.0975
 2933TIP3    H130290   6.073   4.180  17.112  1.3149 -1.2008  0.6775
 2933TIP3    H230291   5.988   4.062  17.152 -2.1996 -0.0160 -2.9625
 2934TIP3   OH230292   2.398   2.280   4.102  0.0091  0.2503 -0.1272
 2934TIP3    H130293   2.378   2.262   4.194 -1.9738 -1.4111 -0.8344
 2934TIP3    H230294   2.388   2.195   4.058  0.2576  1.1591 -1.9941
 2935TIP3   OH230295   3.191   5.505   5.395  0.5956 -0.4081 -0.2321
 2935TIP3    H130296   3.105   5.518   5.433  1.5155  0.6414  1.5617
 2935TIP3    H230297   3.198   5.411   5.383 -0.4359 -0.5841  0.4809
 2936TIP3   OH230298   0.653   5.420  15.831  0.3599 -0.0498 -0.3020
 2936TIP3    H130299   0.700   5.479  15.890  1.0144 -0.7545 -0.1212
 2936TIP3    H230300   0.715   5.402  15.760  0.0382 -0.2475 -0.5340
 2937TIP3   OH230301   1.426   0.545  13.207 -0.3165  0.3408 -0.3987
 2937TIP3    H130302   1.375   0.611  13.161 -1.9899  0.1799  1.1552
 2937TIP3    H230303   1.434   0.580  13.296  0.7637 -0.4887 -0.1665
 2938TIP3   OH230304   3.781   3.173  16.929 -0.1839 -0.1809 -0.5181
 2938TIP3    H130305   3.859   3.128  16.897 -0.8689 -2.1310  0.4508
 2938TIP3    H230306   3.804   3.200  17.018 -0.3396 -0.0966 -0.5036
 2939TIP3   OH230307   0.975   3.310   6.300  0.5055  0.7375  0.7217
 2939TIP3    H130308   0.898   3.299   6.356  0.3294 -1.0776  0.1539
 2939TIP3    H230309   1.047   3.327   6.361  0.2992 -1.1540  1.5339
 2940TIP3   OH230310   2.995   5.356   3.828 -1.3157  0.3172  0.0671
 2940TIP3    H130311   2.956   5.290   3.771 -1.8910  1.1910 -0.5417
 2940TIP3    H230312   3.030   5.305   3.902 -2.6692 -0.5779  0.1141
 2941TIP3   OH230313   1.096   2.167  10.715 -0.0168  0.0059 -0.5716
 2941TIP3    H130314   1.001   2.177  10.724 -0.1015 -1.2571  0.1224
 2941TIP3    H230315   1.110   2.072  10.710  1.2097  0.1767 -0.6011
 2942TIP3   OH230316   2.601   5.435   3.350  0.0586  0.1491  0.8960
 2942TIP3    H130317   2.555   5.456   3.269 -1.0568  0.1549  1.5284
 2942TIP3    H230318   2.548   5.475   3.419 -0.3226 -1.9079  1.8345
 2943TIP3   OH230319   3.311   6.408   1.264 -0.2474 -0.5152 -0.0034
 2943TIP3    H130320   3.266   6.410   1.348  0.5087 -1.0880  0.4199
 2943TIP3    H230321   3.273   6.333   1.218 -1.2282  0.2681 -0.5068
 2944TIP3   OH230322   6.420   3.823   3.153  0.0358 -0.5558 -0.1409
 2944TIP3    H130323   6.411   3.791   3.243  0.7452 -2.5246 -0.7484
 2944TIP3    H230324   6.361   3.768   3.102  1.3238 -0.9426 -1.2310
 2945TIP3   OH230325   5.316   5.607   5.462 -0.1951  0.1187  0.1884
 2945TIP3    H130326   5.225   5.613   5.434 -0.1701  0.2122  0.1250
 2945TIP3    H230327   5.326   5.675   5.528 -0.7686 -1.4151  1.8765
 2946TIP3   OH230328   1.372   2.071  16.222 -0.1345 -0.3369  0.0964
 2946TIP3    H130329   1.416   2.124  16.288  0.3647  0.5284 -0.9000
 2946TIP3    H230330   1.320   2.009  16.271 -0.3465  0.7751  1.3003
 2947TIP3   OH230331   6.190   2.332   5.599  0.0996  0.5435 -0.4163
 2947TIP3    H130332   6.225   2.330   5.510 -1.4701 -1.1067 -1.0487
 2947TIP3    H230333   6.234   2.405   5.642  0.7215  1.4852 -2.6178
 2948TIP3   OH230334   5.338   3.669  11.256 -0.4478  0.7142  0.1367
 2948TIP3    H130335   5.409   3.731  11.240 -0.7133  0.2965 -2.9641
 2948TIP3    H230336   5.371   3.612  11.325  2.0689  0.8112 -0.9348
 2949TIP3   OH230337   5.688   3.089  12.994 -0.1527  0.2037  0.1030
 2949TIP3    H130338   5.770   3.138  12.991 -0.0100  0.1009  1.6930
 2949TIP3    H230339   5.690   3.044  13.079 -1.1619 -1.0006 -0.4951
 2950TIP3   OH230340   2.575   1.952  11.555  0.1918  0.4851  0.4451
 2950TIP3    H130341   2.618   1.945  11.640  1.8578  1.0022 -0.3335
 2950TIP3    H230342   2.492   1.995  11.574 -0.1443 -0.7731  2.0121
 2951TIP3   OH230343   4.787   1.609  14.703 -0.6825 -0.0488 -0.1313
 2951TIP3    H130344   4.731   1.675  14.661 -1.1711 -0.3381  0.0658
 2951TIP3    H230345   4.754   1.525  14.670  0.4541 -0.1546 -1.0080
 2952TIP3   OH230346   4.745   5.541  17.071  0.7215 -0.2965  0.6017
 2952TIP3    H130347   4.752   5.466  17.129  0.3648 -0.5799  0.2802
 2952TIP3    H230348   4.666   5.525  17.020  0.5450  0.3839  0.6564
 2953TIP3   OH230349   2.993   6.387  13.815  0.3782  0.2046  0.2334
 2953TIP3    H130350   3.024   6.470  13.852 -1.5139  0.9852  0.1270
 2953TIP3    H230351   2.960   6.410  13.728  1.6547 -1.0268 -0.6058
 2954TIP3   OH230352   4.029   4.158   4.848 -0.3804  0.4616 -0.1524
 2954TIP3    H130353   3.940   4.191   4.858  0.1022  1.8208 -0.2774
 2954TIP3    H230354   4.084   4.223   4.892  0.2547 -2.3473  3.4462
 2955TIP3   OH230355   2.377   0.920   4.035 -0.1126 -0.3086  0.0844
 2955TIP3    H130356   2.387   0.832   4.071 -0.5246 -0.6957 -0.7309
 2955TIP3    H230357   2.381   0.908   3.940 -1.3920  0.3961 -0.0630
 2956TIP3   OH230358   4.246   0.839   5.656  0.2732  0.3674 -0.1239
 2956TIP3    H130359   4.203   0.843   5.742  1.0684 -2.6329  0.4604
 2956TIP3    H230360   4.180   0.801   5.598 -0.1247  2.0204 -0.8009
 2957TIP3   OH230361   3.775   2.430  13.945  0.4449  0.5661 -0.0546
 2957TIP3    H130362   3.857   2.413  13.898  0.5203 -0.4178  0.4125
 2957TIP3    H230363   3.785   2.384  14.028 -0.4274  0.7673  0.1712
 2958TIP3   OH230364   5.901   2.547   5.397 -0.0766  0.0916 -0.7970
 2958TIP3    H130365   5.914   2.604   5.322  2.0098  0.9952  0.2098
 2958TIP3    H230366   5.918   2.602   5.473  0.9851 -1.5780  0.2292
 2959TIP3   OH230367   6.613   3.346   2.228  0.1901  0.4878  0.2285
 2959TIP3    H130368   6.695   3.392   2.212 -0.3040  0.4690 -2.7802
 2959TIP3    H230369   6.545   3.409   2.205 -0.5616 -0.4742 -0.2123
 2960TIP3   OH230370   5.616   4.494   2.053 -0.0066  0.2984 -0.5748
 2960TIP3    H130371   5.709   4.473   2.062 -0.0550 -0.1380 -1.0686
 2960TIP3    H230372   5.609   4.535   1.967 -0.0624  1.5214  0.0003
 2961TIP3   OH230373   1.895   0.412   3.927  0.4520  0.1405 -0.9872
 2961TIP3    H130374   1.856   0.356   3.860  0.7149 -0.2091 -0.8502
 2961TIP3    H230375   1.829   0.416   3.996  1.0957 -1.3406 -0.2748
 2962TIP3   OH230376   1.241   3.934   5.318 -0.2188  0.0444  0.5880
 2962TIP3    H130377   1.274   3.950   5.407  0.7987  0.1991  0.1878
 2962TIP3    H230378   1.316   3.949   5.262 -1.6742  3.2597 -0.6050
 2963TIP3   OH230379   5.079   0.909  13.154  0.1883  0.1876  0.4348
 2963TIP3    H130380   5.026   0.968  13.101  2.6590  2.0057 -0.1113
 2963TIP3    H230381   5.169   0.939  13.142  1.3752 -2.7286  1.4154
 2964TIP3   OH230382   2.822   1.842  15.750 -0.0309  0.4753  0.6916
 2964TIP3    H130383   2.850   1.871  15.836  1.3857 -1.1512  0.8233
 2964TIP3    H230384   2.901   1.847  15.696 -0.0630 -1.7326  0.3833
 2965TIP3   OH230385   4.612   3.335  16.573 -0.4185 -0.0669 -0.3048
 2965TIP3    H130386   4.687   3.279  16.551 -0.3810 -0.1903  0.1259
 2965TIP3    H230387   4.651   3.412  16.614 -0.6745 -1.5067  2.7986
 2966TIP3   OH230388   1.539   2.422  12.634 -0.6408 -0.1541 -0.0998
 2966TIP3    H130389   1.489   2.359  12.686  0.4993 -2.6903 -2.0078
 2966TIP3    H230390   1.604   2.458  12.695 -2.4627  0.5919  1.4734
 2967TIP3   OH230391   5.340   1.767  13.500 -0.2491 -0.1074  0.5764
 2967TIP3    H130392   5.422   1.806  13.470 -0.9574 -0.2903 -1.6211
 2967TIP3    H230393   5.359   1.673  13.505 -0.1401 -0.0809  0.6542
 2968TIP3   OH230394   0.313   6.077  16.330  0.1589 -0.0283 -0.2180
 2968TIP3    H130395   0.278   6.078  16.419  0.8398  0.3187  0.0535
 2968TIP3    H230396   0.408   6.084  16.341  0.4468 -2.3244 -0.8826
 2969TIP3   OH230397   3.184   6.692  13.163  0.3388 -0.4220  0.2741
 2969TIP3    H130398   3.158   6.719  13.074 -0.6259 -2.2204 -0.0079
 2969TIP3    H230399   3.277   6.715  13.168 -0.0962  1.6282 -0.4414
 2970TIP3   OH230400   3.065   5.479   2.231  0.0897  0.3416  0.1788
 2970TIP3    H130401   3.041   5.478   2.323  0.8407 -1.4532  0.3616
 2970TIP3    H230402   2.981   5.480   2.184 -0.3044 -0.5325  0.8601
 2971TIP3   OH230403   4.180   5.533  12.730 -0.1892 -0.0742  0.2806
 2971TIP3    H130404   4.092   5.506  12.705 -0.5825  1.0798  0.3643
 2971TIP3    H230405   4.196   5.613  12.679  0.6703 -0.0877  0.5176
 2972TIP3   OH230406   0.395   3.616   5.446 -0.3651  0.1938 -0.4602
 2972TIP3    H130407   0.340   3.540   5.427 -1.3166  0.9372 -0.7284
 2972TIP3    H230408   0.333   3.685   5.471  0.4287  1.0766 -0.8693
 2973TIP3   OH230409   5.573   5.012   3.856 -0.1852 -0.5675 -0.6625
 2973TIP3    H130410   5.607   4.949   3.792 -0.4173  1.0494 -2.4224
 2973TIP3    H230411   5.481   5.024   3.831 -0.0876  0.6127 -0.4752
 2974TIP3   OH230412   6.254   4.416   1.222  0.0895  0.2369  0.2108
 2974TIP3    H130413   6.331   4.411   1.278  1.3372  0.3758 -1.4419
 2974TIP3    H230414   6.186   4.368   1.269  1.1112  0.3482  1.8094
 2975TIP3   OH230415   6.701   0.096   6.203 -0.1571  0.7053 -0.1298
 2975TIP3    H130416   6.682   0.168   6.142  1.0918  0.6718 -0.5650
 2975TIP3    H230417   6.692   0.136   6.290 -1.3214  0.9114 -0.3358
 2976TIP3   OH230418   1.865   5.825   3.117 -0.2351  0.0187  0.0602
 2976TIP3    H130419   1.922   5.823   3.041 -0.9235  0.9269 -0.4847
 2976TIP3    H230420   1.859   5.917   3.141  0.6280 -0.3403  1.7168
 2977TIP3   OH230421   4.025   6.168  14.911 -0.6155 -0.0665  0.0931
 2977TIP3    H130422   3.965   6.115  14.963 -1.1786  0.5325  0.0476
 2977TIP3    H230423   3.971   6.238  14.875 -0.0062  0.1527 -0.4036
 2978TIP3   OH230424   5.505   6.405   0.285  0.1344  0.2705 -0.2313
 2978TIP3    H130425   5.432   6.423   0.225  1.7250  1.0212 -1.9791
 2978TIP3    H230426   5.504   6.478   0.346 -1.1431 -0.2026  0.3401
 2979TIP3   OH230427   2.465   3.809   5.894  0.1273 -0.9127 -0.2349
 2979TIP3    H130428   2.425   3.830   5.978  2.8566  1.8371  0.4589
 2979TIP3    H230429   2.535   3.746   5.915 -0.5149 -1.8269 -0.7685
 2980TIP3   OH230430   6.198   3.187  13.380 -0.5837  0.1458 -0.8173
 2980TIP3    H130431   6.250   3.266  13.363  1.2267 -0.8296  0.0892
 2980TIP3    H230432   6.186   3.185  13.475 -1.3332 -0.2411 -0.9137
 2981TIP3   OH230433   1.291   3.462  11.690 -0.3069  0.0711 -0.2762
 2981TIP3    H130434   1.248   3.377  11.700 -2.2408  1.2738  2.1020
 2981TIP3    H230435   1.218   3.525  11.684  1.0503  1.9607  2.0771
 2982TIP3   OH230436   1.155   6.605   0.594 -0.4190  0.1935  0.3456
 2982TIP3    H130437   1.233   6.658   0.610  1.5008 -2.4599  0.1243
 2982TIP3    H230438   1.130   6.572   0.680  0.0845 -0.7462  0.1498
 2983TIP3   OH230439   4.320   1.759   4.382  0.3669 -0.1106  0.0532
 2983TIP3    H130440   4.252   1.826   4.392 -0.9503 -1.6258  1.5482
 2983TIP3    H230441   4.403   1.807   4.392 -0.5216  1.4471  0.1324
 2984TIP3   OH230442   1.169   4.011   2.189 -0.2337  0.1324 -0.5696
 2984TIP3    H130443   1.255   4.051   2.195 -1.4668  2.5876  1.8504
 2984TIP3    H230444   1.123   4.041   2.267 -2.6863 -2.6195 -0.8570
 2985TIP3   OH230445   6.160   4.797   0.564 -0.3841 -0.3616 -0.4060
 2985TIP3    H130446   6.225   4.797   0.635 -1.7950 -0.2118  0.9207
 2985TIP3    H230447   6.195   4.860   0.501 -0.0750  1.0259  1.1020
 2986TIP3   OH230448   4.844   3.568  10.954  0.4500 -0.0611 -0.0845
 2986TIP3    H130449   4.871   3.523  10.874 -2.5336  2.1884 -2.4812
 2986TIP3    H230450   4.888   3.653  10.949 -0.5283  0.4590  0.1601
 2987TIP3   OH230451   2.112   2.231   1.803  0.1336  0.4823 -0.6293
 2987TIP3    H130452   2.161   2.175   1.862  1.8348  1.8833 -0.6702
 2987TIP3    H230453   2.070   2.171   1.742  0.0482 -0.8549  0.7205
 2988TIP3   OH230454   3.571   0.523   1.771  0.1127 -0.1875  0.1747
 2988TIP3    H130455   3.478   0.547   1.764  0.0452 -0.8523 -1.3001
 2988TIP3    H230456   3.606   0.537   1.683  1.1474 -1.0189  0.4542
 2989TIP3   OH230457   4.157   4.582   6.028  0.3581 -0.2822 -1.0787
 2989TIP3    H130458   4.130   4.672   6.043 -0.9674 -0.6213 -1.3247
 2989TIP3    H230459   4.085   4.544   5.976 -0.0517 -2.0066  0.6679
 2990TIP3   OH230460   4.507   3.920  13.918 -0.7374 -0.0662  0.1576
 2990TIP3    H130461   4.571   3.861  13.878  0.2628  1.4880 -0.5680
 2990TIP3    H230462   4.463   3.866  13.984 -0.5098 -1.8830 -1.1484
 2991TIP3   OH230463   3.070   4.190  12.479 -0.3229 -0.3361 -0.4388
 2991TIP3    H130464   3.054   4.099  12.452  0.6610 -1.2017  1.7795
 2991TIP3    H230465   3.151   4.185  12.530  0.0955  1.9138 -0.8498
 2992TIP3   OH230466   1.143   0.511  13.942  0.0855  0.3367  0.2905
 2992TIP3    H130467   1.138   0.607  13.939 -0.4714  0.2503 -2.4805
 2992TIP3    H230468   1.052   0.483  13.952  0.1957  0.0731  0.5618
 2993TIP3   OH230469   1.816   0.010  16.464 -0.2808 -0.3747 -0.1197
 2993TIP3    H130470   1.736   0.059  16.447  1.6828  3.1799  0.2340
 2993TIP3    H230471   1.845   0.042  16.550  1.2721 -1.9248 -0.0456
 2994TIP3   OH230472   4.234   2.213  14.466 -0.2969 -0.5152  0.2735
 2994TIP3    H130473   4.160   2.269  14.448  0.1687 -0.6855 -2.3337
 2994TIP3    H230474   4.198   2.124  14.468 -0.2375 -0.5578 -0.5431
 2995TIP3   OH230475   1.888   6.762  16.082  0.4150  0.2476 -0.1056
 2995TIP3    H130476   1.920   6.844  16.120  1.3914 -0.7500  1.2698
 2995TIP3    H230477   1.857   6.786  15.995 -0.1861  2.2451  0.6371
 2996TIP3   OH230478   5.888   3.431  14.818 -0.2575  0.4188  0.7487
 2996TIP3    H130479   5.818   3.467  14.763 -1.0946 -0.0637  1.4889
 2996TIP3    H230480   5.939   3.508  14.844 -0.4300  0.7589  0.1088
 2997TIP3   OH230481   0.023   2.559  12.016 -0.7453 -0.4713  0.6991
 2997TIP3    H130482   0.037   2.651  12.036 -2.5517 -0.1718  0.6745
 2997TIP3    H230483  -0.005   2.558  11.924  1.7211 -1.2866 -0.0693
 2998TIP3   OH230484   4.559   3.425   1.959  0.4447 -0.3716  0.2029
 2998TIP3    H130485   4.621   3.491   1.928  0.9412 -0.4804  0.9652
 2998TIP3    H230486   4.581   3.346   1.910  0.8666 -0.3943  0.4329
 2999TIP3   OH230487   4.897   5.681  16.489  0.1351  0.5086 -0.0198
 2999TIP3    H130488   4.974   5.730  16.519  0.1714  0.6808 -0.4002
 2999TIP3    H230489   4.922   5.648  16.403  0.3703 -0.7403  0.5066
 3000TIP3   OH230490   1.507   1.142  12.022  0.5468  0.3556 -0.0819
 3000TIP3    H130491   1.422   1.179  12.000  0.5391  0.6589  0.4369
 3000TIP3    H230492   1.516   1.066  11.966 -1.3708 -1.4506  1.9707
 3001TIP3   OH230493   5.415   6.783  17.076 -0.2130 -0.0451  0.0839
 3001TIP3    H130494   5.344   6.798  17.139 -1.1910  1.0816 -1.2430
 3001TIP3    H230495   5.409   6.690  17.055 -1.0455 -0.0429  0.2779
 3002TIP3   OH230496   5.371   0.842  12.083  0.0614 -0.7840 -0.3353
 3002TIP3    H130497   5.332   0.783  12.018  0.6408 -2.4650  0.8093
 3002TIP3    H230498   5.297   0.892  12.117 -0.7368 -2.1220 -0.0495
 3003TIP3   OH230499   0.062   4.184   0.547  0.3302 -0.2416 -0.1963
 3003TIP3    H130500   0.062   4.150   0.636  2.5281  0.2543  0.0161
 3003TIP3    H230501   0.105   4.117   0.495 -3.0951 -1.6355 -1.3929
 3004TIP3   OH230502   4.149   6.073  16.406 -0.7927 -0.4162 -0.1271
 3004TIP3    H130503   4.227   6.077  16.461 -0.0923 -2.0052 -0.9358
 3004TIP3    H230504   4.080   6.041  16.464 -0.6345  0.1992  0.3997
 3005TIP3   OH230505   2.322   3.541  13.523 -0.3101  0.5540 -0.2799
 3005TIP3    H130506   2.322   3.505  13.611 -2.1963 -0.1033 -0.5215
 3005TIP3    H230507   2.400   3.596  13.519  0.9296 -1.0350  1.1139
 3006TIP3   OH230508   1.833   5.057   4.851 -0.1039 -0.0647  0.4236
 3006TIP3    H130509   1.792   4.983   4.805 -1.0086  1.5511 -1.5049
 3006TIP3    H230510   1.764   5.091   4.908  0.1261 -0.3561  0.8751
 3007TIP3   OH230511   0.911   5.920  15.238 -0.8018 -0.5934  0.4538
 3007TIP3    H130512   0.883   5.858  15.306 -0.9601  0.1566  1.0841
 3007TIP3    H230513   0.861   5.999  15.257  1.3012  0.5827  1.2387
 3008TIP3   OH230514   5.757   6.793   5.271 -0.2484 -0.0016 -0.0924
 3008TIP3    H130515   5.680   6.821   5.222 -1.3380 -2.1063  0.3457
 3008TIP3    H230516   5.830   6.803   5.211 -1.3137 -0.8595 -1.5499
 3009TIP3   OH230517   4.486   5.425   1.407 -0.1082 -0.6085  0.2596
 3009TIP3    H130518   4.563   5.422   1.463  0.0846 -1.4522 -0.0426
 3009TIP3    H230519   4.459   5.334   1.399 -1.4088 -0.2844  0.7344
 3010TIP3   OH230520   4.677   4.252  13.504 -0.0194 -0.4394 -0.4135
 3010TIP3    H130521   4.645   4.249  13.414 -0.5598 -2.3663 -0.1687
 3010TIP3    H230522   4.598   4.270  13.556  0.2661  0.5108 -0.2997
 3011TIP3   OH230523   2.483   4.993  10.989  0.1835  0.0475  0.2907
 3011TIP3    H130524   2.488   5.085  11.014 -2.3148  0.3904 -0.2681
 3011TIP3    H230525   2.401   4.987  10.938  0.3059 -2.4708  0.3375
 3012TIP3   OH230526   3.920   4.758   0.669 -0.3382 -0.8822  0.0337
 3012TIP3    H130527   3.855   4.690   0.692 -1.4784  0.3191  0.4484
 3012TIP3    H230528   3.894   4.834   0.721  2.6560 -0.9824  1.7985
 3013TIP3   OH230529   3.684   2.830  17.001  0.0565  0.3080  0.1763
 3013TIP3    H130530   3.637   2.913  17.004 -1.2194 -0.3782 -0.2389
 3013TIP3    H230531   3.620   2.765  17.030  1.0959 -0.5055  0.6764
 3014TIP3   OH230532   2.449   5.905   3.308 -0.4244 -0.4304  0.5014
 3014TIP3    H130533   2.396   5.974   3.348 -0.2618  0.1743 -0.3161
 3014TIP3    H230534   2.438   5.917   3.214 -0.2645 -1.4228  0.3523
 3015TIP3   OH230535   4.296   3.353   3.439 -0.1408  0.5806 -0.1482
 3015TIP3    H130536   4.290   3.304   3.357 -1.3117 -0.9196  0.7979
 3015TIP3    H230537   4.381   3.397   3.435  0.7418 -1.1818 -1.2353
 3016TIP3   OH230538   3.460   6.399  11.123 -0.3357  0.0697 -0.1623
 3016TIP3    H130539   3.500   6.470  11.174 -1.0033  0.8893 -0.7647
 3016TIP3    H230540   3.448   6.328  11.187  1.3973  0.0711  0.1764
 3017TIP3   OH230541   4.161   0.152  11.967 -0.8369  0.0725  0.1260
 3017TIP3    H130542   4.121   0.115  12.045 -2.0785 -1.5765 -1.2447
 3017TIP3    H230543   4.119   0.106  11.894  2.1717 -0.2758 -1.4527
 3018TIP3   OH230544   3.607   0.996   5.335 -0.6943  0.6008  0.6078
 3018TIP3    H130545   3.660   0.917   5.343 -0.3877  0.7904  0.4629
 3018TIP3    H230546   3.624   1.046   5.415 -2.9062 -0.6879  1.9417
 3019TIP3   OH230547   1.063   6.590   4.827  0.3066 -0.3448 -0.1501
 3019TIP3    H130548   1.146   6.598   4.875 -0.1310 -1.7065  0.8699
 3019TIP3    H230549   1.053   6.674   4.782  0.7367  0.9788  2.1472
 3020TIP3   OH230550   3.712   1.217  16.474 -0.2531 -0.4685  0.0692
 3020TIP3    H130551   3.752   1.275  16.409 -0.3679 -0.7418 -0.2442
 3020TIP3    H230552   3.618   1.222  16.456 -0.2633 -0.7459  0.0512
 3021TIP3   OH230553   4.472   6.064  12.033  0.4253 -0.2425  0.2456
 3021TIP3    H130554   4.515   6.149  12.021  2.7630 -1.4748 -0.3451
 3021TIP3    H230555   4.447   6.038  11.945  0.4196 -0.5331  0.3320
 3022TIP3   OH230556   6.749   5.584   4.530  0.4017  0.5870  0.1397
 3022TIP3    H130557   6.826   5.536   4.559 -0.9846 -1.3369  0.7567
 3022TIP3    H230558   6.749   5.664   4.583  0.4827 -0.6919  2.1325
 3023TIP3   OH230559   3.225   5.349  12.494  0.0417 -0.2349  0.1627
 3023TIP3    H130560   3.139   5.308  12.487 -0.1128 -0.0727  1.1841
 3023TIP3    H230561   3.284   5.285  12.453 -0.7672  0.4001 -2.1068
 3024TIP3   OH230562   2.124   0.817   5.203  0.3710  0.0510 -0.2799
 3024TIP3    H130563   2.091   0.741   5.252  0.7914  1.1649  1.8183
 3024TIP3    H230564   2.062   0.828   5.131 -0.9002 -1.0097  0.6180
 3025TIP3   OH230565   5.233   5.825   3.248 -0.0943 -0.5649 -0.0749
 3025TIP3    H130566   5.302   5.758   3.242  0.2664 -0.3009  1.0061
 3025TIP3    H230567   5.242   5.860   3.337  0.9384  2.2389 -1.2332
 3026TIP3   OH230568   2.403   3.471  15.195  0.7075 -0.3734  0.7935
 3026TIP3    H130569   2.464   3.442  15.126  1.4527 -0.8966  1.6644
 3026TIP3    H230570   2.419   3.411  15.268  1.2242  1.3008  2.0810
 3027TIP3   OH230571   6.193   5.970   2.452  0.1001 -0.0996 -0.0515
 3027TIP3    H130572   6.164   5.988   2.541  1.0444 -2.2593  0.7310
 3027TIP3    H230573   6.150   5.888   2.429 -0.5713  0.7134 -1.8057
 3028TIP3   OH230574   0.679   0.059  11.444 -0.5206  0.0959  0.0215
 3028TIP3    H130575   0.619   0.003  11.395  0.7244  0.7789 -2.3401
 3028TIP3    H230576   0.679   0.142  11.397  0.7938  0.7395  1.1143
 3029TIP3   OH230577   4.561   6.365  14.742  0.1530 -0.6880  0.3628
 3029TIP3    H130578   4.550   6.386  14.649  0.0923 -1.5146  0.1790
 3029TIP3    H230579   4.566   6.450  14.785  1.1796 -0.2892 -0.5155
 3030TIP3   OH230580   2.652   6.150  17.156  0.0804 -0.2841 -0.0235
 3030TIP3    H130581   2.568   6.197  17.158  0.2973  0.0754  0.7631
 3030TIP3    H230582   2.717   6.218  17.141  0.1217 -0.7364 -2.1091
 3031TIP3   OH230583   4.351   0.017  11.609 -0.2246 -0.1386 -0.4136
 3031TIP3    H130584   4.285  -0.046  11.580 -0.3112 -0.3577  0.2383
 3031TIP3    H230585   4.313   0.056  11.688 -0.4538  1.1984 -1.1711
 3032TIP3   OH230586   3.153   5.124  15.102  0.0504 -0.5871  0.0271
 3032TIP3    H130587   3.125   5.126  15.193 -0.0968  0.7415 -0.0349
 3032TIP3    H230588   3.072   5.130  15.051  0.2643  1.0448 -0.1605
 3033TIP3   OH230589   3.759   2.984  14.686 -0.1516 -0.5476  0.6722
 3033TIP3    H130590   3.800   3.055  14.636  1.6074 -0.4931  2.1593
 3033TIP3    H230591   3.666   2.990  14.664  0.3147  0.6810 -1.0933
 3034TIP3   OH230592   6.422   4.950  11.086 -0.5275  0.3411  0.4692
 3034TIP3    H130593   6.474   4.876  11.055 -0.3736  0.4092  0.5615
 3034TIP3    H230594   6.357   4.964  11.017 -0.2909  0.3884  0.2519
 3035TIP3   OH230595   3.661   5.274   1.318 -0.2594 -0.1280  0.1665
 3035TIP3    H130596   3.627   5.356   1.353  0.7228 -0.2439  1.4282
 3035TIP3    H230597   3.756   5.286   1.316 -0.2214 -0.5694 -1.3577
 3036TIP3   OH230598   4.258   1.222  11.251 -0.0430 -0.5195  0.0778
 3036TIP3    H130599   4.277   1.269  11.332 -0.9710  1.3878 -0.7938
 3036TIP3    H230600   4.163   1.225  11.242  0.0718 -0.4060 -1.2615
 3037TIP3   OH230601   4.280   4.843   1.561  0.3996  0.4420  0.0317
 3037TIP3    H130602   4.333   4.771   1.594  1.7331  1.0039 -0.8202
 3037TIP3    H230603   4.323   4.922   1.595  0.1643  0.9106 -0.7418
 3038TIP3   OH230604   6.462   5.807  12.947 -0.0738 -0.0306 -0.1541
 3038TIP3    H130605   6.420   5.810  13.033 -0.9922  0.1588 -0.6109
 3038TIP3    H230606   6.556   5.799  12.967 -0.1971  0.9817  0.8641
 3039TIP3   OH230607   4.152   3.353  15.638 -0.5722 -1.2470 -0.0760
 3039TIP3    H130608   4.078   3.405  15.607  0.6764 -0.3268 -1.5692
 3039TIP3    H230609   4.137   3.345  15.733  0.1284  3.4015  0.5453
 3040TIP3   OH230610   5.607   6.545   1.440 -0.3989 -0.2388  0.0620
 3040TIP3    H130611   5.676   6.496   1.396 -1.2341 -0.4300 -1.0409
 3040TIP3    H230612   5.648   6.627   1.468 -0.0333  0.1741 -1.6594
 3041TIP3   OH230613   6.148   0.314  16.165  0.2364 -0.4159  0.0129
 3041TIP3    H130614   6.144   0.357  16.080  0.7817  1.3421  0.8520
 3041TIP3    H230615   6.204   0.371  16.218  1.0583 -2.2126  1.1352
 3042TIP3   OH230616   3.014   0.867   2.985  0.8582  0.4757  0.3634
 3042TIP3    H130617   2.925   0.881   3.016  1.3974  1.3637  1.5447
 3042TIP3    H230618   3.025   0.931   2.915 -0.3110 -1.4349 -1.6352
 3043TIP3   OH230619   0.371   3.786  11.712 -0.1659 -0.0514  0.2525
 3043TIP3    H130620   0.353   3.754  11.624  0.5017 -0.8249  0.3944
 3043TIP3    H230621   0.288   3.823  11.741 -0.3890  0.2134 -0.6993
 3044TIP3   OH230622   3.705   5.305   2.826 -0.8500 -0.0036  0.1037
 3044TIP3    H130623   3.729   5.294   2.734 -0.2777  1.4521  0.0645
 3044TIP3    H230624   3.766   5.249   2.874 -0.0517  0.5074 -0.2955
 3045TIP3   OH230625   6.718   5.435   1.463 -0.3670 -0.2456  0.1442
 3045TIP3    H130626   6.681   5.416   1.377 -1.1930  0.4764  0.3301
 3045TIP3    H230627   6.650   5.410   1.525  0.0985 -0.4586  0.5795
 3046TIP3   OH230628   4.038   2.177   3.164 -0.6322  0.0144  0.4552
 3046TIP3    H130629   4.099   2.201   3.095 -1.5369  0.3534 -0.2455
 3046TIP3    H230630   3.953   2.174   3.120 -1.3491  1.0538  1.7341
 3047TIP3   OH230631   2.416   2.117  11.867 -0.7276  0.4943  0.1003
 3047TIP3    H130632   2.501   2.077  11.845 -0.4636  1.4452 -0.6434
 3047TIP3    H230633   2.436   2.209  11.881 -1.4806  0.5315  0.9236
 3048TIP3   OH230634   4.966   3.654  10.531 -0.0962  0.4727  0.0074
 3048TIP3    H130635   4.956   3.568  10.573 -1.6181 -0.0767 -1.4651
 3048TIP3    H230636   5.048   3.688  10.568  0.1468 -1.2752  1.1752
 3049TIP3   OH230637   2.860   6.063   2.210 -0.1715 -0.2004  0.3312
 3049TIP3    H130638   2.899   6.072   2.297 -0.3190  0.3373  0.3451
 3049TIP3    H230639   2.806   5.984   2.217  0.7455 -0.8290  0.3669
 3050TIP3   OH230640   0.108   2.389  10.675 -0.0820 -0.8342  0.1640
 3050TIP3    H130641   0.145   2.324  10.735 -1.4989 -2.0599 -0.2657
 3050TIP3    H230642   0.015   2.368  10.672 -0.6386  1.5159  0.3586
 3051TIP3   OH230643   5.698   5.153  12.710  0.0065 -0.0943  0.1816
 3051TIP3    H130644   5.694   5.245  12.684 -0.4893 -0.0876  0.2683
 3051TIP3    H230645   5.607   5.124  12.709  0.0605 -0.3198  1.1030
 3052TIP3   OH230646   2.183   5.671   2.439 -0.1830 -0.3726  0.1422
 3052TIP3    H130647   2.104   5.724   2.445 -0.5930 -1.0059  0.4483
 3052TIP3    H230648   2.173   5.620   2.359 -0.2611 -0.7327  0.3800
 3053TIP3   OH230649   0.217   5.873  12.427 -0.6300  0.2632 -0.1379
 3053TIP3    H130650   0.177   5.787  12.433 -0.7749  0.3463  0.1076
 3053TIP3    H230651   0.144   5.933  12.409 -0.6216  0.4143  0.3152
 3054TIP3   OH230652   6.354   3.089   1.494 -0.1608  0.1442 -0.2158
 3054TIP3    H130653   6.286   3.111   1.430  1.1081  1.6062 -1.0863
 3054TIP3    H230654   6.398   3.172   1.512  0.0934 -0.4278  1.8704
 3055TIP3   OH230655   0.142   0.506   5.014  0.4554  0.4882 -0.0698
 3055TIP3    H130656   0.127   0.600   5.019  0.2545  0.4258  0.5242
 3055TIP3    H230657   0.148   0.477   5.105 -0.7016 -0.2581 -0.2076
 3056TIP3   OH230658   5.937   5.799  16.360  0.2088 -0.0740 -0.0589
 3056TIP3    H130659   5.999   5.740  16.404  0.6369 -0.7605 -1.5812
 3056TIP3    H230660   5.891   5.841  16.432  1.7169 -0.3306  1.1009
 3057TIP3   OH230661   4.914   2.715   3.240  0.0027  0.6589 -0.1829
 3057TIP3    H130662   4.825   2.745   3.222 -0.1768  0.5359  0.4869
 3057TIP3    H230663   4.965   2.795   3.252 -0.0123  0.7297 -0.5950
 3058TIP3   OH230664   2.351   6.192   2.615 -0.2837  0.3470 -0.1509
 3058TIP3    H130665   2.342   6.103   2.581  0.4096 -0.1081  0.8240
 3058TIP3    H230666   2.320   6.248   2.544  1.2910 -0.5650 -1.5952
 3059TIP3   OH230667   2.101   3.479   0.906 -0.1911  0.7427 -0.0450
 3059TIP3    H130668   2.184   3.509   0.869  0.1112 -0.4278 -0.3256
 3059TIP3    H230669   2.109   3.384   0.909 -1.0918  0.6895  0.9531
 3060TIP3   OH230670   5.882   6.176   0.900 -0.6838 -0.3557  0.0472
 3060TIP3    H130671   5.893   6.233   0.976  1.4636  0.4260 -0.8122
 3060TIP3    H230672   5.836   6.099   0.934 -0.6763  0.4278  1.8982
 3061TIP3   OH230673   1.060   0.949  12.005 -0.0201  0.1474  0.1004
 3061TIP3    H130674   1.081   1.042  11.993  0.0057  0.0579 -0.5648
 3061TIP3    H230675   1.103   0.905  11.932  0.0107 -0.3967  0.4451
 3062TIP3   OH230676   5.716   6.600  16.158 -0.0963  0.2977 -0.6385
 3062TIP3    H130677   5.749   6.528  16.211 -0.4913 -0.1722 -1.0202
 3062TIP3    H230678   5.659   6.649  16.217  0.9981  0.9149 -0.0821
 3063TIP3   OH230679   1.164   0.092   4.689  0.4895  0.3413 -0.2498
 3063TIP3    H130680   1.070   0.076   4.685  0.6370 -0.9178  0.9530
 3063TIP3    H230681   1.194   0.081   4.599 -0.5753  1.2060 -0.7252
 3064TIP3   OH230682   0.773   2.652   5.082  0.1267  0.1682 -0.3142
 3064TIP3    H130683   0.836   2.656   5.010 -0.4768 -2.1984 -1.0080
 3064TIP3    H230684   0.720   2.574   5.063 -1.9953  1.2458  1.0892
 3065TIP3   OH230685   4.278   0.674   0.645  0.2747 -0.2492  0.8130
 3065TIP3    H130686   4.194   0.630   0.639  0.6588 -0.7223 -1.4334
 3065TIP3    H230687   4.258   0.759   0.684 -1.0881 -0.7451  1.2029
 3066TIP3   OH230688   6.078   3.727  16.079 -0.2184 -0.4535 -0.3851
 3066TIP3    H130689   5.986   3.721  16.051 -0.4673  0.5247  0.1857
 3066TIP3    H230690   6.074   3.712  16.174  0.2317 -0.6186 -0.3948
 3067TIP3   OH230691   1.200   4.951  14.787 -0.3515  0.3196 -0.2131
 3067TIP3    H130692   1.281   4.998  14.768 -0.0755 -0.0262  0.0906
 3067TIP3    H230693   1.144   5.017  14.829  1.3240 -0.4513  3.4408
 3068TIP3   OH230694   4.020   2.756   0.640 -0.4583  0.4782 -0.6211
 3068TIP3    H130695   3.997   2.788   0.727  0.3052  0.3304 -0.3583
 3068TIP3    H230696   3.979   2.818   0.579 -0.5440  0.8809 -0.1506
 3069TIP3   OH230697   1.574   1.423  16.135  0.2139  0.0772 -0.1502
 3069TIP3    H130698   1.493   1.375  16.155  0.8293 -0.5107  0.9901
 3069TIP3    H230699   1.545   1.497  16.082 -1.1467  0.1316  0.6262
 3070TIP3   OH230700   5.065   5.749   4.977 -0.2400  0.0696 -0.2649
 3070TIP3    H130701   5.138   5.773   5.035 -0.8142  1.1379  0.0223
 3070TIP3    H230702   5.103   5.685   4.917  1.3208  1.6408 -1.0143
 3071TIP3   OH230703   1.713   1.549  11.430 -0.0262 -0.6464  0.3743
 3071TIP3    H130704   1.619   1.541  11.447 -0.3681 -0.3186 -1.3573
 3071TIP3    H230705   1.754   1.521  11.512 -1.6412 -0.2160  1.3432
 3072TIP3   OH230706   5.327   3.649   1.701 -0.8455  0.1143  0.6172
 3072TIP3    H130707   5.307   3.709   1.629 -1.4584 -0.6712  0.1226
 3072TIP3    H230708   5.291   3.693   1.778 -1.2172  0.4296  0.2746
 3073TIP3   OH230709   3.703   4.943  15.408 -0.3151  0.2356  0.2487
 3073TIP3    H130710   3.659   5.011  15.357 -0.6215  0.2211  0.4947
 3073TIP3    H230711   3.778   4.988  15.447 -0.6202  0.4796  0.5604
 3074TIP3   OH230712   1.150   3.393   1.247  0.2919  0.5934 -0.2632
 3074TIP3    H130713   1.080   3.388   1.312  0.1634 -0.3300 -0.4597
 3074TIP3    H230714   1.194   3.476   1.265 -0.3049  0.7658  0.4259
 3075TIP3   OH230715   3.590   1.776  11.570  0.0801  0.0719 -0.3172
 3075TIP3    H130716   3.511   1.726  11.552  0.5403 -1.3402  1.4006
 3075TIP3    H230717   3.563   1.843  11.633  0.2990 -0.6885  0.6126
 3076TIP3   OH230718   0.553   5.558   4.167  0.3890 -0.5499 -0.1144
 3076TIP3    H130719   0.616   5.627   4.187 -0.8446  1.1530 -1.8773
 3076TIP3    H230720   0.599   5.499   4.108  1.0732 -0.5808  0.4518
 3077TIP3   OH230721   0.237   2.792   3.546 -0.1906  0.3180  0.6977
 3077TIP3    H130722   0.173   2.759   3.610 -1.5673  0.0698 -0.7784
 3077TIP3    H230723   0.184   2.819   3.472  1.3491  1.2535 -0.0738
 3078TIP3   OH230724   6.083   5.534  14.848 -0.1657  0.0301  0.0693
 3078TIP3    H130725   5.998   5.489  14.839  0.0846 -0.3510 -0.3716
 3078TIP3    H230726   6.129   5.517  14.766  0.1122  0.7273  0.0725
 3079TIP3   OH230727   1.297   4.570  12.805 -0.3393  0.3528 -0.8474
 3079TIP3    H130728   1.210   4.554  12.842 -0.6503  0.2385 -1.6203
 3079TIP3    H230729   1.331   4.644  12.855  0.3189 -1.4460  1.4484
 3080TIP3   OH230730   6.299   6.642   3.568 -0.1657  0.2417  0.5778
 3080TIP3    H130731   6.229   6.584   3.599  1.1738 -0.4602  2.3759
 3080TIP3    H230732   6.275   6.728   3.603  0.3704 -0.1934  2.0675
 3081TIP3   OH230733   6.027   1.921   1.685  0.2594 -0.4481 -0.3119
 3081TIP3    H130734   6.091   1.991   1.673 -0.6667  0.6279  0.8606
 3081TIP3    H230735   6.012   1.918   1.780 -0.5946 -1.4428 -0.4672
 3082TIP3   OH230736   1.236   3.577   1.606 -0.0928  0.2217  0.1831
 3082TIP3    H130737   1.202   3.642   1.545  0.1136 -0.2266 -0.4153
 3082TIP3    H230738   1.310   3.537   1.560 -0.1611 -0.3704  0.5778
 3083TIP3   OH230739   6.355   6.744  13.077 -0.6844 -0.7103 -0.7240
 3083TIP3    H130740   6.410   6.753  13.000  0.4355 -0.1976  0.1176
 3083TIP3    H230741   6.295   6.673  13.056  2.0037 -3.0664 -0.6716
 3084TIP3   OH230742   4.065   4.869  14.258  0.0372 -0.4528 -0.3955
 3084TIP3    H130743   3.996   4.901  14.317  1.7110  1.4211  0.6019
 3084TIP3    H230744   4.045   4.776  14.246 -0.3433 -0.8983  3.1630
 3085TIP3   OH230745   6.139   6.433   1.151 -0.6861 -0.2497 -0.2313
 3085TIP3    H130746   6.128   6.507   1.091 -1.1599 -0.8164 -0.8465
 3085TIP3    H230747   6.150   6.474   1.237 -2.2955  0.5010 -0.3627
 3086TIP3   OH230748   5.079   0.342  14.884  0.5187 -0.3540  0.2184
 3086TIP3    H130749   5.126   0.415  14.924  0.2769 -0.1469  0.1242
 3086TIP3    H230750   5.147   0.285  14.849  0.7302 -0.5021  0.8700
 3087TIP3   OH230751   0.319   3.013  17.076 -0.0975  0.2285 -0.3009
 3087TIP3    H130752   0.277   2.938  17.034  1.0865 -1.3657  1.2785
 3087TIP3    H230753   0.397   3.030  17.023  1.3530 -1.7291  1.1025
 3088TIP3   OH230754   3.107   5.109  11.882 -0.4713  0.2310  0.1342
 3088TIP3    H130755   3.045   5.124  11.954 -1.8109 -0.3167 -0.8838
 3088TIP3    H230756   3.083   5.023  11.847 -1.8893  1.8300 -2.9658
 3089TIP3   OH230757   0.529   4.441   0.546 -0.6042  0.0287 -0.0029
 3089TIP3    H130758   0.538   4.348   0.529 -2.6794 -0.1451 -0.1551
 3089TIP3    H230759   0.498   4.447   0.636 -0.3983  0.5808  0.0360
 3090TIP3   OH230760   6.435   2.288  13.363 -0.0324  0.1788  0.1219
 3090TIP3    H130761   6.420   2.351  13.291  0.4519  0.1590  0.0056
 3090TIP3    H230762   6.529   2.291  13.378 -0.0841 -0.1118  0.4946
 3091TIP3   OH230763   0.663   5.821  14.449 -0.4684  0.6602  0.2112
 3091TIP3    H130764   0.661   5.778  14.363 -1.2467 -2.8021  1.8640
 3091TIP3    H230765   0.755   5.839  14.464 -0.1556 -0.0755 -0.7336
 3092TIP3   OH230766   3.229   4.518  15.735  0.0620  0.4195  0.0955
 3092TIP3    H130767   3.305   4.501  15.679 -0.5221  0.2386 -0.6423
 3092TIP3    H230768   3.255   4.485  15.821  0.8995  0.5477 -0.1010
 3093TIP3   OH230769   2.957   0.957   0.675  0.4480 -0.3639 -0.0015
 3093TIP3    H130770   3.051   0.976   0.683  0.5600 -0.7203 -0.4600
 3093TIP3    H230771   2.915   1.043   0.674  0.9923 -0.1069 -2.5274
 3094TIP3   OH230772   1.521   2.303  13.188 -0.0349  0.4501 -0.8161
 3094TIP3    H130773   1.580   2.349  13.127 -0.7056 -0.1692 -1.9509
 3094TIP3    H230774   1.436   2.304  13.144  0.1203 -2.6881 -1.3185
 3095TIP3   OH230775   5.066   2.590  15.144 -0.6132 -0.2672 -0.4741
 3095TIP3    H130776   5.077   2.497  15.127  1.8318 -0.5555  2.2158
 3095TIP3    H230777   5.092   2.633  15.063  0.5990 -1.8668 -0.9529
 3096TIP3   OH230778   2.473   2.578  13.447  0.1328  0.1815  0.2241
 3096TIP3    H130779   2.431   2.501  13.486  1.5687 -1.0858 -0.6588
 3096TIP3    H230780   2.543   2.601  13.509  1.0474 -0.5274 -0.5323
 3097TIP3   OH230781   1.345   0.554  11.223 -0.3412  0.2979 -0.5757
 3097TIP3    H130782   1.314   0.533  11.135  2.0662  2.1510 -1.9210
 3097TIP3    H230783   1.332   0.649  11.231 -0.7386  0.1112  1.1479
 3098TIP3   OH230784   2.312   2.363  12.079  0.0138  0.2239 -0.5759
 3098TIP3    H130785   2.232   2.313  12.097  0.9327 -1.7074 -1.7677
 3098TIP3    H230786   2.318   2.424  12.152 -1.9846 -0.3245  0.0890
 3099TIP3   OH230787   1.522   3.246  11.390  0.7832 -0.5029  0.1067
 3099TIP3    H130788   1.570   3.187  11.332  1.8688  0.2032  0.2681
 3099TIP3    H230789   1.532   3.208  11.477  1.3037 -0.2007  0.1816
 3100TIP3   OH230790   6.609   0.347   3.983  0.2038  1.2198 -0.4036
 3100TIP3    H130791   6.595   0.339   4.077 -0.7345  2.7844 -0.3883
 3100TIP3    H230792   6.559   0.274   3.945  0.2904  0.7995  0.2865
 3101TIP3   OH230793   4.473   5.905  15.138  0.3958 -0.3354 -0.4336
 3101TIP3    H130794   4.491   5.821  15.096  1.6615 -0.3002  0.0150
 3101TIP3    H230795   4.512   5.970  15.080  0.4142 -0.1451 -0.2093
 3102TIP3   OH230796   4.138   0.116   3.247 -0.0464 -0.1020 -0.1899
 3102TIP3    H130797   4.097   0.153   3.326  0.1739 -1.9017  0.8137
 3102TIP3    H230798   4.066   0.109   3.184 -0.7123 -0.6798  0.6144
 3103TIP3   OH230799   0.076   1.004  12.387 -0.3974 -0.1965 -0.2257
 3103TIP3    H130800   0.079   1.043  12.299  0.6224  0.1227 -0.0561
 3103TIP3    H230801   0.045   1.074  12.444  2.0421  0.6039  0.1816
 3104TIP3   OH230802   2.536   2.387  12.591 -0.2521  0.1245 -0.2919
 3104TIP3    H130803   2.623   2.425  12.602 -0.1916 -0.6137  2.1120
 3104TIP3    H230804   2.478   2.463  12.581  0.3272  0.7403  0.8566
 3105TIP3   OH230805   0.830   2.772   1.511 -0.2289  0.0321  0.2789
 3105TIP3    H130806   0.917   2.768   1.471 -0.3733  1.8388 -0.2750
 3105TIP3    H230807   0.770   2.777   1.437 -0.7896 -0.8601  0.6645
 3106TIP3   OH230808   1.916   0.307   3.436 -0.6233  0.1892 -0.1807
 3106TIP3    H130809   1.876   0.363   3.369  1.0343  2.4593  0.6618
 3106TIP3    H230810   1.862   0.320   3.514  0.6913  1.8942  0.4652
 3107TIP3   OH230811   3.760   3.396  16.065 -0.4921  0.0067 -0.3501
 3107TIP3    H130812   3.677   3.428  16.101  0.5931 -0.3938  2.6427
 3107TIP3    H230813   3.797   3.471  16.019  0.3073  2.0740  3.4801
 3108TIP3   OH230814   2.338   0.517   0.665  0.3651  0.5088 -0.1883
 3108TIP3    H130815   2.332   0.540   0.572 -0.8654  0.0237 -0.2387
 3108TIP3    H230816   2.253   0.543   0.701 -0.2008 -1.8115  0.2131
 3109TIP3   OH230817   3.891   6.009   1.660 -0.0007 -0.2467 -0.8507
 3109TIP3    H130818   3.901   6.027   1.567 -2.7920  1.3443 -0.9056
 3109TIP3    H230819   3.950   6.070   1.703 -1.6039  1.8069 -1.4735
 3110TIP3   OH230820   0.307   4.786  15.119  0.0615  0.2099 -0.2038
 3110TIP3    H130821   0.390   4.738  15.127  0.2936  0.3675 -1.5935
 3110TIP3    H230822   0.260   4.741  15.048 -0.9805  0.2240  0.4721
 3111TIP3   OH230823   0.325   6.606   6.393  0.6692 -0.3216  0.0436
 3111TIP3    H130824   0.392   6.610   6.462 -0.1837  0.6968  0.8235
 3111TIP3    H230825   0.255   6.553   6.430 -0.2639  1.1253  0.4043
 3112TIP3   OH230826   3.827   0.795  13.548 -0.2468 -0.6647 -0.1129
 3112TIP3    H130827   3.855   0.803  13.457 -1.8101  2.3470 -0.3920
 3112TIP3    H230828   3.837   0.702  13.569 -0.3024 -1.4697 -3.4731
 3113TIP3   OH230829   0.352   4.826  13.317  0.2807  0.7670 -0.0792
 3113TIP3    H130830   0.443   4.835  13.346 -0.0546 -0.5376  1.4481
 3113TIP3    H230831   0.351   4.744  13.267 -0.0372  0.7895 -0.1108
 3114TIP3   OH230832   3.566   2.718   4.407 -0.1624 -0.1610  0.5417
 3114TIP3    H130833   3.599   2.639   4.449 -0.7533 -1.1322 -0.7698
 3114TIP3    H230834   3.477   2.728   4.442  0.6027  1.0809  2.2246
 3115TIP3   OH230835   5.976   4.103   5.802 -0.1740 -0.2582  0.2781
 3115TIP3    H130836   5.945   4.013   5.816  0.6391 -0.4383  1.0078
 3115TIP3    H230837   5.898   4.151   5.774 -0.6247 -1.1821 -0.0837
 3116TIP3   OH230838   1.052   1.871  16.496 -0.6250 -0.2094  0.6361
 3116TIP3    H130839   1.095   1.787  16.513 -1.4175 -1.0915 -1.5959
 3116TIP3    H230840   0.967   1.863  16.540 -0.0924  0.0565  1.7535
 3117TIP3   OH230841   2.540   3.753   2.705  0.3608 -0.9190 -0.6123
 3117TIP3    H130842   2.448   3.727   2.717  0.1206 -1.1310 -2.7322
 3117TIP3    H230843   2.536   3.831   2.650  1.3986  0.1341  0.7537
 3118TIP3   OH230844   4.789   6.085  14.473  0.5479 -0.1621 -0.1076
 3118TIP3    H130845   4.792   6.115  14.564  1.5147 -0.7906  0.0779
 3118TIP3    H230846   4.701   6.049  14.462 -0.1357  1.4117  0.0880
 3119TIP3   OH230847   5.853   0.938   3.724 -0.3006 -0.8816  0.0355
 3119TIP3    H130848   5.869   0.947   3.817 -1.3148 -1.9214  0.3260
 3119TIP3    H230849   5.787   1.004   3.704  0.0093 -0.5745  0.0265
 3120TIP3   OH230850   1.409   0.795  16.586 -0.4094  0.1079  0.5094
 3120TIP3    H130851   1.364   0.761  16.509 -0.3244 -0.9581  0.9178
 3120TIP3    H230852   1.340   0.836  16.638 -0.6519 -0.1406  0.3860
 3121TIP3   OH230853   3.192   5.524  16.965  0.0294  0.1643 -0.3952
 3121TIP3    H130854   3.112   5.575  16.979 -0.3517 -0.7231  0.7758
 3121TIP3    H230855   3.186   5.453  17.029  0.2640 -1.6668 -2.3717
 3122TIP3   OH230856   4.406   0.271   2.813  0.0637  0.1958  0.2913
 3122TIP3    H130857   4.359   0.281   2.731 -1.1168 -0.5434  0.8625
 3122TIP3    H230858   4.399   0.357   2.855 -0.4744  0.1884  0.2171
 3123TIP3   OH230859   2.848   3.524   2.000 -0.1323  0.2023  0.2041
 3123TIP3    H130860   2.918   3.468   1.966  0.3394 -0.3803  2.0921
 3123TIP3    H230861   2.769   3.494   1.956  0.5190 -0.3227 -0.6130
 3124TIP3   OH230862   3.200   2.150   6.487  0.2389 -0.0975 -0.1903
 3124TIP3    H130863   3.242   2.228   6.451  0.4067 -0.1614 -0.1314
 3124TIP3    H230864   3.250   2.130   6.566  0.3709 -0.4350 -0.3614
 3125TIP3   OH230865   5.827   5.381  14.811  0.3683 -0.6542 -0.4018
 3125TIP3    H130866   5.745   5.378  14.861  0.3888  0.5596 -0.2826
 3125TIP3    H230867   5.798   5.378  14.719  0.1241  0.6424 -0.3824
 3126TIP3   OH230868   4.907   3.873   5.251  0.3016  0.0110 -0.0693
 3126TIP3    H130869   4.991   3.886   5.208  0.0119 -1.4525 -1.1035
 3126TIP3    H230870   4.843   3.912   5.191  0.2203  0.9926  0.6468
 3127TIP3   OH230871   1.930   3.249  13.115  0.1381  0.7147 -0.1212
 3127TIP3    H130872   1.936   3.161  13.153 -2.2455  0.5033 -0.1576
 3127TIP3    H230873   1.981   3.304  13.174 -0.3080 -0.2954  1.2542
 3128TIP3   OH230874   0.426   6.488   2.693  0.6729  0.2223 -0.6840
 3128TIP3    H130875   0.435   6.395   2.717  0.7407  0.6684  1.0543
 3128TIP3    H230876   0.515   6.523   2.698  0.3375  0.8786  0.7609
 3129TIP3   OH230877   0.595   3.306  11.507 -0.1748 -0.0978 -0.9686
 3129TIP3    H130878   0.508   3.342  11.527  1.2531  3.0542  0.0767
 3129TIP3    H230879   0.633   3.369  11.446  1.8596 -0.6706 -0.3401
 3130TIP3   OH230880   2.254   3.280   5.768 -0.7519 -0.9292 -0.0349
 3130TIP3    H130881   2.179   3.282   5.827 -1.2634  0.0688 -0.7025
 3130TIP3    H230882   2.222   3.238   5.689 -1.0621  0.8583 -0.8965
 3131TIP3   OH230883   5.526   0.513   0.947  0.3514  0.2848 -0.4698
 3131TIP3    H130884   5.552   0.598   0.981  1.0381  0.4352 -1.3515
 3131TIP3    H230885   5.436   0.502   0.975  0.8716  0.4501  1.3152
 3132TIP3   OH230886   3.784   4.169  10.441 -0.2412  0.1238  0.4894
 3132TIP3    H130887   3.799   4.075  10.439  0.4769  0.2432 -1.9953
 3132TIP3    H230888   3.705   4.181  10.493  1.0957 -1.6257  3.0117
 3133TIP3   OH230889   5.032   2.860   0.973 -0.7239 -0.2237 -0.2420
 3133TIP3    H130890   5.033   2.783   0.916  1.6345 -0.0231 -0.4840
 3133TIP3    H230891   5.001   2.930   0.916  0.5854 -0.2521 -1.0025
 3134TIP3   OH230892   2.739   2.114  15.535 -0.1372  0.5408  0.1450
 3134TIP3    H130893   2.819   2.078  15.496 -1.6499 -1.8316 -0.9185
 3134TIP3    H230894   2.680   2.039  15.541 -2.6133  2.4168  0.0541
 3135TIP3   OH230895   4.136   2.650   3.937  0.1604 -0.2282 -0.1734
 3135TIP3    H130896   4.076   2.606   3.997 -1.1239  1.5419 -0.1166
 3135TIP3    H230897   4.145   2.590   3.863 -1.4771 -0.6273 -0.0673
 3136TIP3   OH230898   1.685   6.807   0.541 -0.4225 -0.0888 -0.1770
 3136TIP3    H130899   1.756   6.858   0.579 -0.2938  0.6412 -1.3728
 3136TIP3    H230900   1.644   6.866   0.478 -0.1463 -1.5195 -1.7438
 3137TIP3   OH230901   4.674   5.777   4.831  0.3790  0.2952 -0.2073
 3137TIP3    H130902   4.712   5.695   4.798  2.1174  0.5728  1.0440
 3137TIP3    H230903   4.691   5.841   4.762  0.4445 -0.0193 -0.4837
 3138TIP3   OH230904   0.417   4.501  16.915 -0.4025 -0.0525 -0.0967
 3138TIP3    H130905   0.370   4.580  16.887  1.6384  1.0231 -0.5604
 3138TIP3    H230906   0.375   4.431  16.866 -1.2454  0.9430 -0.8388
 3139TIP3   OH230907   4.785   0.049   3.292 -0.0426 -0.0633 -0.7082
 3139TIP3    H130908   4.850   0.071   3.359 -2.2102  1.3119  1.0053
 3139TIP3    H230909   4.794  -0.046   3.281  1.1868 -0.1232  0.6224
 3140TIP3   OH230910   1.253   4.886  12.628  0.1424  0.8227  0.1847
 3140TIP3    H130911   1.327   4.939  12.598  1.4360 -1.4080 -0.6673
 3140TIP3    H230912   1.273   4.869  12.720  0.6835  0.2313 -0.0409
 3141TIP3   OH230913   6.528   1.294   2.952  0.3487 -0.4237  0.3438
 3141TIP3    H130914   6.438   1.325   2.951 -0.1801 -1.8467  1.5795
 3141TIP3    H230915   6.579   1.368   2.984 -0.3121  0.5610 -0.8629
 3142TIP3   OH230916   1.686   6.022  14.790  0.5113 -0.0809 -0.5180
 3142TIP3    H130917   1.693   5.971  14.871  2.3267  0.6519 -0.1899
 3142TIP3    H230918   1.592   6.025  14.772  0.1768 -1.2627  0.9114
 3143TIP3   OH230919   6.268   4.312  12.184 -0.2471 -0.8268  0.1040
 3143TIP3    H130920   6.242   4.258  12.110 -1.5052 -0.0967 -0.0023
 3143TIP3    H230921   6.189   4.359  12.208  0.5920  0.2436  0.8138
 3144TIP3   OH230922   3.444   0.895   3.610 -0.4813 -0.6501 -0.1396
 3144TIP3    H130923   3.537   0.875   3.616 -0.8076 -1.4470  3.7408
 3144TIP3    H230924   3.401   0.823   3.656 -3.0309 -0.2219 -1.7390
 3145TIP3   OH230925   1.648   0.939  11.598  0.3652  0.5080 -0.2405
 3145TIP3    H130926   1.585   0.878  11.635  0.8136 -0.8215 -1.6000
 3145TIP3    H230927   1.657   0.912  11.506 -0.0275  3.1220 -1.0977
 3146TIP3   OH230928   1.070   2.179  13.334  0.1456 -0.3339  0.3003
 3146TIP3    H130929   1.067   2.160  13.240 -1.5134  0.1238  0.2457
 3146TIP3    H230930   1.051   2.272  13.341  1.9873  0.0126  0.9958
 3147TIP3   OH230931   4.122   4.156   3.616 -0.2822  0.0566 -0.1395
 3147TIP3    H130932   4.124   4.226   3.550  3.1904  1.7237  1.5785
 3147TIP3    H230933   4.094   4.200   3.696 -2.0992 -1.4370  0.0595
 3148TIP3   OH230934   6.634   2.646  16.792 -0.7445 -0.9001 -0.1086
 3148TIP3    H130935   6.608   2.667  16.703 -0.4486 -0.8141 -0.1755
 3148TIP3    H230936   6.551   2.629  16.838 -0.8846 -1.0851 -0.4335
 3149TIP3   OH230937   6.322   3.093  16.193  0.4286  0.7486 -0.2814
 3149TIP3    H130938   6.394   3.109  16.254  0.6118  2.7074 -0.9710
 3149TIP3    H230939   6.314   2.998  16.188  1.0185  0.5678  2.0707
 3150TIP3   OH230940   1.968   6.458  17.019  0.1665  0.2354  0.0103
 3150TIP3    H130941   1.957   6.401  16.943 -1.3066  1.4909 -0.7547
 3150TIP3    H230942   2.005   6.401  17.086 -1.0544 -1.5894 -0.7931
 3151TIP3   OH230943   5.999   5.612   0.531  0.6298  0.2397  0.8074
 3151TIP3    H130944   6.040   5.587   0.448 -0.3852 -0.8608  0.6275
 3151TIP3    H230945   6.072   5.644   0.584  1.3920  0.3466 -0.2726
 3152TIP3   OH230946   2.047   3.238   1.261 -0.3955 -0.4281 -0.0918
 3152TIP3    H130947   2.022   3.162   1.313 -1.1670  0.6094  1.0818
 3152TIP3    H230948   1.967   3.291   1.256 -0.0828 -0.0761 -1.5756
 3153TIP3   OH230949   1.598   5.774   1.982 -0.3411 -0.0119  0.1739
 3153TIP3    H130950   1.611   5.857   2.028 -1.2788  0.1709  0.1168
 3153TIP3    H230951   1.570   5.800   1.894 -0.3488 -0.3811  0.0684
 3154TIP3   OH230952   5.687   5.218   3.276  0.6377 -0.6641 -0.8312
 3154TIP3    H130953   5.671   5.196   3.367 -1.7455 -0.7423 -1.2366
 3154TIP3    H230954   5.633   5.295   3.260  0.8250 -0.8147 -2.2473
 3155TIP3   OH230955   0.239   1.111   6.702 -0.1358  0.2170  0.4599
 3155TIP3    H130956   0.213   1.068   6.620  1.2417  0.8676 -0.3398
 3155TIP3    H230957   0.219   1.047   6.770 -0.6301 -0.6219 -0.4547
 3156TIP3   OH230958   5.627   0.131  17.142  0.0458  0.3375  0.0262
 3156TIP3    H130959   5.702   0.079  17.114 -0.6902 -1.2192  0.8637
 3156TIP3    H230960   5.551   0.076  17.121 -0.7218  0.8956  1.2923
 3157TIP3   OH230961   2.629   6.250  14.437 -0.4012  0.2564  0.4390
 3157TIP3    H130962   2.674   6.235  14.519  0.9162  2.1289  0.0951
 3157TIP3    H230963   2.662   6.182  14.378 -0.3500 -0.2677  1.0752
 3158TIP3   OH230964   0.920   3.369   1.944 -0.7655  0.3075 -0.6794
 3158TIP3    H130965   0.984   3.393   1.877 -0.8858 -1.5977 -1.4913
 3158TIP3    H230966   0.856   3.440   1.943  1.4099  2.3578  0.2810
 3159TIP3   OH230967   4.537   4.755   4.459 -0.1165  0.5181  0.0515
 3159TIP3    H130968   4.625   4.758   4.498  0.0775 -1.0062 -0.2605
 3159TIP3    H230969   4.483   4.805   4.520  0.9592  1.4509  0.2633
 3160TIP3   OH230970   1.401   1.534   4.143  0.1591  0.4926  0.2841
 3160TIP3    H130971   1.351   1.561   4.066  2.1425  0.2319 -1.1445
 3160TIP3    H230972   1.461   1.607   4.159  2.5680 -1.1160 -0.9598
 3161TIP3   OH230973   3.536   1.831  14.211 -0.1533  0.1549  0.5504
 3161TIP3    H130974   3.589   1.776  14.268  0.1189 -0.4432 -0.2802
 3161TIP3    H230975   3.472   1.872  14.269  0.9213  0.5248  1.4820
 3162TIP3   OH230976   0.131   3.636  13.855  0.0259 -0.8254  0.3404
 3162TIP3    H130977   0.099   3.556  13.897 -0.6263  0.4958  2.4749
 3162TIP3    H230978   0.059   3.664  13.798  0.0485 -1.4706 -0.0082
 3163TIP3   OH230979   0.218   6.018   1.852 -0.1607  0.3399  0.4287
 3163TIP3    H130980   0.156   5.947   1.835 -0.1531  0.5240 -0.4037
 3163TIP3    H230981   0.299   5.973   1.876  0.0901  0.0241 -0.9404
 3164TIP3   OH230982   5.289   2.377   0.149 -0.4396  0.2466 -0.2436
 3164TIP3    H130983   5.298   2.282   0.138 -1.4308 -0.0902  1.5432
 3164TIP3    H230984   5.305   2.392   0.243 -0.2613  1.8480 -0.5186
 3165TIP3   OH230985   3.192   1.994   2.699  0.1559 -0.6278  0.1970
 3165TIP3    H130986   3.249   1.954   2.765  0.6921  0.0950  0.1789
 3165TIP3    H230987   3.118   1.934   2.691  1.4055 -2.0855 -0.5169
 3166TIP3   OH230988   3.183   0.585  17.146 -0.0447  0.2137  0.5107
 3166TIP3    H130989   3.271   0.573  17.180  0.0715  0.6931  0.3877
 3166TIP3    H230990   3.193   0.582  17.051  0.2817  2.9978  0.3956
 3167TIP3   OH230991   4.109   1.305   5.628 -0.3986  0.5102  0.3866
 3167TIP3    H130992   4.077   1.338   5.544 -1.3736 -0.8963  0.1841
 3167TIP3    H230993   4.182   1.248   5.605 -0.9149 -0.1852  0.4512
 3168TIP3   OH230994   4.600   6.459  12.593 -0.2908 -0.0806  0.0994
 3168TIP3    H130995   4.573   6.385  12.539 -0.3084 -0.8503  1.1300
 3168TIP3    H230996   4.685   6.485  12.558  0.7713 -2.0455  1.0943
 3169TIP3   OH230997   4.785   5.610   0.567 -0.2855 -0.6512 -0.2048
 3169TIP3    H130998   4.722   5.678   0.543  0.7910  0.6429  0.5509
 3169TIP3    H230999   4.793   5.556   0.488 -0.9271  0.2790 -0.9231
 3170TIP3   OH231000   1.047   6.502  14.007  0.1295 -0.2005  0.8927
 3170TIP3    H131001   1.035   6.434  13.941  1.8024 -0.9206  1.2850
 3170TIP3    H231002   1.003   6.468  14.084  0.0594 -0.3732  0.7789
 3171TIP3   OH231003   3.099   3.142  15.031  0.2347 -0.6667 -0.9902
 3171TIP3    H131004   3.113   3.234  15.051  0.3264 -0.8094 -0.3845
 3171TIP3    H231005   3.174   3.097  15.072 -1.2451 -1.2975  1.1226
 3172TIP3   OH231006   1.030   2.089  13.590  0.9431  0.4750  0.0080
 3172TIP3    H131007   1.032   2.099  13.495  0.4009  0.8658  0.0370
 3172TIP3    H231008   1.004   1.998  13.604 -2.9218  1.4644 -0.2092
 3173TIP3   OH231009   2.060   0.944  16.674 -0.0529  0.1098 -0.1733
 3173TIP3    H131010   2.079   1.010  16.608 -2.2972  1.2979  0.2946
 3173TIP3    H231011   2.144   0.923  16.714  1.1137  0.3917 -2.4482
 3174TIP3   OH231012   1.054   4.183   5.444  0.5218 -0.3624  0.5982
 3174TIP3    H131013   1.038   4.182   5.539 -2.7873 -2.1345  0.0883
 3174TIP3    H231014   1.072   4.092   5.422 -1.3291 -0.4217 -0.8134
 3175TIP3   OH231015   1.635   2.632   0.054  0.5484 -0.2717 -0.7332
 3175TIP3    H131016   1.713   2.642   0.109  0.7995 -0.3556 -1.0772
 3175TIP3    H231017   1.572   2.693   0.091 -0.2167 -2.2296  1.3397
 3176TIP3   OH231018   2.362   0.243  17.067  0.2345  0.0596  0.0796
 3176TIP3    H131019   2.416   0.315  17.034  1.4243 -0.9332 -0.1717
 3176TIP3    H231020   2.424   0.185  17.112 -0.8130 -0.4822  0.8507
 3177TIP3   OH231021   6.587   6.569   5.407 -0.2098  0.7202 -0.3865
 3177TIP3    H131022   6.622   6.499   5.352  0.1235 -0.0545  0.7904
 3177TIP3    H231023   6.496   6.542   5.424  0.1205  0.2206  0.6217
 3178TIP3   OH231024   5.205   0.948  15.977 -0.0464  0.2667  0.1082
 3178TIP3    H131025   5.219   0.960  15.883  0.6574  1.5422  0.3610
 3178TIP3    H231026   5.125   0.996  15.996  1.9496  3.4229  0.8505
 3179TIP3   OH231027   3.390   6.296  10.222  0.2634  0.1711  0.1439
 3179TIP3    H131028   3.320   6.323  10.281 -0.0039  2.0459 -0.9879
 3179TIP3    H231029   3.439   6.230  10.271 -1.9712 -0.8081  1.1532
 3180TIP3   OH231030   6.424   6.160   1.111  0.3592 -0.4455  0.3936
 3180TIP3    H131031   6.333   6.175   1.083 -0.6962  0.0756  3.8480
 3180TIP3    H231032   6.470   6.239   1.082 -0.0072 -1.1479 -2.2847
 3181TIP3   OH231033   1.423   3.992  13.236  0.8510  0.1430  0.6094
 3181TIP3    H131034   1.470   4.030  13.161 -0.4241 -2.0666 -1.3681
 3181TIP3    H231035   1.332   3.986  13.206  0.0114  0.6822  2.9449
 3182TIP3   OH231036   2.722   4.199  11.237  0.2586  0.4533 -0.3010
 3182TIP3    H131037   2.632   4.196  11.270 -0.4913 -0.6369 -2.2952
 3182TIP3    H231038   2.769   4.135  11.290 -0.8650 -1.0978 -1.1168
 3183TIP3   OH231039   4.815   1.220  11.905 -0.1044 -0.2683  0.3423
 3183TIP3    H131040   4.736   1.173  11.875 -0.0877 -0.6640  0.9109
 3183TIP3    H231041   4.782   1.286  11.966 -0.0581  0.0091  0.0698
 3184TIP3   OH231042   0.984   4.050   1.437 -0.2606  0.0303  0.0229
 3184TIP3    H131043   1.047   4.050   1.365 -1.6688 -0.4605 -1.2273
 3184TIP3    H231044   0.978   4.142   1.463  1.5028 -0.0083  0.6548
 3185TIP3   OH231045   6.731   0.093   4.004 -0.1457  0.4390  0.3716
 3185TIP3    H131046   6.668   0.142   3.952 -2.1370  0.0747  2.3906
 3185TIP3    H231047   6.705   0.001   3.994  1.4903  0.0527 -0.6289
 3186TIP3   OH231048   4.569   1.422  11.727 -0.0145  0.1811  0.6890
 3186TIP3    H131049   4.555   1.339  11.772 -0.3165  0.4139  1.0282
 3186TIP3    H231050   4.658   1.416  11.692  0.4914  0.2878  1.9323
 3187TIP3   OH231051   6.799   2.315   4.620  0.0846  0.2789 -0.0073
 3187TIP3    H131052   6.873   2.263   4.589 -0.0707 -0.6555  1.1147
 3187TIP3    H231053   6.822   2.405   4.601  0.9483 -0.1096 -0.8165
 3188TIP3   OH231054   5.210   2.484  13.222  0.4309  0.0839 -0.2992
 3188TIP3    H131055   5.214   2.407  13.278  0.6273 -0.4021 -0.9824
 3188TIP3    H231056   5.299   2.496  13.191  0.3696  0.5002 -0.3137
 3189TIP3   OH231057   4.885   0.140   4.353 -0.3066 -0.0267 -0.2977
 3189TIP3    H131058   4.877   0.235   4.359  1.8414  0.0656  1.7926
 3189TIP3    H231059   4.970   0.125   4.313 -1.2561 -1.0958 -1.9961
 3190TIP3   OH231060   2.080   4.437   3.139 -0.2720 -0.4110  0.0583
 3190TIP3    H131061   2.010   4.374   3.154 -0.2858 -0.1381  1.1808
 3190TIP3    H231062   2.141   4.422   3.211 -0.2208  0.7717  0.2659
 3191TIP3   OH231063   5.201   4.266   5.855 -0.3972 -0.5174 -0.1549
 3191TIP3    H131064   5.153   4.344   5.828 -0.6038 -0.4248  0.4592
 3191TIP3    H231065   5.293   4.289   5.844 -0.4618 -0.2360 -0.1021
 3192TIP3   OH231066   0.390   5.053  15.341 -0.4930 -0.6198 -0.3520
 3192TIP3    H131067   0.360   4.970  15.379  2.5086 -1.7033 -0.2283
 3192TIP3    H231068   0.385   5.040  15.247 -2.9142  0.1821 -0.3617
 3193TIP3   OH231069   1.025   0.208   2.954 -0.1020 -0.6499  0.1853
 3193TIP3    H131070   0.934   0.184   2.937  0.0370 -0.7892 -0.3699
 3193TIP3    H231071   1.070   0.188   2.873  0.5607 -1.2631  0.6955
 3194TIP3   OH231072   2.657   4.093  16.999  0.0850  0.0017  0.1224
 3194TIP3    H131073   2.722   4.085  17.068  1.1606 -0.4142 -0.9244
 3194TIP3    H231074   2.676   4.022  16.939  0.0514  1.1908 -1.3364
 3195TIP3   OH231075   0.686   4.978  14.572 -0.1482  1.0370 -0.0394
 3195TIP3    H131076   0.685   4.973  14.667 -0.2545  0.7389 -0.0545
 3195TIP3    H231077   0.596   4.999  14.548 -0.2918  0.3315 -0.1143
 3196TIP3   OH231078   1.159   1.084   0.059  0.1654  0.5449 -0.0438
 3196TIP3    H131079   1.237   1.074   0.112  2.6182  0.6015 -3.4936
 3196TIP3    H231080   1.142   0.996   0.024  1.1064  1.2977 -2.4886
 3197TIP3   OH231081   4.062   3.637  15.489  0.1140  0.5105  0.1192
 3197TIP3    H131082   3.979   3.592  15.478  1.3624 -2.0822  0.8867
 3197TIP3    H231083   4.077   3.637  15.584  2.1923 -1.3507 -0.1799
 3198TIP3   OH231084   2.806   3.175   0.777  0.3588  0.0035  0.3285
 3198TIP3    H131085   2.723   3.127   0.780  0.0129  0.6144  0.7390
 3198TIP3    H231086   2.783   3.260   0.741  0.6667  0.4601  1.2037
 3199TIP3   OH231087   1.179   1.856  13.974  0.2775  0.3343 -0.5515
 3199TIP3    H131088   1.259   1.874  13.925  1.0241  0.0347  0.5389
 3199TIP3    H231089   1.191   1.902  14.057 -1.4116  1.6577 -1.0286
 3200TIP3   OH231090   4.168   5.806   3.149  0.2836 -0.0635 -0.2497
 3200TIP3    H131091   4.097   5.805   3.085  0.9206 -1.9032 -0.9802
 3200TIP3    H231092   4.141   5.743   3.216  0.2815  0.7825  0.5552
 3201TIP3   OH231093   2.443   0.102   2.866  0.1915 -0.2609 -0.6267
 3201TIP3    H131094   2.486   0.046   2.931 -1.3606 -1.2068 -0.3911
 3201TIP3    H231095   2.411   0.040   2.800 -0.2824  0.4897 -1.1004
 3202TIP3   OH231096   5.836   2.917   3.129  0.1788  0.5551  0.3458
 3202TIP3    H131097   5.928   2.903   3.151 -0.0774 -1.4169  0.3094
 3202TIP3    H231098   5.837   2.987   3.064  1.6661  0.3620  0.1427
 3203TIP3   OH231099   3.068   2.520   3.689 -0.3476  0.2398  0.6040
 3203TIP3    H131100   3.156   2.504   3.655 -0.6842  0.7449 -0.5394
 3203TIP3    H231101   3.012   2.462   3.638 -1.0078  1.8013 -0.4827
 3204TIP3   OH231102   6.465   0.525   1.150 -0.5509 -0.6718  0.0238
 3204TIP3    H131103   6.492   0.574   1.228  0.7252 -0.2494 -0.6696
 3204TIP3    H231104   6.547   0.502   1.107 -1.2620 -0.7561 -1.2845
 3205TIP3   OH231105   1.388   3.786   6.092 -0.2167  0.0364  0.4881
 3205TIP3    H131106   1.451   3.813   6.160 -1.8427  0.8385  1.7067
 3205TIP3    H231107   1.337   3.865   6.075  0.3595 -0.0739 -1.9241
 3206TIP3   OH231108   4.691   5.581   0.206  0.1778  0.4361 -0.3740
 3206TIP3    H131109   4.778   5.601   0.241  0.2171 -0.5183  0.0786
 3206TIP3    H231110   4.669   5.657   0.152 -0.0537  2.0939  1.9832
 3207TIP3   OH231111   0.472   4.544  12.036 -0.0076 -0.2782 -0.7728
 3207TIP3    H131112   0.515   4.617  12.079 -1.0731 -0.2738  0.3020
 3207TIP3    H231113   0.398   4.584  11.990  0.5121 -0.4280 -1.7573
 3208TIP3   OH231114   5.630   3.308  11.365 -0.5500 -0.1879 -0.0297
 3208TIP3    H131115   5.702   3.309  11.301  1.7836  1.4210  2.4729
 3208TIP3    H231116   5.610   3.401  11.379  0.1540 -0.3858  2.7210
 3209TIP3   OH231117   3.723   3.187  11.628 -0.4917 -0.5700 -0.3577
 3209TIP3    H131118   3.665   3.121  11.666 -0.6804  0.1361  0.6030
 3209TIP3    H231119   3.669   3.266  11.624  0.4378  0.1417  0.7046
 3210TIP3   OH231120   0.784   3.279   5.096  0.6723  0.4842 -0.4295
 3210TIP3    H131121   0.806   3.367   5.063  1.8913  0.9135  1.4676
 3210TIP3    H231122   0.694   3.286   5.127  0.8324  1.1277 -0.1050
 3211TIP3   OH231123   4.087   0.306   5.478  0.3300 -0.3245 -0.2549
 3211TIP3    H131124   4.063   0.377   5.417 -0.3951 -1.1548 -0.9483
 3211TIP3    H231125   4.126   0.239   5.422 -0.0070 -0.9404  0.2465
 3212TIP3   OH231126   2.234   5.630   0.844 -0.3163  0.4100 -0.1993
 3212TIP3    H131127   2.160   5.689   0.855 -0.1590  0.5283  0.2785
 3212TIP3    H231128   2.274   5.657   0.761 -3.4843 -2.6853 -2.8405
 3213TIP3   OH231129   0.444   2.181   6.375 -0.2953  0.9977 -0.5465
 3213TIP3    H131130   0.480   2.227   6.299  0.8415 -0.9610 -1.2368
 3213TIP3    H231131   0.509   2.197   6.444  0.2157  0.2668 -0.8493
 3214TIP3   OH231132   1.856   1.744  16.102 -0.6499 -0.3830  0.0150
 3214TIP3    H131133   1.942   1.767  16.067 -1.3521  1.6257 -0.4646
 3214TIP3    H231134   1.796   1.760  16.029 -1.7350  0.8035  1.1393
 3215TIP3   OH231135   2.108   3.258  12.877 -0.3947  0.8696 -0.1234
 3215TIP3    H131136   2.060   3.267  12.959 -2.0161  0.9783 -1.0664
 3215TIP3    H231137   2.082   3.334  12.826 -0.6069 -0.0144 -1.3491
 3216TIP3   OH231138   2.803   0.286   4.947 -0.0988  0.6978  0.2381
 3216TIP3    H131139   2.776   0.362   4.896  0.9957  0.7328 -0.3110
 3216TIP3    H231140   2.881   0.254   4.902  0.4061  0.2332  1.4288
 3217TIP3   OH231141   3.029   0.984  13.918 -0.2719  0.4564 -0.0925
 3217TIP3    H131142   3.116   0.945  13.921 -1.0176 -1.2424 -0.1608
 3217TIP3    H231143   3.042   1.069  13.875  1.8118  1.5712  2.5758
 3218TIP3   OH231144   4.846   2.180  14.010 -0.0648 -0.0146  0.7075
 3218TIP3    H131145   4.911   2.218  14.070 -0.6190  1.3280  0.4658
 3218TIP3    H231146   4.773   2.154  14.067 -0.0531  0.0659  0.7589
 3219TIP3   OH231147   4.166   3.388   1.889  0.2137 -0.0922  0.4114
 3219TIP3    H131148   4.137   3.298   1.877  0.6118 -0.1472 -0.1175
 3219TIP3    H231149   4.218   3.386   1.970 -1.2442  0.0075  1.3708
 3220TIP3   OH231150   4.791   6.626  15.199  0.8768 -0.8778  0.2098
 3220TIP3    H131151   4.881   6.658  15.197  0.3814  0.5567  0.2461
 3220TIP3    H231152   4.785   6.574  15.279  1.3283  0.0731  0.8659
 3221TIP3   OH231153   3.822   0.086  15.452 -0.2634 -0.4042  0.1650
 3221TIP3    H131154   3.875   0.023  15.501  1.2623  1.6833  1.3087
 3221TIP3    H231155   3.825   0.055  15.361 -0.5842 -2.6417  0.9097
 3222TIP3   OH231156   4.849   0.990  14.330 -0.0793  0.1724 -0.7286
 3222TIP3    H131157   4.768   1.011  14.376  0.7233 -0.1883  0.8708
 3222TIP3    H231158   4.918   1.001  14.395  0.9036 -2.1402 -1.3193
 3223TIP3   OH231159   0.544   4.597  14.126 -0.1670 -0.5493 -0.3112
 3223TIP3    H131160   0.607   4.525  14.115  0.5357 -0.1857  1.0972
 3223TIP3    H231161   0.543   4.613  14.221  1.7800  3.0818 -0.7818
 3224TIP3   OH231162   5.390   2.953   0.470 -0.2875 -0.2092 -0.0991
 3224TIP3    H131163   5.332   2.970   0.396  1.6123 -1.1702 -1.8207
 3224TIP3    H231164   5.478   2.970   0.437  0.5445 -0.1515  2.0785
 3225TIP3   OH231165   6.105   1.882  16.403  0.3613 -0.4926  0.1506
 3225TIP3    H131166   6.113   1.899  16.497  1.2551  2.9312 -0.4670
 3225TIP3    H231167   6.011   1.870  16.389 -0.2324  2.5643  1.0132
 3226TIP3   OH231168   3.588   0.460  17.205  0.0809 -0.6352  0.5149
 3226TIP3    H131169   3.653   0.530  17.203  0.3722 -0.9133 -0.2472
 3226TIP3    H231170   3.534   0.476  17.128  1.3633 -2.3645 -0.8050
 3227TIP3   OH231171   4.174   5.794   2.667  0.1255  0.2083  0.3190
 3227TIP3    H131172   4.195   5.882   2.637 -0.6667  0.2649 -0.0862
 3227TIP3    H231173   4.099   5.768   2.614  0.9019 -1.0542 -0.1857
 3228TIP3   OH231174   5.541   6.227  16.455 -0.1761  0.3304  0.2147
 3228TIP3    H131175   5.587   6.271  16.526  1.4785  0.4098 -0.8613
 3228TIP3    H231176   5.486   6.162  16.498  0.2801  0.8503  1.6064
 3229TIP3   OH231177   6.222   3.343  16.368  0.1162  0.1530  0.3184
 3229TIP3    H131178   6.236   3.405  16.297  1.2058 -1.2648 -0.7179
 3229TIP3    H231179   6.224   3.257  16.326 -1.4819 -0.5880  1.7196
 3230TIP3   OH231180   4.808   6.299  12.260  0.2737  0.0058  0.0522
 3230TIP3    H131181   4.883   6.312  12.202  1.5285 -3.2964  0.8179
 3230TIP3    H231182   4.842   6.317  12.348 -0.4258  0.6325  0.1991
 3231TIP3   OH231183   4.706   6.315  15.903  0.0547  0.0052  0.3197
 3231TIP3    H131184   4.652   6.394  15.914 -1.9047 -1.1943 -0.5019
 3231TIP3    H231185   4.672   6.254  15.968  0.3098 -0.8232 -0.3245
 3232TIP3   OH231186   0.878   1.877  14.050  0.4444 -0.6125  0.1665
 3232TIP3    H131187   0.957   1.868  13.998  1.1966  1.5285  0.9171
 3232TIP3    H231188   0.902   1.842  14.136  0.6684  0.2653  0.4677
 3233TIP3   OH231189   4.079   4.809  12.725 -0.5705  0.6268  0.7949
 3233TIP3    H131190   4.172   4.819  12.708 -0.5944  0.3727  0.5293
 3233TIP3    H231191   4.046   4.899  12.731 -0.7363  0.7320 -1.3892
 3234TIP3   OH231192   3.488   5.720   3.229  0.6353  0.3232 -0.3633
 3234TIP3    H131193   3.448   5.646   3.185  1.4445  0.2259 -0.9359
 3234TIP3    H231194   3.423   5.748   3.293  0.4729 -1.1180  0.1212
 3235TIP3   OH231195   1.584   4.700   1.496 -1.0554 -0.2285 -0.9642
 3235TIP3    H131196   1.552   4.783   1.530 -0.7825 -0.1659 -0.8546
 3235TIP3    H231197   1.635   4.662   1.568 -0.4238 -0.0639 -1.3146
 3236TIP3   OH231198   3.700   4.248  13.048  0.2902 -0.0665  0.0010
 3236TIP3    H131199   3.687   4.163  13.007 -2.3932 -0.3555  1.3293
 3236TIP3    H231200   3.663   4.238  13.136 -0.2181  2.5032  0.1313
 3237TIP3   OH231201   0.567   1.318   0.541 -0.2779 -0.0122 -0.1213
 3237TIP3    H131202   0.496   1.340   0.480 -0.4354  0.4691  0.2256
 3237TIP3    H231203   0.522   1.305   0.625  0.0861  0.7348  0.1982
 3238TIP3   OH231204   1.526   6.198  15.464  0.6090  0.4610 -0.0178
 3238TIP3    H131205   1.524   6.106  15.493  2.6781  0.5360  0.4429
 3238TIP3    H231206   1.575   6.243  15.533  0.6666  1.6899 -0.8614
 3239TIP3   OH231207   3.419   0.550  16.949 -0.1563 -0.0644 -0.8971
 3239TIP3    H131208   3.364   0.622  16.921 -0.8375 -0.9499 -1.8697
 3239TIP3    H231209   3.505   0.569  16.911 -0.4450  0.0022 -1.5136
 3240TIP3   OH231210   1.130   3.814   4.908 -0.2500 -0.7096 -0.2784
 3240TIP3    H131211   1.046   3.859   4.897  0.0782  0.5255  1.9886
 3240TIP3    H231212   1.145   3.814   5.002  2.6078 -0.3297 -0.6912
 3241TIP3   OH231213   4.330   4.979  12.792  0.0705 -0.1562  0.2877
 3241TIP3    H131214   4.300   5.067  12.770  0.3522 -0.1112  0.0787
 3241TIP3    H231215   4.341   4.980  12.887  1.8824  0.6061  0.0852
 3242TIP3   OH231216   5.564   6.193  13.977 -0.1206  0.4365 -0.2346
 3242TIP3    H131217   5.519   6.267  14.018 -0.6073 -0.1050  0.2115
 3242TIP3    H231218   5.643   6.232  13.939 -0.0511  1.0844  0.5426
 3243TIP3   OH231219   0.090   0.705  11.508 -0.2116  0.2380  0.4132
 3243TIP3    H131220   0.063   0.690  11.598  0.6433 -0.6457  0.5266
 3243TIP3    H231221   0.185   0.713  11.512 -0.1378 -0.1420 -0.4589
 3244TIP3   OH231222   4.345   2.538  11.186 -0.3050 -0.1698 -0.2906
 3244TIP3    H131223   4.357   2.584  11.102 -0.0637  1.3792  0.5717
 3244TIP3    H231224   4.404   2.583  11.246 -1.4781 -0.3787  1.0422
 3245TIP3   OH231225   4.300   0.657   6.387  0.1946 -0.1993 -0.3824
 3245TIP3    H131226   4.331   0.691   6.471 -2.9028  1.7975  0.0401
 3245TIP3    H231227   4.370   0.676   6.326  2.7209 -2.1203  1.8004
 3246TIP3   OH231228   0.972   1.318  15.856 -0.1772 -0.5215 -0.2973
 3246TIP3    H131229   0.957   1.224  15.850 -2.1708 -0.2397 -0.3181
 3246TIP3    H231230   0.964   1.338  15.949 -0.7520 -0.2392 -0.4030
 3247TIP3   OH231231   4.668   1.719   3.690 -0.0133 -0.4629  0.0970
 3247TIP3    H131232   4.635   1.709   3.601 -2.2452  0.2870  0.8156
 3247TIP3    H231233   4.686   1.813   3.699  0.5370 -0.5863  0.3379
 3248TIP3   OH231234   5.872   2.041   3.184 -0.5126 -0.8534  0.2193
 3248TIP3    H131235   5.811   1.974   3.151  0.6926 -2.1335  0.5319
 3248TIP3    H231236   5.959   2.005   3.166  0.1644  0.9095 -0.1254
 3249TIP3   OH231237   0.762   5.435  12.154 -0.6204 -0.3016 -0.2958
 3249TIP3    H131238   0.847   5.417  12.113 -0.2569  0.0540  0.2832
 3249TIP3    H231239   0.782   5.444  12.248 -1.1443  0.6926 -0.2633
 3250TIP3   OH231240   5.057   3.700   4.693 -0.3715  0.1011 -0.0362
 3250TIP3    H131241   5.136   3.658   4.726 -0.5423  0.3101  0.6459
 3250TIP3    H231242   5.071   3.708   4.599  0.0197 -0.7123 -0.0471
 3251TIP3   OH231243   3.245   3.737   5.866 -0.5206  0.2851  0.0590
 3251TIP3    H131244   3.174   3.732   5.930 -0.6618 -1.7703 -0.2206
 3251TIP3    H231245   3.317   3.779   5.913 -1.5471  1.3497  0.6946
 3252TIP3   OH231246   3.186   3.428   1.081  0.1124  0.2766 -0.2520
 3252TIP3    H131247   3.122   3.380   1.029  0.4603 -1.3523  0.7901
 3252TIP3    H231248   3.153   3.424   1.170  1.9292 -1.1071  0.3967
 3253TIP3   OH231249   2.746   4.723   4.844 -0.4808  0.1792 -0.6143
 3253TIP3    H131250   2.818   4.756   4.897 -1.3013  1.5085 -0.3139
 3253TIP3    H231251   2.697   4.801   4.817 -0.9919 -0.5972 -1.9995
 3254TIP3   OH231252   3.483   5.006  16.610 -0.0227 -0.1736 -0.5450
 3254TIP3    H131253   3.492   5.079  16.672 -2.3130 -2.9678  3.3252
 3254TIP3    H231254   3.403   5.025  16.561 -0.8425 -0.2518  0.7425
 3255TIP3   OH231255   5.089   6.672   0.329 -0.1891  0.0303 -0.0303
 3255TIP3    H131256   5.171   6.719   0.318  0.7827 -1.5229  0.3421
 3255TIP3    H231257   5.068   6.638   0.242  0.1347 -0.4868  0.0936
 3256TIP3   OH231258   1.947   1.133  14.542 -0.4381  0.0590  0.6889
 3256TIP3    H131259   2.014   1.137  14.474 -0.9894 -0.0240  0.1364
 3256TIP3    H231260   1.867   1.163  14.499 -0.6839  0.4973  1.4371
 3257TIP3   OH231261   5.905   3.020  13.686  0.3875  0.6447 -0.5663
 3257TIP3    H131262   5.858   2.947  13.726 -0.6065  2.2120  1.2460
 3257TIP3    H231263   5.973   2.979  13.634 -0.0745 -1.5736  0.5054
 3258TIP3   OH231264   3.287   2.641   4.175  0.9043  0.0015 -0.1344
 3258TIP3    H131265   3.360   2.580   4.173  0.7010 -0.2195 -3.1495
 3258TIP3    H231266   3.209   2.585   4.171  0.5534  0.2832  2.0180
 3259TIP3   OH231267   5.200   5.463  13.225  0.5149  0.0490  0.5467
 3259TIP3    H131268   5.178   5.534  13.164  1.5918  0.3437  0.4844
 3259TIP3    H231269   5.243   5.397  13.170 -0.4451 -0.6398  0.6134
 3260TIP3   OH231270   6.088   3.291   2.664 -0.3684 -0.4163 -0.1514
 3260TIP3    H131271   6.073   3.329   2.578 -0.4415 -1.6093 -0.6826
 3260TIP3    H231272   6.182   3.275   2.668  0.2163  2.9460  1.4281
 3261TIP3   OH231273   2.713   3.648  10.310  0.1523 -0.4118 -0.6455
 3261TIP3    H131274   2.753   3.711  10.250  3.5117 -1.1870  0.6480
 3261TIP3    H231275   2.763   3.657  10.391 -1.3935 -2.4921  0.5924
 3262TIP3   OH231276   3.108   3.162   2.930  0.1045 -0.4169  0.1839
 3262TIP3    H131277   3.115   3.153   2.835 -0.8106 -1.9725  0.2503
 3262TIP3    H231278   3.024   3.204   2.945  1.3910  2.2247  0.2048
 3263TIP3   OH231279   2.674   2.879   3.427 -0.1849  0.1156  0.0346
 3263TIP3    H131280   2.607   2.895   3.360  0.0761  0.6479 -0.1038
 3263TIP3    H231281   2.632   2.819   3.489 -0.6237  0.0650 -0.3085
 3264TIP3   OH231282   4.054   4.850  15.874 -0.2594 -0.4137  0.7282
 3264TIP3    H131283   4.002   4.903  15.934  1.8699  1.9081  0.6206
 3264TIP3    H231284   4.123   4.813  15.929  2.0722  2.2326 -0.2962
 3265TIP3   OH231285   2.009   3.701  14.003  0.3102 -0.2095 -0.3377
 3265TIP3    H131286   2.061   3.740  14.073  0.1385 -1.8429  0.7147
 3265TIP3    H231287   2.070   3.689  13.931  1.0313 -0.6591  0.3450
 3266TIP3   OH231288   4.655   2.192  11.861 -0.5220  0.1343 -0.4777
 3266TIP3    H131289   4.726   2.256  11.870 -0.3597 -0.1760  0.4927
 3266TIP3    H231290   4.615   2.190  11.948  1.1870 -3.0833  0.3056
 3267TIP3   OH231291   1.368   4.786   1.090  0.2115 -0.1027  0.0580
 3267TIP3    H131292   1.363   4.774   1.185  0.2104  0.5193  0.1406
 3267TIP3    H231293   1.368   4.881   1.079  0.9747 -0.1717 -0.5265
 3268TIP3   OH231294   5.211   0.982  16.449 -0.0908 -0.2368  0.4880
 3268TIP3    H131295   5.134   0.932  16.423  1.7490 -2.2974 -1.2247
 3268TIP3    H231296   5.195   1.006  16.540 -2.0284 -2.0586  0.6497
 3269TIP3   OH231297   4.970   4.305  13.453 -0.1222  0.6231  0.3582
 3269TIP3    H131298   4.883   4.323  13.488 -0.2083 -0.9886  1.0153
 3269TIP3    H231299   5.030   4.354  13.509 -0.4594  0.1507  1.1404
 3270TIP3   OH231300   0.175   6.004  15.380 -0.1158 -0.3436 -0.0069
 3270TIP3    H131301   0.096   6.035  15.337 -0.1604  0.2228  0.4849
 3270TIP3    H231302   0.203   5.929  15.328 -0.6194 -0.1511 -0.5525
 3271TIP3   OH231303   0.576   4.785  15.787  0.0658 -0.2555  0.1727
 3271TIP3    H131304   0.580   4.729  15.865 -1.8116  0.5220  0.8544
 3271TIP3    H231305   0.512   4.742  15.730 -0.5370  0.5775  0.2079
 3272TIP3   OH231306   2.032   5.847   2.875  0.0539  0.4641 -0.4220
 3272TIP3    H131307   2.067   5.928   2.838 -0.6167  0.7497 -0.4389
 3272TIP3    H231308   2.099   5.781   2.858  2.2721  1.7623  2.8695
 3273TIP3   OH231309   0.819   1.818   3.864 -0.6872  0.0724 -0.1729
 3273TIP3    H131310   0.737   1.780   3.832 -1.3873  1.0096  0.4716
 3273TIP3    H231311   0.811   1.911   3.843  0.6000  0.0217 -0.9066
 3274TIP3   OH231312   3.741   3.617  14.358 -0.3151  0.3794 -0.2546
 3274TIP3    H131313   3.722   3.685  14.293  0.3103  0.4267 -0.3916
 3274TIP3    H231314   3.656   3.593  14.394 -0.4816  1.5969  0.1596
 3275TIP3   OH231315   2.507   6.393  15.020  0.2520  0.1214  0.0970
 3275TIP3    H131316   2.578   6.429  15.073  0.3496  0.1988 -0.0848
 3275TIP3    H231317   2.506   6.300  15.040  0.7540  0.0289 -0.3019
 3276TIP3   OH231318   0.486   2.116  12.723 -0.2262 -0.0417 -0.2487
 3276TIP3    H131319   0.439   2.186  12.676  1.1133  0.9312 -0.1801
 3276TIP3    H231320   0.435   2.102  12.802 -0.6600  0.6820 -0.3898
 3277TIP3   OH231321   0.337   2.768  11.716  0.5179 -0.2196  0.2133
 3277TIP3    H131322   0.350   2.840  11.655  2.2443 -0.5691  0.1614
 3277TIP3    H231323   0.265   2.717  11.677  0.2277  0.6922 -0.4560
 3278TIP3   OH231324   6.392   2.828  16.249 -0.3895 -0.6911  0.0236
 3278TIP3    H131325   6.487   2.838  16.255 -0.1374 -1.9618 -1.4280
 3278TIP3    H231326   6.372   2.758  16.312 -0.3441 -0.5041  0.2461
 3279TIP3   OH231327   4.296   5.004   2.428  0.0419 -0.0797 -0.3789
 3279TIP3    H131328   4.362   5.010   2.360 -0.3747 -0.7388 -0.8541
 3279TIP3    H231329   4.293   5.091   2.467  1.8973 -0.2997  0.3192
 3280TIP3   OH231330   6.485   0.283  12.108 -0.1784 -0.0548  0.1801
 3280TIP3    H131331   6.451   0.332  12.183  0.2943  0.4288  0.0887
 3280TIP3    H231332   6.526   0.206  12.146 -2.7485 -1.4708  0.1745
 3281TIP3   OH231333   2.073   4.246  13.971  0.3341 -0.2093 -0.0154
 3281TIP3    H131334   2.021   4.322  13.946 -0.2398 -0.2267  1.1251
 3281TIP3    H231335   2.014   4.172  13.957  1.0416 -0.5052 -1.5708
 3282TIP3   OH231336   3.521   5.801   1.146  0.5700 -0.3892  0.0765
 3282TIP3    H131337   3.529   5.796   1.051  0.5015 -0.9025  0.0947
 3282TIP3    H231338   3.427   5.791   1.163  0.5514 -0.0264  0.1800
 3283TIP3   OH231339   4.235   0.329  11.643  0.3155  0.5095 -0.0966
 3283TIP3    H131340   4.152   0.374  11.658 -0.0821 -0.2486 -0.0114
 3283TIP3    H231341   4.224   0.285  11.559  0.7030  0.5523 -0.1734
 3284TIP3   OH231342   0.567   1.826  13.689 -0.1361  0.5633  0.2798
 3284TIP3    H131343   0.628   1.874  13.745  0.4540  0.1845 -0.0294
 3284TIP3    H231344   0.595   1.847  13.600 -0.5425  0.4924  0.1344
 3285TIP3   OH231345   3.333   0.529  14.464  0.1028  0.6841 -0.0781
 3285TIP3    H131346   3.255   0.517  14.410  0.1628 -1.7329  0.3143
 3285TIP3    H231347   3.315   0.481  14.545  2.3174 -0.7060 -0.3527
 3286TIP3   OH231348   6.199   0.164   5.643  0.3350 -0.3310 -1.0035
 3286TIP3    H131349   6.197   0.097   5.574 -0.5010  1.0830 -2.3689
 3286TIP3    H231350   6.203   0.247   5.596 -0.7023  0.6748  0.6544
 3287TIP3   OH231351   2.004   5.662   0.579 -0.7137  0.0625  0.0539
 3287TIP3    H131352   1.944   5.688   0.510 -0.6639  1.4442  0.5126
 3287TIP3    H231353   2.078   5.621   0.533  0.5234  3.2866 -0.9492
 3288TIP3   OH231354   6.263   0.864  12.201 -0.0721 -0.1663  0.5000
 3288TIP3    H131355   6.191   0.864  12.138  0.5141 -0.5389 -0.1707
 3288TIP3    H231356   6.280   0.772  12.219  1.4540 -0.1657 -0.7592
 3289TIP3   OH231357   1.488   5.469   5.823 -0.4243  0.0693 -0.1046
 3289TIP3    H131358   1.581   5.491   5.811 -0.1699 -0.2544  1.2986
 3289TIP3    H231359   1.468   5.495   5.913 -1.3645 -1.0671  0.0262
 3290TIP3   OH231360   1.452   1.050  16.355 -0.2674  0.4681  0.6887
 3290TIP3    H131361   1.503   1.127  16.383  0.1875  0.0505  1.0271
 3290TIP3    H231362   1.474   0.982  16.419 -0.3869 -0.0516  0.1867
 3291TIP3   OH231363   1.655   0.787  12.165  0.6977 -0.4697  0.0585
 3291TIP3    H131364   1.663   0.735  12.084 -1.4761 -1.0347  0.1761
 3291TIP3    H231365   1.587   0.851  12.145  0.8376  0.0088  1.1293
 3292TIP3   OH231366   2.434   5.541  14.908  0.2252  0.2746  0.6540
 3292TIP3    H131367   2.460   5.622  14.951 -0.7760  1.2669 -0.5410
 3292TIP3    H231368   2.343   5.527  14.935  0.0783  0.0958  0.0875
 3293TIP3   OH231369   5.663   1.507  16.441  0.0330  0.1258  0.7647
 3293TIP3    H131370   5.742   1.469  16.481  0.2654  1.2010  1.3637
 3293TIP3    H231371   5.694   1.590  16.404 -0.5717 -0.0157 -0.0479
 3294TIP3   OH231372   1.525   4.933   1.292 -0.6017 -0.4240  0.1834
 3294TIP3    H131373   1.465   4.944   1.365  1.7809  0.7364  2.0411
 3294TIP3    H231374   1.493   4.994   1.225 -0.4153  1.5612  1.8715
 3295TIP3   OH231375   2.165   0.320   6.580 -0.5147 -0.6532 -0.5128
 3295TIP3    H131376   2.132   0.230   6.579 -0.9045 -0.6401  2.9353
 3295TIP3    H231377   2.090   0.374   6.554 -1.1864 -1.1462  0.3579
 3296TIP3   OH231378   5.607   0.437   1.823  0.5697  0.3160  0.2611
 3296TIP3    H131379   5.605   0.452   1.918 -0.2715  0.7040  0.1772
 3296TIP3    H231380   5.628   0.522   1.785 -1.7021  0.7593 -0.0560
 3297TIP3   OH231381   5.824   2.846   4.236 -0.0082  0.4333 -0.1014
 3297TIP3    H131382   5.868   2.901   4.170 -1.3085  1.3750 -0.1959
 3297TIP3    H231383   5.739   2.827   4.198  0.8506 -2.7124 -0.6062
 3298TIP3   OH231384   2.185   4.379   6.468  0.0440 -0.2399 -0.6506
 3298TIP3    H131385   2.212   4.291   6.442 -2.4817 -1.1877 -0.2014
 3298TIP3    H231386   2.211   4.434   6.394  1.6484 -1.3401 -0.9372
 3299TIP3   OH231387   5.056   5.734   4.399 -0.7716 -0.0064  0.0057
 3299TIP3    H131388   5.044   5.814   4.450 -0.8520 -0.4734  0.7164
 3299TIP3    H231389   5.034   5.760   4.309  1.0246  1.2432 -0.0933
 3300TIP3   OH231390   5.359   5.849   3.984  0.4377 -0.0345  0.1594
 3300TIP3    H131391   5.344   5.918   4.050 -1.7578  0.9241 -1.2940
 3300TIP3    H231392   5.299   5.779   4.008 -0.1966  0.2189 -0.6551
 3301TIP3   OH231393   1.576   4.419   0.799  0.1525 -0.3317 -0.0160
 3301TIP3    H131394   1.610   4.508   0.811  1.1477 -0.5602 -0.9905
 3301TIP3    H231395   1.571   4.383   0.887 -2.2957  1.4064  0.5968
 3302TIP3   OH231396   4.620   1.249   0.573  0.8618 -0.4744  0.3986
 3302TIP3    H131397   4.618   1.317   0.505  0.5976 -1.5363 -0.6624
 3302TIP3    H231398   4.559   1.280   0.640 -0.9858 -0.7448 -1.1277
 3303TIP3   OH231399   4.203   2.412   3.807 -0.1594  0.0996 -0.1386
 3303TIP3    H131400   4.282   2.393   3.757 -0.9361 -0.1781 -1.2793
 3303TIP3    H231401   4.198   2.343   3.873 -0.2777 -0.7716 -1.0606
 3304TIP3   OH231402   6.332   6.081   1.646 -0.1419  0.7470 -0.3913
 3304TIP3    H131403   6.333   6.121   1.560  2.6064 -0.3263 -0.9205
 3304TIP3    H231404   6.339   6.154   1.707  3.6983  1.2618 -1.3041
 3305TIP3   OH231405   0.316   3.669  11.281 -0.0086  0.6984  0.6249
 3305TIP3    H131406   0.404   3.707  11.273  0.1246  0.0415 -1.3074
 3305TIP3    H231407   0.258   3.745  11.281  0.6380  1.3133  4.5419
 3306TIP3   OH231408   2.212   5.931  15.244  0.0042  0.1335 -0.6301
 3306TIP3    H131409   2.182   6.020  15.224  0.8562  0.9014  1.3687
 3306TIP3    H231410   2.257   5.940  15.328 -0.8945 -2.4073  0.1382
 3307TIP3   OH231411   0.493   5.503  15.487  0.2328 -0.3719 -0.0045
 3307TIP3    H131412   0.586   5.522  15.482  0.1913  0.4310  1.8008
 3307TIP3    H231413   0.488   5.414  15.521  0.3648  0.0951  1.2974
 3308TIP3   OH231414   5.814   6.369  17.245 -0.5577 -0.0948  0.1482
 3308TIP3    H131415   5.774   6.304  17.187 -2.4255 -1.1602  2.5231
 3308TIP3    H231416   5.901   6.333  17.265 -0.6885 -0.7175 -0.3803
 3309TIP3   OH231417   4.496   3.406   4.285 -0.1285  0.2127  0.6683
 3309TIP3    H131418   4.566   3.368   4.338  1.3105  1.6213 -0.1583
 3309TIP3    H231419   4.520   3.498   4.277 -2.2089  0.7638  0.5391
 3310TIP3   OH231420   2.089   5.594   3.802 -0.3333  0.5683  0.0294
 3310TIP3    H131421   2.037   5.522   3.839  0.4790 -0.5141 -0.8785
 3310TIP3    H231422   2.119   5.560   3.717  0.9660  1.5774  0.0686
 3311TIP3   OH231423   2.902   1.542   4.598 -0.4838  0.1026  0.0395
 3311TIP3    H131424   2.974   1.492   4.559 -0.7454  1.5331 -2.3657
 3311TIP3    H231425   2.943   1.595   4.666  0.3489 -0.7423  0.2109
 3312TIP3   OH231426   1.112   6.444  14.396 -0.8535 -0.2939  0.0867
 3312TIP3    H131427   1.092   6.375  14.460  0.0165 -1.7192 -1.1274
 3312TIP3    H231428   1.042   6.437  14.332  1.1185 -2.4732 -1.9296
 3313TIP3   OH231429   6.374   0.321   2.837 -0.0664 -0.6250 -0.1219
 3313TIP3    H131430   6.368   0.315   2.932 -1.5496  1.6064 -0.0321
 3313TIP3    H231431   6.464   0.348   2.820 -0.1479  0.1982  0.7302
 3314TIP3   OH231432   6.118   3.492  10.949 -0.7637 -0.1688  0.6592
 3314TIP3    H131433   6.121   3.408  10.905 -1.0979 -0.1744  0.6451
 3314TIP3    H231434   6.156   3.476  11.035 -0.8343 -0.3332  0.6583
 3315TIP3   OH231435   4.890   3.835  12.067 -0.2222 -0.5867  0.2593
 3315TIP3    H131436   4.966   3.822  12.011  1.1593  0.3994  1.8676
 3315TIP3    H231437   4.886   3.755  12.120 -0.4208 -0.7068  0.0671
 3316TIP3   OH231438   4.157   3.426   2.654  0.5528 -0.2987 -0.5486
 3316TIP3    H131439   4.203   3.510   2.652  0.4847 -0.2785 -2.0416
 3316TIP3    H231440   4.065   3.449   2.662  0.6839 -0.3091  1.2698
 3317TIP3   OH231441   2.284   2.375   5.919 -0.0912  0.3769  0.1326
 3317TIP3    H131442   2.251   2.313   5.853 -0.7949  0.1336  0.6984
 3317TIP3    H231443   2.237   2.351   5.999  1.9108 -0.3314  1.1030
 3318TIP3   OH231444   0.153   3.062   1.075 -1.1499  0.1707  0.0699
 3318TIP3    H131445   0.199   3.013   1.142 -0.3039  0.5201 -0.2545
 3318TIP3    H231446   0.144   3.150   1.112 -0.6725  0.3661 -0.2813
 3319TIP3   OH231447   6.147   3.497  11.471 -0.5942  0.0221  0.1553
 3319TIP3    H131448   6.177   3.563  11.534  2.5117 -0.2816 -0.9177
 3319TIP3    H231449   6.208   3.424  11.483 -0.4870 -0.3888 -2.5926
 3320TIP3   OH231450   0.681   2.122   3.383 -0.7884  0.1331 -0.1433
 3320TIP3    H131451   0.631   2.176   3.323  0.3077  1.4674  0.1227
 3320TIP3    H231452   0.637   2.133   3.468 -0.3897  0.8518 -0.0280
 3321TIP3   OH231453   0.167   4.958   2.293 -0.6286  0.7611  0.7937
 3321TIP3    H131454   0.104   4.987   2.228 -0.7578  0.8399  0.9562
 3321TIP3    H231455   0.252   4.972   2.251 -0.7137  0.7674  0.6233
 3322TIP3   OH231456   0.516   6.070   4.286  0.2053  0.4085  0.2370
 3322TIP3    H131457   0.451   6.121   4.236 -0.8758 -0.4632  0.7333
 3322TIP3    H231458   0.583   6.047   4.222 -1.3000 -0.9389 -0.8942
 3323TIP3   OH231459   5.947   1.090   3.973  0.0038  0.1158 -1.0304
 3323TIP3    H131460   5.919   1.169   3.927 -0.4609  0.2461 -0.5295
 3323TIP3    H231461   5.883   1.080   4.044  1.5987  0.7993  0.5503
 3324TIP3   OH231462   2.664   0.116  13.863 -0.4291  0.4153  0.0180
 3324TIP3    H131463   2.663   0.105  13.958  0.5155 -0.2415 -0.0436
 3324TIP3    H231464   2.728   0.185  13.847  0.8958 -0.8590 -0.2673
 3325TIP3   OH231465   1.637   1.164   3.464 -0.5842 -0.4759  0.3255
 3325TIP3    H131466   1.615   1.257   3.462 -0.7872 -0.4417  2.8071
 3325TIP3    H231467   1.733   1.162   3.457 -0.5764 -0.0767  0.3356
 3326TIP3   OH231468   2.129   0.882  15.068  0.7107 -0.3594 -0.2483
 3326TIP3    H131469   2.118   0.976  15.055  0.1691 -0.3116  0.5312
 3326TIP3    H231470   2.163   0.874  15.157  1.4105 -0.8679 -0.5523
 3327TIP3   OH231471   4.012   5.958  14.035  0.5028 -0.1713  0.1386
 3327TIP3    H131472   4.099   5.961  13.997  0.5356  1.0347  0.3032
 3327TIP3    H231473   3.953   5.959  13.960  0.5884  1.2295  0.0799
 3328TIP3   OH231474   4.381   4.431   3.418  0.1010  0.1926  0.1297
 3328TIP3    H131475   4.406   4.431   3.510 -1.2151 -1.5096  0.5233
 3328TIP3    H231476   4.450   4.380   3.375  0.5123  0.6583  0.2322
 3329TIP3   OH231477   2.893   4.684   2.087  0.3772  0.5803  0.2604
 3329TIP3    H131478   2.807   4.688   2.046 -0.2579 -0.0395  1.4805
 3329TIP3    H231479   2.925   4.774   2.085  0.8998  0.3676 -2.6637
 3330TIP3   OH231480   1.591   0.128  16.432 -0.7396  0.1656  0.3117
 3330TIP3    H131481   1.524   0.190  16.400 -2.3447 -0.6247  2.0546
 3330TIP3    H231482   1.605   0.153  16.523 -1.5581 -2.1349  1.1082
 3331TIP3   OH231483   3.750   3.116   0.997  0.2942 -0.3491  0.3313
 3331TIP3    H131484   3.725   3.169   0.922 -1.1282 -1.3966  0.0423
 3331TIP3    H231485   3.704   3.156   1.071  1.9648  0.8919  0.7484
 3332TIP3   OH231486   1.058   1.027   2.591 -0.6098 -0.1294  0.4111
 3332TIP3    H131487   0.970   0.998   2.616 -0.1885 -0.6616  1.2923
 3332TIP3    H231488   1.071   1.108   2.640 -0.2902 -0.4862  0.9184
 3333TIP3   OH231489   3.977   0.733   1.376  0.1394 -0.0007  0.1260
 3333TIP3    H131490   4.012   0.647   1.353 -1.1033 -0.8988  1.4736
 3333TIP3    H231491   3.969   0.731   1.472  2.7115  2.6558  0.4624
 3334TIP3   OH231492   0.501   5.375   1.319 -0.1053 -0.3546  0.0332
 3334TIP3    H131493   0.500   5.280   1.305 -1.2303 -0.1863 -1.1338
 3334TIP3    H231494   0.542   5.410   1.241  0.0941  0.1359  0.3602
 3335TIP3   OH231495   4.877   5.140  11.267 -0.0510  0.5926 -0.6452
 3335TIP3    H131496   4.970   5.147  11.247  0.1224 -0.9703 -0.5110
 3335TIP3    H231497   4.871   5.157  11.361  0.3854 -1.2058 -0.2594
 3336TIP3   OH231498   4.766   4.617   6.245 -0.1872  0.4206 -0.4230
 3336TIP3    H131499   4.715   4.588   6.320  3.2979 -0.1981  1.8227
 3336TIP3    H231500   4.799   4.703   6.270  1.0386  0.1942 -1.2303
 3337TIP3   OH231501   6.484   4.788   6.448  0.3074  0.2844 -0.0767
 3337TIP3    H131502   6.477   4.871   6.401  1.9117  0.7036  0.3934
 3337TIP3    H231503   6.565   4.748   6.416 -0.1747 -0.8600  0.0837
 3338TIP3   OH231504   3.919   3.138   3.934  0.1484 -0.4690 -0.0534
 3338TIP3    H131505   3.929   3.052   3.976  0.1028 -0.2518  0.3994
 3338TIP3    H231506   3.968   3.198   3.989  2.9108 -0.7384 -2.1483
 3339TIP3   OH231507   3.639   3.781   1.295  0.1618 -0.6938 -0.5729
 3339TIP3    H131508   3.620   3.689   1.276 -0.7070 -0.3749 -1.2678
 3339TIP3    H231509   3.734   3.788   1.287  0.2717 -1.6228 -0.1150
 3340TIP3   OH231510   1.019   1.451   3.999 -0.3524  0.1718  0.5339
 3340TIP3    H131511   0.939   1.419   4.043  0.7082 -1.0674  1.6289
 3340TIP3    H231512   1.009   1.546   3.998 -1.6953  0.0557  0.9641
 3341TIP3   OH231513   3.105   3.896   3.094  0.2191  0.2133  0.2454
 3341TIP3    H131514   3.029   3.851   3.056 -0.8173  1.6836  0.5410
 3341TIP3    H231515   3.144   3.831   3.151 -0.2857 -0.8647 -0.6084
 3342TIP3   OH231516   5.668   6.017   2.806 -0.2516  0.1963  0.6502
 3342TIP3    H131517   5.593   5.987   2.755 -1.4220 -0.1664  2.5278
 3342TIP3    H231518   5.725   5.941   2.811 -0.8045 -0.2020  1.0540
 3343TIP3   OH231519   0.369   1.601  11.969 -0.3441  0.1272 -0.1298
 3343TIP3    H131520   0.313   1.529  11.940  1.2211 -0.8544 -0.7955
 3343TIP3    H231521   0.385   1.652  11.890 -0.3945  0.4555  0.0733
 3344TIP3   OH231522   0.983   5.770   5.479  0.0996  0.6168  0.1287
 3344TIP3    H131523   0.990   5.802   5.389 -2.1525  0.2720 -0.2099
 3344TIP3    H231524   1.073   5.749   5.504  0.8363  1.2886 -1.8306
 3345TIP3   OH231525   6.274   1.791  13.431  0.2754 -0.0313  0.2202
 3345TIP3    H131526   6.311   1.880  13.431 -0.7467  0.3989 -0.3740
 3345TIP3    H231527   6.240   1.780  13.520 -1.4578  0.9703 -0.2927
 3346TIP3   OH231528   1.063   3.592   5.554  0.2731  0.4772 -0.3692
 3346TIP3    H131529   1.062   3.588   5.650 -2.3502  0.9204 -0.3483
 3346TIP3    H231530   1.061   3.686   5.534 -0.0740  0.3610 -0.8789
 3347TIP3   OH231531   5.206   0.028  12.762 -0.0668  0.1022  0.1849
 3347TIP3    H131532   5.196   0.107  12.708  1.6539 -0.0226 -0.3606
 3347TIP3    H231533   5.162   0.050  12.844  2.1173  2.4405  0.7994
 3348TIP3   OH231534   5.007   4.594  12.824 -0.1283 -0.5818  0.1809
 3348TIP3    H131535   4.938   4.533  12.849 -0.4692 -0.3272 -0.1307
 3348TIP3    H231536   5.049   4.618  12.906 -2.0555  1.2180  0.6909
 3349TIP3   OH231537   1.957   1.644   5.642 -0.3472  1.0230  0.2000
 3349TIP3    H131538   2.024   1.711   5.635  2.0670 -1.4150 -1.1810
 3349TIP3    H231539   1.920   1.637   5.554 -0.3588  0.3745  0.2491
 3350TIP3   OH231540   5.218   1.771  10.596  0.1977 -0.2468  0.0976
 3350TIP3    H131541   5.304   1.730  10.590  1.1936  1.7286  0.5168
 3350TIP3    H231542   5.200   1.776  10.690 -0.4256 -0.7484  0.0079
 3351TIP3   OH231543   0.647   4.326  12.006  0.4010 -0.5867 -0.1371
 3351TIP3    H131544   0.597   4.246  12.021  1.0057 -0.9326  0.0738
 3351TIP3    H231545   0.584   4.397  12.018 -0.6514 -1.0890 -2.4064
 3352TIP3   OH231546   4.779   6.600  14.559  0.1590  0.0036  0.0107
 3352TIP3    H131547   4.818   6.650  14.630  0.6314 -0.1849 -0.1132
 3352TIP3    H231548   4.846   6.599  14.491 -0.2939  0.1899 -0.4397
 3353TIP3   OH231549   0.796   2.692   0.472 -0.1125  0.4147  0.2912
 3353TIP3    H131550   0.799   2.696   0.376  0.2530 -0.3179  0.2625
 3353TIP3    H231551   0.888   2.700   0.499 -0.0591 -0.7315  0.5058
 3354TIP3   OH231552   6.563   2.463  11.947  0.2084  0.4824 -0.0599
 3354TIP3    H131553   6.571   2.451  11.853  0.6121 -1.3987  0.1998
 3354TIP3    H231554   6.653   2.472  11.978  0.1777 -0.5534  0.3445
 3355TIP3   OH231555   5.370   3.957  13.635  0.2919 -0.3111 -0.6266
 3355TIP3    H131556   5.394   3.922  13.549 -2.2904 -2.6498 -0.4610
 3355TIP3    H231557   5.317   3.888  13.675 -0.2780  1.5859  2.0191
 3356TIP3   OH231558   5.817   3.547  11.629 -0.0093  0.4806 -0.5635
 3356TIP3    H131559   5.828   3.640  11.611  1.4847  0.6159  0.8868
 3356TIP3    H231560   5.820   3.540  11.724 -1.9009 -0.8576 -0.5822
 3357TIP3   OH231561   6.517   6.126   5.328  0.5123  0.0129 -0.0281
 3357TIP3    H131562   6.432   6.086   5.346  0.7455 -0.4755  0.0063
 3357TIP3    H231563   6.581   6.056   5.346  0.8915  0.2396 -0.4716
 3358TIP3   OH231564   2.885   5.112  11.175  0.4310  0.0343  0.1596
 3358TIP3    H131565   2.885   5.024  11.136 -0.4776  0.4450 -0.7615
 3358TIP3    H231566   2.928   5.099  11.260  1.0508 -1.1439 -0.3102
 3359TIP3   OH231567   3.376   1.895   0.768 -0.0118 -0.5472  0.4008
 3359TIP3    H131568   3.386   1.989   0.753 -1.6632 -0.5936 -1.0221
 3359TIP3    H231569   3.359   1.858   0.682  1.0311 -2.2351  0.8889
 3360TIP3   OH231570   4.019   5.044  16.651 -0.0446  0.4252  0.1778
 3360TIP3    H131571   3.949   5.059  16.587 -0.1177  1.0374  0.3933
 3360TIP3    H231572   3.974   5.043  16.736  0.2383  1.1399  0.3445
 3361TIP3   OH231573   3.372   1.512   4.411 -0.6012  0.4481 -0.8978
 3361TIP3    H131574   3.409   1.450   4.474 -0.0393  1.9947  0.3128
 3361TIP3    H231575   3.285   1.476   4.390  0.1997 -1.3861 -1.1624
 3362TIP3   OH231576   6.072   3.917  11.778 -0.1860  0.4069  0.6087
 3362TIP3    H131577   6.128   3.843  11.755 -0.6756  0.0769  0.4746
 3362TIP3    H231578   5.986   3.878  11.793 -1.0799  1.2810 -2.0286
 3363TIP3   OH231579   0.813   2.485   2.435  0.0691 -0.0930  0.0790
 3363TIP3    H131580   0.899   2.527   2.423  0.7897 -0.8199  2.4877
 3363TIP3    H231581   0.786   2.461   2.346  2.9431 -0.9496 -0.6334
 3364TIP3   OH231582   5.311   5.754  12.773  0.0569  0.2012  0.3223
 3364TIP3    H131583   5.337   5.663  12.759 -1.0161 -0.1751  0.7627
 3364TIP3    H231584   5.221   5.749  12.807 -0.6418  1.4833 -1.2711
 3365TIP3   OH231585   2.109   2.028   0.970  0.7557  0.1168  0.5820
 3365TIP3    H131586   2.196   2.034   1.010  0.5994 -0.0500  0.9461
 3365TIP3    H231587   2.109   1.945   0.924  0.5099 -0.2526  1.2455
 3366TIP3   OH231588   2.628   2.297  11.645  0.9838 -0.2238  0.4907
 3366TIP3    H131589   2.662   2.383  11.622  2.9753 -0.6643  1.6826
 3366TIP3    H231590   2.554   2.316  11.703  0.8421  0.7109  0.0111
 3367TIP3   OH231591   5.132   6.689  13.318  0.1924 -0.1000 -0.1314
 3367TIP3    H131592   5.142   6.594  13.325  2.4316  0.1257 -0.1038
 3367TIP3    H231593   5.162   6.722  13.403 -0.2692  0.6610 -0.2631
 3368TIP3   OH231594   2.731   4.381  12.758  0.3518  0.0516  0.5936
 3368TIP3    H131595   2.664   4.415  12.816  1.0523 -0.0074  1.4507
 3368TIP3    H231596   2.808   4.370  12.814  0.7158 -1.0341 -0.1028
 3369TIP3   OH231597   6.537   1.254  14.626  0.4710  0.5697 -0.0447
 3369TIP3    H131598   6.536   1.268  14.531  1.7129 -0.7001 -0.2639
 3369TIP3    H231599   6.491   1.171  14.638 -0.0427  0.9356  0.5005
 3370TIP3   OH231600   0.905   4.441   2.112  0.7707 -1.0358  0.6478
 3370TIP3    H131601   0.882   4.463   2.202  1.0279 -1.0778  0.7250
 3370TIP3    H231602   0.941   4.523   2.075 -0.9865 -0.5291  0.0307
 3371TIP3   OH231603   4.764   4.580   3.500  0.2962  0.0201 -0.3723
 3371TIP3    H131604   4.767   4.555   3.593 -0.5682 -0.1926 -0.3971
 3371TIP3    H231605   4.780   4.498   3.453 -0.8558 -0.1913 -0.4261
 3372TIP3   OH231606   1.693   3.901  15.475 -0.5253  0.1325 -0.1021
 3372TIP3    H131607   1.606   3.878  15.508 -0.6781 -0.4046 -0.8606
 3372TIP3    H231608   1.700   3.996  15.491 -1.3749  0.2398 -0.3157
 3373TIP3   OH231609   4.969   4.387  16.278 -0.3029 -0.2481  0.4475
 3373TIP3    H131610   4.963   4.316  16.214 -0.6897 -0.1995  0.4267
 3373TIP3    H231611   5.017   4.456  16.233 -1.9610  0.4111 -0.3769
 3374TIP3   OH231612   2.074   6.702   4.688 -0.3759  0.0504 -0.5191
 3374TIP3    H131613   2.163   6.684   4.717 -0.5450 -0.7098 -0.4647
 3374TIP3    H231614   2.085   6.735   4.599 -0.0747 -0.5960 -0.7273
 3375TIP3   OH231615   4.793   0.170   1.534  0.3662 -0.4729  0.3953
 3375TIP3    H131616   4.822   0.090   1.488  1.3671  0.3630 -0.4639
 3375TIP3    H231617   4.717   0.199   1.484  0.4341 -0.5016  0.2731
 3376TIP3   OH231618   6.120   3.197   1.381 -0.1807 -0.0022  0.2402
 3376TIP3    H131619   6.170   3.278   1.392 -0.4264  0.0390  1.1364
 3376TIP3    H231620   6.045   3.223   1.327 -1.8011  1.0505  2.8852
 3377TIP3   OH231621   0.345   5.759  16.611  0.2352 -0.1372  0.1034
 3377TIP3    H131622   0.414   5.727  16.553 -1.3895  0.2883 -2.1609
 3377TIP3    H231623   0.370   5.849  16.631  0.6095 -0.1534 -0.2797
 3378TIP3   OH231624   2.613   3.827  12.794 -0.6618 -0.0588 -0.0974
 3378TIP3    H131625   2.614   3.873  12.878 -1.1196 -1.0091  0.4317
 3378TIP3    H231626   2.681   3.871  12.742  1.7953 -1.4426  1.8236
 3379TIP3   OH231627   1.528   1.180   1.635 -0.3289 -0.2547 -0.2320
 3379TIP3    H131628   1.603   1.207   1.581 -0.5566 -1.0995 -0.9902
 3379TIP3    H231629   1.560   1.186   1.725  0.0900  1.0738 -0.4633
 3380TIP3   OH231630   5.586   5.108   1.399 -0.7489  0.1117  0.0883
 3380TIP3    H131631   5.636   5.120   1.319  0.2832  0.3459  0.7622
 3380TIP3    H231632   5.499   5.080   1.369  0.0949 -1.3567 -1.0580
 3381TIP3   OH231633   0.215   4.813  11.450  0.0260 -0.5330 -0.4887
 3381TIP3    H131634   0.189   4.761  11.373  1.1293 -1.4807 -0.2249
 3381TIP3    H231635   0.190   4.759  11.525 -0.5284  0.1444 -0.1757
 3382TIP3   OH231636   3.126   3.825   5.294  0.1441  0.4236  0.4808
 3382TIP3    H131637   3.129   3.870   5.378 -1.1312  1.1224  0.1670
 3382TIP3    H231638   3.040   3.782   5.293  0.8341 -0.9838  0.2454
 3383TIP3   OH231639   4.499   6.703  12.602 -0.9853 -0.6019 -0.1529
 3383TIP3    H131640   4.439   6.700  12.527  0.4413 -0.4856 -1.3413
 3383TIP3    H231641   4.551   6.622  12.593  1.7703  1.2380 -1.5263
 3384TIP3   OH231642   6.377   3.356  11.565 -0.2381  0.2818  0.0914
 3384TIP3    H131643   6.377   3.325  11.656  1.9762 -2.7257 -0.8325
 3384TIP3    H231644   6.432   3.435  11.567 -0.8354  0.6717  1.4977
 3385TIP3   OH231645   3.773   0.915   5.797 -0.3007 -0.2582  0.2152
 3385TIP3    H131646   3.858   0.928   5.755  0.1032 -2.1843  0.4129
 3385TIP3    H231647   3.772   0.981   5.867  0.4210  0.7247 -0.6694
 3386TIP3   OH231648   5.691   5.706  16.675  0.0529 -0.4295  0.2472
 3386TIP3    H131649   5.604   5.677  16.702  0.8336 -0.8790  2.4457
 3386TIP3    H231650   5.677   5.792  16.636 -1.3924 -0.5348  0.5097
 3387TIP3   OH231651   1.801   1.982  16.966  0.1685  0.2171  0.0940
 3387TIP3    H131652   1.709   1.960  16.949  1.0367 -2.6261 -1.2569
 3387TIP3    H231653   1.849   1.938  16.896  2.7142  0.1625  1.8161
 3388TIP3   OH231654   6.420   0.447   4.536 -0.5020 -0.3389  0.1358
 3388TIP3    H131655   6.506   0.416   4.507 -0.0099  0.4476  0.7452
 3388TIP3    H231656   6.407   0.529   4.488 -1.8095 -1.4676 -1.4927
 3389TIP3   OH231657   0.082   0.092   2.756  0.0975 -0.2228 -0.2342
 3389TIP3    H131658   0.140   0.109   2.830 -1.2535  0.0993  0.7513
 3389TIP3    H231659   0.055   0.001   2.767 -0.4937 -0.0256 -0.0660
 3390TIP3   OH231660   2.336   2.138   4.331 -0.3706 -0.3655  0.0179
 3390TIP3    H131661   2.284   2.110   4.406 -0.3567 -0.9162 -0.1740
 3390TIP3    H231662   2.408   2.075   4.326 -1.1473 -1.1772 -1.3055
 3391TIP3   OH231663   2.377   6.115  13.694 -0.4351 -0.4810  0.1483
 3391TIP3    H131664   2.415   6.161  13.619  0.6087  1.1211  1.6062
 3391TIP3    H231665   2.438   6.043  13.712 -0.7505 -0.9375 -0.6100
 3392TIP3   OH231666   5.610   5.966  15.159 -0.2199 -0.2699  0.2851
 3392TIP3    H131667   5.598   6.015  15.240  2.4433  1.4565 -0.3171
 3392TIP3    H231668   5.670   5.895  15.182  0.7341  0.3656 -0.2318
 3393TIP3   OH231669   0.536   4.335   1.686  0.4235  0.0538  0.4991
 3393TIP3    H131670   0.613   4.315   1.632  0.1850  1.1838 -0.2661
 3393TIP3    H231671   0.516   4.253   1.730  1.6112 -0.4528  0.1101
 3394TIP3   OH231672   3.494   6.391  14.202  0.1640  1.0815  0.1199
 3394TIP3    H131673   3.405   6.368  14.229  0.4207  0.0541  0.1241
 3394TIP3    H231674   3.545   6.392  14.284  0.4714  0.1722 -0.0549
 3395TIP3   OH231675   5.572   0.799   4.631  0.1387 -0.0165  0.3807
 3395TIP3    H131676   5.608   0.834   4.713 -0.3886 -0.3262  0.7490
 3395TIP3    H231677   5.516   0.727   4.659  0.7049 -0.7405 -0.3277
 3396TIP3   OH231678   4.830   1.108  12.597  0.3241  0.2476  0.4301
 3396TIP3    H131679   4.846   1.156  12.678  1.3421 -0.0243  0.3990
 3396TIP3    H231680   4.810   1.176  12.532  1.1949  0.6037  0.5193
 3397TIP3   OH231681   6.677   0.220   2.003  0.6963  0.1748  0.0454
 3397TIP3    H131682   6.728   0.143   1.979 -0.8480 -0.5731 -0.8488
 3397TIP3    H231683   6.617   0.233   1.931 -1.5424  0.0608  1.8360
 3398TIP3   OH231684   2.313   5.261   1.507  0.4914  0.4842  0.0249
 3398TIP3    H131685   2.226   5.301   1.503  1.0657  1.9800  1.9658
 3398TIP3    H231686   2.355   5.287   1.424 -0.9402 -0.3857 -0.9946
 3399TIP3   OH231687   2.520   3.589   3.491  0.1061  0.3470  0.0014
 3399TIP3    H131688   2.543   3.680   3.508 -3.3486  1.6779 -2.0602
 3399TIP3    H231689   2.557   3.571   3.404 -1.3499  0.5972 -0.6807
 3400TIP3   OH231690   2.496   2.993   2.686 -0.0875  0.2319  0.0509
 3400TIP3    H131691   2.452   2.920   2.643 -1.8077  0.8961  0.6440
 3400TIP3    H231692   2.572   2.953   2.728 -0.2686 -0.9836 -0.7452
 3401TIP3   OH231693   6.656   1.326  16.123 -0.5623  0.4698  0.0043
 3401TIP3    H131694   6.733   1.375  16.092  0.4663 -1.0267  0.1285
 3401TIP3    H231695   6.652   1.345  16.216 -1.1478  1.6187 -0.2490
 3402TIP3   OH231696   4.533   0.830  16.779  0.4827  0.6765  0.5392
 3402TIP3    H131697   4.473   0.755  16.775  2.6917 -1.2004  1.5329
 3402TIP3    H231698   4.551   0.851  16.687  0.3646 -0.4407  0.2524
 3403TIP3   OH231699   2.356   0.636  10.829  0.1277 -0.3029  0.0036
 3403TIP3    H131700   2.439   0.599  10.860 -0.7073 -1.1268  1.3067
 3403TIP3    H231701   2.380   0.688  10.752  1.8079 -0.7659  0.1971
 3404TIP3   OH231702   5.333   5.073  15.737  0.1431  0.1510 -0.1734
 3404TIP3    H131703   5.362   5.138  15.801 -0.4955  2.1728 -1.9171
 3404TIP3    H231704   5.241   5.093  15.723 -0.0358 -1.0863 -0.7919
 3405TIP3   OH231705   3.948   4.893  11.489 -0.3314  0.0327 -0.0192
 3405TIP3    H131706   3.860   4.862  11.469 -1.8950  3.6485  1.0052
 3405TIP3    H231707   3.943   4.926  11.578  1.9767  0.7108 -0.1051
 3406TIP3   OH231708   1.032   0.249  16.996 -0.1280  0.7379 -0.7584
 3406TIP3    H131709   1.050   0.160  17.024 -0.9851  0.0999 -2.1877
 3406TIP3    H231710   1.116   0.281  16.963 -0.0686  0.0928 -1.2254
 3407TIP3   OH231711   5.622   0.306   0.047  0.7205 -0.0717 -0.2699
 3407TIP3    H131712   5.610   0.257  -0.034 -1.4860 -0.3006  0.1739
 3407TIP3    H231713   5.654   0.391   0.019  0.4166 -0.3057 -1.3457
 3408TIP3   OH231714   6.090   6.684  17.033 -0.4775  0.1087 -0.5132
 3408TIP3    H131715   6.097   6.599  16.990 -0.4617 -1.0117  1.6395
 3408TIP3    H231716   6.031   6.669  17.106  4.1573  0.3437  3.5487
 3409TIP3   OH231717   5.166   1.973   4.889  0.2544 -0.3638 -0.2338
 3409TIP3    H131718   5.137   1.966   4.980 -2.1394 -0.0481 -0.9422
 3409TIP3    H231719   5.259   1.950   4.892 -0.6297 -4.1589  1.7407
 3410TIP3   OH231720   0.408   0.687   3.946 -0.3815  0.4127 -0.2382
 3410TIP3    H131721   0.383   0.736   3.868  0.8347  1.8541  0.2704
 3410TIP3    H231722   0.504   0.685   3.944 -0.3022  1.1111  1.5973
 3411TIP3   OH231723   6.239   0.523  13.273 -0.2725 -1.0157  0.2868
 3411TIP3    H131724   6.301   0.564  13.333 -0.2857 -1.9467  0.9351
 3411TIP3    H231725   6.259   0.430  13.276 -0.4453 -1.1037 -0.9593
 3412TIP3   OH231726   5.307   2.619   0.683  0.0348 -0.2301  0.0460
 3412TIP3    H131727   5.219   2.609   0.718  0.3807 -0.5262  0.8435
 3412TIP3    H231728   5.327   2.712   0.695  0.3550 -0.4315  1.1490
 3413TIP3   OH231729   6.769   1.785   3.050  0.3481  0.8495  0.3170
 3413TIP3    H131730   6.759   1.815   2.960 -1.9087 -1.6211 -0.3445
 3413TIP3    H231731   6.704   1.835   3.099  0.2391  0.8222  0.2013
 3414TIP3   OH231732   6.182   4.132  14.306 -0.7821 -0.8122  0.2810
 3414TIP3    H131733   6.224   4.091  14.381 -1.0373 -2.0334 -0.2272
 3414TIP3    H231734   6.128   4.202  14.343 -2.2201 -2.4945  1.3671
 3415TIP3   OH231735   5.714   6.277   1.531  0.1206  0.0791 -0.5912
 3415TIP3    H131736   5.765   6.196   1.529  0.2074  0.1489 -1.3254
 3415TIP3    H231737   5.751   6.330   1.460  0.2070  0.8470  0.0175
 3416TIP3   OH231738   4.401   3.221  12.244  0.6426 -0.1542  0.0486
 3416TIP3    H131739   4.412   3.268  12.327 -0.7299  1.7983 -0.8599
 3416TIP3    H231740   4.488   3.227  12.203  0.9920 -0.0546  0.7801
 3417TIP3   OH231741   3.653   3.472  16.559 -0.0069 -0.6255  0.7869
 3417TIP3    H131742   3.748   3.477  16.562  0.0838 -1.5690  0.1199
 3417TIP3    H231743   3.634   3.429  16.475 -1.0954  1.1549  0.0794
 3418TIP3   OH231744   0.748   1.170  15.984  0.1127 -0.5012 -0.2053
 3418TIP3    H131745   0.727   1.257  15.949 -1.2657 -0.3396  0.9435
 3418TIP3    H231746   0.813   1.135  15.924  0.1528  1.0383 -1.0978
 3419TIP3   OH231747   4.368   1.558  15.399  0.7644  0.2758 -0.1370
 3419TIP3    H131748   4.299   1.578  15.463  0.8646  0.3832 -0.0610
 3419TIP3    H231749   4.450   1.580  15.445  0.8162  0.7640 -0.4545
 3420TIP3   OH231750   3.971   2.677   0.313  0.1810  0.4100 -0.1256
 3420TIP3    H131751   3.907   2.710   0.376  1.0301  0.8208  0.5503
 3420TIP3    H231752   3.954   2.583   0.307  0.5647  0.2394  1.2938
 3421TIP3   OH231753   0.057   0.903  15.534  0.2396  0.0450  0.2950
 3421TIP3    H131754   0.023   0.931  15.618  1.1835 -0.6493  0.9145
 3421TIP3    H231755   0.150   0.886  15.549  0.0331 -1.9122 -0.4083
 3422TIP3   OH231756   4.854   4.538   0.090  0.1920 -0.6739 -0.2852
 3422TIP3    H131757   4.890   4.618   0.051  0.1109 -0.2901  0.4377
 3422TIP3    H231758   4.925   4.504   0.144 -0.8035  0.5326  1.8096
 3423TIP3   OH231759   5.976   5.408   2.827 -0.0029 -0.0070 -0.0945
 3423TIP3    H131760   6.046   5.376   2.883 -0.9385 -0.1682  0.9958
 3423TIP3    H231761   5.896   5.376   2.868 -0.8232  1.7065 -0.3145
 3424TIP3   OH231762   4.642   3.681  14.242 -0.4472 -0.0575  0.1985
 3424TIP3    H131763   4.619   3.762  14.290 -0.7101 -0.3716  0.6079
 3424TIP3    H231764   4.727   3.700  14.203 -0.2372  0.2133  0.7788
 3425TIP3   OH231765   4.116   1.837  11.823  0.6692 -0.3213 -0.4505
 3425TIP3    H131766   4.042   1.890  11.793  1.5388  0.8835 -0.5224
 3425TIP3    H231767   4.129   1.771  11.755  0.8104  0.6052 -1.3257
 3426TIP3   OH231768   4.154   0.588  10.675 -0.0068 -0.0480  0.1321
 3426TIP3    H131769   4.184   0.619  10.590 -2.7541 -1.0114 -1.2449
 3426TIP3    H231770   4.164   0.664  10.733  0.0046  1.2395 -1.5210
 3427TIP3   OH231771   4.064   4.934   5.135 -0.1797 -0.4438 -0.6044
 3427TIP3    H131772   4.128   4.958   5.067  2.6496  0.9596  2.3993
 3427TIP3    H231773   4.022   5.017   5.157  0.9554 -0.3582  1.3148
 3428TIP3   OH231774   0.303   4.412   3.602 -0.1731  0.2185  0.3177
 3428TIP3    H131775   0.235   4.421   3.535 -1.7129 -1.7788  1.5569
 3428TIP3    H231776   0.270   4.461   3.677  1.0184  1.4897  0.0309
 3429TIP3   OH231777   5.676   2.542  13.831  0.2643  0.2475  0.1301
 3429TIP3    H131778   5.629   2.485  13.770  0.8430  1.3483 -1.3697
 3429TIP3    H231779   5.746   2.488  13.867  1.7377  0.4147 -2.4099
 3430TIP3   OH231780   1.090   5.360  13.961 -0.4476  0.3058  0.8706
 3430TIP3    H131781   1.037   5.439  13.969 -2.5582 -0.9349 -0.7171
 3430TIP3    H231782   1.056   5.302  14.029 -1.1121 -0.4682 -0.1148
 3431TIP3   OH231783   6.250   6.599  15.735 -0.1755 -0.2465 -0.0285
 3431TIP3    H131784   6.166   6.593  15.781  0.5145 -1.5830  1.0874
 3431TIP3    H231785   6.260   6.515  15.691 -0.6430  0.8797 -2.3670
 3432TIP3   OH231786   2.381   3.410   0.023 -0.3627 -0.2388  0.3204
 3432TIP3    H131787   2.380   3.328  -0.026  0.9578 -1.3432  2.0709
 3432TIP3    H231788   2.450   3.462  -0.018  0.1979 -0.8357  0.5012
 3433TIP3   OH231789   1.419   2.801   3.303 -0.6151  0.3981 -0.3785
 3433TIP3    H131790   1.336   2.794   3.256 -0.4497 -0.0563 -0.6006
 3433TIP3    H231791   1.478   2.844   3.242 -0.4039 -0.1816 -0.5872
 3434TIP3   OH231792   0.375   6.574  12.737  0.4981 -0.0506  0.1296
 3434TIP3    H131793   0.378   6.481  12.761 -1.3538  0.5916  3.0302
 3434TIP3    H231794   0.300   6.580  12.677  0.3092 -0.3514  0.3297
 3435TIP3   OH231795   1.474   3.395   4.381 -0.1888 -0.0903  0.4161
 3435TIP3    H131796   1.494   3.394   4.475  0.2787 -3.1011  0.3131
 3435TIP3    H231797   1.560   3.393   4.339 -0.3942  1.4194 -0.1068
 3436TIP3   OH231798   2.949   3.660  10.895 -0.4084 -0.3394 -0.1220
 3436TIP3    H131799   2.860   3.672  10.862 -0.5941  1.6768  1.0257
 3436TIP3    H231800   2.989   3.746  10.890  0.8898 -0.8439  1.0566
 3437TIP3   OH231801   4.455   4.205   4.073  0.1862  0.4323 -0.3389
 3437TIP3    H131802   4.416   4.197   3.986 -0.5750 -3.4272  0.2517
 3437TIP3    H231803   4.381   4.221   4.132  0.3171 -0.0001 -0.0499
 3438TIP3   OH231804   1.497   6.547   2.849 -0.0103 -0.5627 -0.3712
 3438TIP3    H131805   1.428   6.505   2.799  0.5938  1.9723 -3.5710
 3438TIP3    H231806   1.572   6.488   2.842 -0.8798 -1.7595  0.3285
 3439TIP3   OH231807   1.897   2.131   4.780 -0.1362 -0.1228 -0.1288
 3439TIP3    H131808   1.845   2.177   4.846 -1.0157  2.0334 -2.2836
 3439TIP3    H231809   1.953   2.198   4.742  1.7302 -1.7307 -0.3101
 3440TIP3   OH231810   2.014   1.302  11.716  0.2679 -0.1723  0.0279
 3440TIP3    H131811   1.959   1.347  11.781  0.3497 -0.1389  0.0746
 3440TIP3    H231812   1.987   1.211  11.720  0.1667 -0.1438  0.0012
 3441TIP3   OH231813   0.057   2.134   5.354 -0.1610 -0.1020  0.0588
 3441TIP3    H131814   0.113   2.163   5.426  0.1910  0.5426 -0.4701
 3441TIP3    H231815  -0.032   2.147   5.386 -0.0069 -0.5677  0.6760
 3442TIP3   OH231816   3.130   6.762   3.786  0.1596  0.4619  0.5651
 3442TIP3    H131817   3.222   6.736   3.790  0.3336  1.1228  0.8147
 3442TIP3    H231818   3.103   6.771   3.877  0.4503  2.3905  0.4807
 3443TIP3   OH231819   2.726   6.704  11.583  0.0905 -0.0572  0.0388
 3443TIP3    H131820   2.716   6.768  11.514  2.0011 -0.5369 -0.7403
 3443TIP3    H231821   2.715   6.619  11.540  1.4939 -0.3692  0.2633
 3444TIP3   OH231822   4.959   5.321   0.319 -0.2208 -0.1032 -0.2354
 3444TIP3    H131823   4.868   5.342   0.297 -0.3046  0.2089  0.3887
 3444TIP3    H231824   4.952   5.268   0.399  0.1458 -0.0213 -0.1485
 3445TIP3   OH231825   1.312   0.839   3.273  0.2748 -0.0210 -0.0578
 3445TIP3    H131826   1.383   0.831   3.336  0.6887  0.5387 -0.4476
 3445TIP3    H231827   1.333   0.918   3.223 -1.0566  0.6210  0.3736
 3446TIP3   OH231828   2.668   4.229  16.326 -0.3976 -0.2898 -0.8004
 3446TIP3    H131829   2.663   4.210  16.419  1.9440 -1.8790 -0.9351
 3446TIP3    H231830   2.583   4.265  16.304 -1.9877 -2.4994  1.4016
 3447TIP3   OH231831   1.669   6.039  15.696 -0.3182  0.2935  0.0643
 3447TIP3    H131832   1.579   6.006  15.695  0.1177 -0.9427  0.7562
 3447TIP3    H231833   1.698   6.027  15.786  1.3738 -1.6483 -0.6892
 3448TIP3   OH231834   5.821   6.794   5.796  0.1983  0.3623  0.1805
 3448TIP3    H131835   5.770   6.790   5.715  2.6823 -0.4810 -1.4122
 3448TIP3    H231836   5.858   6.706   5.805  0.6557  0.7054  1.7708
 3449TIP3   OH231837   3.010   2.098   2.251 -0.5502  0.2388  0.0234
 3449TIP3    H131838   2.964   2.036   2.306 -2.1056  0.1112 -1.3708
 3449TIP3    H231839   3.036   2.169   2.310  2.3971 -2.2717  1.8912
 3450TIP3   OH231840   0.784   6.415  17.036 -0.5661 -0.3687  0.5731
 3450TIP3    H131841   0.735   6.373  17.107  0.4486  0.4415  1.7912
 3450TIP3    H231842   0.772   6.509  17.052 -0.5178 -0.1766 -0.4842
 3451TIP3   OH231843   2.359   3.789  14.137 -1.1917 -0.0866  0.6460
 3451TIP3    H131844   2.395   3.780  14.049 -2.4403 -0.8783  0.1993
 3451TIP3    H231845   2.265   3.804  14.123 -1.9343 -3.1640  1.8760
 3452TIP3   OH231846   2.907   2.382  15.569 -0.1334 -0.4543  0.5746
 3452TIP3    H131847   2.934   2.294  15.594  0.8911 -0.8805 -1.8582
 3452TIP3    H231848   2.820   2.370  15.531 -0.9904 -0.0477  2.3538
 3453TIP3   OH231849   4.839   2.708  14.504 -0.5125  0.4691  0.2555
 3453TIP3    H131850   4.757   2.659  14.490 -0.4990  0.0236  1.6407
 3453TIP3    H231851   4.842   2.723  14.599  1.5148 -0.4056  0.3482
 3454TIP3   OH231852   6.687   4.530  11.142  0.3245  0.6198  0.0807
 3454TIP3    H131853   6.634   4.604  11.112  0.9440  0.8200 -0.5483
 3454TIP3    H231854   6.627   4.455  11.139 -0.2141  1.0292  0.4034
 3455TIP3   OH231855   4.122   0.426  12.011 -0.1525  0.2733  0.0861
 3455TIP3    H131856   4.150   0.342  11.974 -0.3408  0.1519  0.2177
 3455TIP3    H231857   4.026   0.423  12.006 -0.1377  0.8399 -0.7073
 3456TIP3   OH231858   4.381   5.515  13.952 -0.2559  0.6246  0.0639
 3456TIP3    H131859   4.411   5.427  13.972  1.2057  0.7673 -1.4136
 3456TIP3    H231860   4.446   5.572  13.994  0.0886  0.9650 -0.9265
 3457TIP3   OH231861   5.903   6.338  14.325  0.1446 -0.6265  0.1347
 3457TIP3    H131862   5.848   6.414  14.339  0.8841 -0.3006  1.3325
 3457TIP3    H231863   5.909   6.296  14.411  0.2772 -1.6736 -0.3689
 3458TIP3   OH231864   1.949   3.017  15.666  0.4193 -0.2270  0.1581
 3458TIP3    H131865   2.023   2.972  15.625  2.6138  1.0665  2.5897
 3458TIP3    H231866   1.953   3.106  15.631  0.7017  0.1564  1.1703
 3459TIP3   OH231867   5.354   2.904  16.678 -0.0539  0.2474 -0.4013
 3459TIP3    H131868   5.281   2.965  16.681 -1.6039 -1.4481 -1.7694
 3459TIP3    H231869   5.339   2.845  16.752 -0.5772 -0.6167 -1.1809
 3460TIP3   OH231870   3.211   5.653   4.952  0.0295  0.4609  0.4423
 3460TIP3    H131871   3.157   5.709   4.896  0.0526 -1.3515 -1.4483
 3460TIP3    H231872   3.282   5.710   4.982  0.0283  1.4669 -1.4046
 3461TIP3   OH231873   5.704   4.648   1.073  0.5949  0.3518  0.4817
 3461TIP3    H131874   5.661   4.565   1.092 -0.5318  0.9701  0.6897
 3461TIP3    H231875   5.765   4.660   1.146  0.2072  0.0777  0.8598
 3462TIP3   OH231876   6.350   3.710   3.389  0.1181  0.2525  0.3662
 3462TIP3    H131877   6.274   3.703   3.447 -0.4742  0.1890 -0.4068
 3462TIP3    H231878   6.419   3.662   3.434 -0.5970 -0.5802  0.5870
 3463TIP3   OH231879   1.175   5.711  14.126 -0.9608  0.6753 -0.1918
 3463TIP3    H131880   1.243   5.645  14.137 -0.8511  0.8796  0.3749
 3463TIP3    H231881   1.166   5.721  14.031 -1.4349 -0.6185 -0.2987
 3464TIP3   OH231882   1.329   0.418  13.530 -0.2774 -0.1691  0.0346
 3464TIP3    H131883   1.367   0.341  13.572  1.6897 -1.0970 -3.3424
 3464TIP3    H231884   1.290   0.385  13.449 -0.5228  2.1916 -0.8571
 3465TIP3   OH231885   2.125   0.171  11.268  0.2358 -0.3694 -0.1214
 3465TIP3    H131886   2.119   0.111  11.194  1.0710  0.1055 -0.5807
 3465TIP3    H231887   2.199   0.138  11.320  0.1496 -0.2448  0.0794
 3466TIP3   OH231888   6.747   4.269   3.026 -0.1130 -0.1198  0.3533
 3466TIP3    H131889   6.783   4.314   3.103 -0.1009  1.2748 -0.4708
 3466TIP3    H231890   6.824   4.238   2.979 -0.0008  1.7283 -0.7197
 3467TIP3   OH231891   2.354   2.929  16.379 -0.2661  0.1841 -0.3604
 3467TIP3    H131892   2.344   2.978  16.460 -0.0795  0.3789 -0.4513
 3467TIP3    H231893   2.283   2.864  16.380  0.4405 -0.5887  0.5133
 3468TIP3   OH231894   5.904   0.314   0.254 -0.0797 -0.3986 -0.5201
 3468TIP3    H131895   5.968   0.365   0.303  0.3910 -1.0136 -0.4905
 3468TIP3    H231896   5.820   0.355   0.275 -0.1013 -1.8013  2.2945
 3469TIP3   OH231897   3.381   6.588   4.273  0.1048 -0.0636  0.0993
 3469TIP3    H131898   3.288   6.577   4.255  0.2145 -0.4123 -0.2848
 3469TIP3    H231899   3.423   6.581   4.187  0.4784  0.1489  0.2623
 3470TIP3   OH231900   5.445   1.601  15.353 -0.0659 -0.5660  0.5020
 3470TIP3    H131901   5.469   1.635  15.267  1.7145  1.2459  1.6648
 3470TIP3    H231902   5.529   1.588  15.397 -1.0387  1.3766  3.0272
 3471TIP3   OH231903   4.333   6.606   4.908  0.2761  0.2428 -0.0272
 3471TIP3    H131904   4.306   6.689   4.868  2.1805  0.6855 -0.4860
 3471TIP3    H231905   4.292   6.606   4.994  0.7412  1.9744  0.2215
 3472TIP3   OH231906   4.913   5.474   2.800 -0.3047 -0.1250 -0.0511
 3472TIP3    H131907   4.921   5.423   2.881  1.3738 -0.3617 -0.3388
 3472TIP3    H231908   5.000   5.511   2.787 -0.2978 -0.8404 -2.2311
 3473TIP3   OH231909   0.691   0.112  10.948  1.5424 -0.1271  0.0781
 3473TIP3    H131910   0.772   0.157  10.923  1.2069 -0.0071 -0.8147
 3473TIP3    H231911   0.660   0.160  11.025  2.0921  0.0980  0.1636
 3474TIP3   OH231912   3.441   6.452   1.924  0.5474  0.0753  0.1454
 3474TIP3    H131913   3.450   6.370   1.876  2.0342  0.4628 -0.2773
 3474TIP3    H231914   3.461   6.520   1.859 -2.4000  0.8810  0.0315
 3475TIP3   OH231915   3.436   0.040   5.545 -0.0247 -0.4297  0.1056
 3475TIP3    H131916   3.483   0.113   5.504  0.1955 -0.2914  0.6101
 3475TIP3    H231917   3.368   0.081   5.598  2.3828 -0.4173  3.3285
 3476TIP3   OH231918   0.437   4.488  14.967 -0.0219 -0.0768  0.4689
 3476TIP3    H131919   0.438   4.566  14.912  1.0428 -0.0510  0.5192
 3476TIP3    H231920   0.460   4.417  14.908  0.1204 -0.1939  0.6677
 3477TIP3   OH231921   5.313   5.741   0.008  0.7053  0.6784 -0.2188
 3477TIP3    H131922   5.287   5.651  -0.008 -0.2662  1.2107 -1.6738
 3477TIP3    H231923   5.232   5.785   0.035  0.5810  1.7454 -2.2422
 3478TIP3   OH231924   2.926   6.263   5.332  0.7478 -0.0420  0.0787
 3478TIP3    H131925   2.927   6.359   5.337 -1.2019 -0.0264  0.4204
 3478TIP3    H231926   2.930   6.235   5.423 -3.0314 -0.1985  0.2564
 3479TIP3   OH231927   2.273   1.646  10.470 -0.0202 -0.5262 -0.8135
 3479TIP3    H131928   2.239   1.732  10.493 -0.1276 -0.6406 -0.5480
 3479TIP3    H231929   2.347   1.633  10.529 -0.3198 -0.8340 -0.5050
 3480TIP3   OH231930   2.848   1.396   1.857 -0.9161  0.7458  0.0598
 3480TIP3    H131931   2.843   1.301   1.847 -0.1542  0.3865  2.4905
 3480TIP3    H231932   2.783   1.431   1.797 -1.4564 -1.3413 -0.6113
 3481TIP3   OH231933   0.190   2.672  14.663 -0.0195  0.0719 -0.3768
 3481TIP3    H131934   0.172   2.586  14.625 -2.3389  0.9236 -1.2609
 3481TIP3    H231935   0.227   2.723  14.592  2.1575 -0.4159  0.3682
 3482TIP3   OH231936   4.375   3.034   5.173  0.1513 -0.1691  0.1950
 3482TIP3    H131937   4.311   3.047   5.103  2.2603  0.7447 -1.6349
 3482TIP3    H231938   4.367   2.942   5.197 -0.7120 -0.4483 -1.1240
 3483TIP3   OH231939   1.761   5.483   1.457  0.4068  0.1289  0.2396
 3483TIP3    H131940   1.812   5.424   1.402 -0.2368 -1.0618  0.8985
 3483TIP3    H231941   1.681   5.500   1.407  0.1789 -0.3092  0.4527
 3484TIP3   OH231942   1.532   0.223  14.168  0.1921  0.2687 -1.1246
 3484TIP3    H131943   1.515   0.158  14.101 -1.5521  0.2159 -0.6595
 3484TIP3    H231944   1.473   0.296  14.147  0.3218  0.6503 -0.2151
 3485TIP3   OH231945   2.517   4.502  11.585  0.1497 -0.0566  0.7639
 3485TIP3    H131946   2.518   4.507  11.489  0.5305 -0.2153  0.7579
 3485TIP3    H231947   2.465   4.577  11.612 -2.4113 -1.6271  0.3314
 3486TIP3   OH231948   1.897   3.935   3.905  0.4995  0.5487  0.5377
 3486TIP3    H131949   1.951   3.962   3.980  1.2577  1.2062 -0.2408
 3486TIP3    H231950   1.952   3.953   3.828  0.8775 -2.8460 -0.0437
 3487TIP3   OH231951   3.980   6.104   2.302 -0.8001  0.1511 -0.1796
 3487TIP3    H131952   4.013   6.019   2.329 -1.4650 -0.0020  0.1642
 3487TIP3    H231953   3.886   6.090   2.289 -0.8631  0.7633 -0.3884
 3488TIP3   OH231954   6.594   4.081  15.408 -0.2270 -0.5602  0.2675
 3488TIP3    H131955   6.571   4.019  15.338  1.9014  0.0137 -0.9807
 3488TIP3    H231956   6.586   4.167  15.367  0.6605 -0.2101  0.8207
 3489TIP3   OH231957   1.617   2.853   1.372 -0.1643  0.6121 -0.4262
 3489TIP3    H131958   1.551   2.784   1.376  0.8798 -0.3415  1.0528
 3489TIP3    H231959   1.674   2.828   1.300  0.9329 -0.7873  0.8781
 3490TIP3   OH231960   4.158   5.769   4.820 -0.3902  0.1508 -0.2226
 3490TIP3    H131961   4.195   5.851   4.788  0.1542  0.1256  0.3413
 3490TIP3    H231962   4.233   5.709   4.824 -0.7912 -0.3932 -0.6828
 3491TIP3   OH231963   3.734   3.652  13.273  0.4250  0.2575 -0.7626
 3491TIP3    H131964   3.817   3.661  13.227  1.4422 -2.6927  0.4011
 3491TIP3    H231965   3.709   3.560  13.261 -1.6411  0.5961  0.6198
 3492TIP3   OH231966   6.248   0.135   3.656  0.8578  0.0295  0.2426
 3492TIP3    H131967   6.244   0.188   3.577  2.7602  1.7597  1.2655
 3492TIP3    H231968   6.157   0.129   3.685  0.3609  0.8891 -1.0934
 3493TIP3   OH231969   4.853   1.337  11.126  0.8163  0.1806  0.4770
 3493TIP3    H131970   4.816   1.286  11.198  0.1808 -0.0770 -0.0263
 3493TIP3    H231971   4.849   1.279  11.051  0.8968  0.6698  0.0896
 3494TIP3   OH231972   2.798   5.715   2.481  0.6685  0.1777 -0.4222
 3494TIP3    H131973   2.761   5.803   2.473  0.7593  0.1603 -1.0239
 3494TIP3    H231974   2.728   5.656   2.453  0.7182  0.0776 -0.3372
 3495TIP3   OH231975   6.335   6.386  16.884 -0.3546 -0.1149 -0.3069
 3495TIP3    H131976   6.314   6.377  16.791 -2.0880 -0.3203  0.0952
 3495TIP3    H231977   6.254   6.367  16.929  0.3105  0.6140  1.2424
 3496TIP3   OH231978   2.136   1.641   4.378 -0.1636 -0.5407  0.3526
 3496TIP3    H131979   2.112   1.615   4.289 -2.4434  0.9357  0.4965
 3496TIP3    H231980   2.096   1.576   4.435 -0.2549 -0.4532  0.3885
 3497TIP3   OH231981   3.878   4.463   1.980  0.2005 -0.7325  0.3225
 3497TIP3    H131982   3.896   4.391   2.041 -0.1411 -1.2051 -0.1275
 3497TIP3    H231983   3.784   4.456   1.963  0.0667  0.1357  0.6745
 3498TIP3   OH231984   2.172   4.178  12.393 -0.2823 -0.2273 -0.2903
 3498TIP3    H131985   2.231   4.116  12.437  0.8004 -0.2431 -1.7575
 3498TIP3    H231986   2.191   4.262  12.434  0.1115 -0.3869 -0.1421
 3499TIP3   OH231987   6.068   0.084  14.185 -0.3183 -0.0248  0.4021
 3499TIP3    H131988   6.135   0.110  14.121  0.4110 -2.3282  0.1764
 3499TIP3    H231989   6.089   0.135  14.263  1.0316  0.0996 -0.0295
 3500TIP3   OH231990   1.569   6.216   0.351  0.2629  0.1222  0.1325
 3500TIP3    H131991   1.479   6.195   0.323  1.3976 -1.6070 -2.4304
 3500TIP3    H231992   1.622   6.146   0.314  2.6646  0.9830  1.8644
 3501TIP3   OH231993   4.667   4.422  16.146  0.2613  0.0509 -0.6036
 3501TIP3    H131994   4.750   4.386  16.113  0.7897 -0.4761  1.1866
 3501TIP3    H231995   4.623   4.346  16.185 -0.1324  0.7071  0.2422
 3502TIP3   OH231996   3.471   3.740   6.723 -0.1387  0.1213 -0.5364
 3502TIP3    H131997   3.486   3.822   6.770  0.0937  0.6119 -1.4505
 3502TIP3    H231998   3.418   3.765   6.648 -0.8200 -0.7158 -0.3483
 3503TIP3   OH231999   4.130   2.892  15.611  0.5037  0.1257  0.2222
 3503TIP3    H132000   4.060   2.956  15.603 -0.2516 -0.6769  0.3668
 3503TIP3    H232001   4.172   2.891  15.525 -0.0205  0.2057 -0.0365
 3504TIP3   OH232002   5.603   0.426   3.671  0.5216 -0.4695 -0.1772
 3504TIP3    H132003   5.663   0.458   3.604  0.0670  0.0590 -0.3328
 3504TIP3    H232004   5.597   0.497   3.735 -0.5235 -0.2065 -0.5505
 3505TIP3   OH232005   2.264   4.700   0.278  0.1649 -0.2436  0.0667
 3505TIP3    H132006   2.346   4.657   0.301  0.0503  1.0221  3.0289
 3505TIP3    H232007   2.196   4.644   0.315 -0.0383  1.5727  2.5710
 3506TIP3   OH232008   6.289   3.766   1.362 -0.1432  0.1204 -0.0482
 3506TIP3    H132009   6.237   3.829   1.311  1.8409  1.1128 -0.8727
 3506TIP3    H232010   6.295   3.805   1.449 -1.1642 -0.2395  0.1995
 3507TIP3   OH232011   1.590   4.349   0.002 -0.1225  0.4656  0.1966
 3507TIP3    H132012   1.591   4.305  -0.083  1.2570  0.2772  0.2856
 3507TIP3    H232013   1.659   4.415  -0.005  1.1603 -0.6446  1.7092
 3508TIP3   OH232014   6.370   4.265  15.360 -0.2263 -0.1723 -0.0044
 3508TIP3    H132015   6.384   4.297  15.449  0.0542 -0.3147  0.0021
 3508TIP3    H232016   6.335   4.341  15.312  0.3448  0.1151  0.0342
 3509TIP3   OH232017   1.343   3.558  15.339 -0.6111 -0.1210 -0.3340
 3509TIP3    H132018   1.410   3.580  15.403 -1.0806  3.4896 -0.9662
 3509TIP3    H232019   1.391   3.546  15.257 -0.5109  0.6646 -0.3995
 3510TIP3   OH232020   4.065   0.242  14.945  0.4967  0.4826  0.4235
 3510TIP3    H132021   4.055   0.335  14.967  1.0437  0.2561  1.6362
 3510TIP3    H232022   4.152   0.236  14.906  0.1973  0.5844 -0.2767
 3511TIP3   OH232023   1.464   6.106   0.591  0.3751  0.7541 -0.2399
 3511TIP3    H132024   1.523   6.114   0.516  2.4096  0.3418  1.2697
 3511TIP3    H232025   1.383   6.148   0.562  1.7897  2.3883 -1.9671
 3512TIP3   OH232026   6.663   5.790  12.353  0.3774 -0.3591  0.4156
 3512TIP3    H132027   6.708   5.750  12.427 -1.2123 -3.5356 -0.2456
 3512TIP3    H232028   6.702   5.748  12.276 -1.4330 -0.7886 -0.2898
 3513TIP3   OH232029   0.970   5.123  12.096  0.6583  0.2358 -0.4110
 3513TIP3    H132030   0.944   5.172  12.018  1.6231 -0.5707 -1.2547
 3513TIP3    H232031   1.014   5.045  12.062  1.7347  0.2298  0.9424
 3514TIP3   OH232032   3.683   6.700  16.974 -0.3349 -0.1913 -0.0904
 3514TIP3    H132033   3.778   6.684  16.974  0.2780  3.1527  0.6974
 3514TIP3    H232034   3.670   6.768  16.908 -2.4230 -1.6617 -1.2482
 3515TIP3   OH232035   3.525   0.912  14.634  0.1194  0.4062 -0.6680
 3515TIP3    H132036   3.557   0.877  14.550  0.8070  0.3235 -0.3786
 3515TIP3    H232037   3.431   0.896  14.632  0.4465 -1.7107 -0.4356
 3516TIP3   OH232038   2.606   0.031  13.616 -0.6260  0.4813  0.0667
 3516TIP3    H132039   2.637   0.053  13.704  2.1321 -2.2565 -0.1526
 3516TIP3    H232040   2.620   0.112  13.566 -0.5516  1.5105  1.6967
 3517TIP3   OH232041   6.154   3.899  14.825 -0.2166 -0.5385 -0.0513
 3517TIP3    H132042   6.107   3.870  14.903 -0.3434 -1.7076 -0.5493
 3517TIP3    H232043   6.130   3.991  14.815 -2.1393 -1.0235 -0.1023
 3518TIP3   OH232044   1.596   0.233   1.618  0.4634 -0.2045  0.2244
 3518TIP3    H132045   1.658   0.301   1.643 -0.5436  0.3945  1.1471
 3518TIP3    H232046   1.511   0.269   1.641 -0.3666 -0.3532 -2.5489
 3519TIP3   OH232047   6.179   3.209  15.995 -0.3386  0.2492 -0.9337
 3519TIP3    H132048   6.159   3.140  15.931 -0.4460  0.1109 -0.7493
 3519TIP3    H232049   6.234   3.165  16.060 -3.0682 -0.4995  0.9484
 3520TIP3   OH232050   0.076   2.868  16.707  0.7264  0.6299  0.3899
 3520TIP3    H132051  -0.009   2.900  16.676  1.1927  1.2439 -0.2774
 3520TIP3    H232052   0.106   2.810  16.637  0.8066  0.3211  0.6805
 3521TIP3   OH232053   4.350   6.181  14.305  0.3612 -0.4232  0.1558
 3521TIP3    H132054   4.381   6.220  14.223  0.7980  1.3124  1.1194
 3521TIP3    H232055   4.255   6.179  14.296  0.2479  2.0555  0.5916
 3522TIP3   OH232056   4.509   6.255  12.415 -0.2971 -0.2889 -0.1535
 3522TIP3    H132057   4.538   6.276  12.326 -1.3087  0.4531 -0.3202
 3522TIP3    H232058   4.519   6.161  12.423  1.7411 -0.1068 -0.3530
 3523TIP3   OH232059   1.967   6.173   0.314 -0.0313  0.4481  0.2587
 3523TIP3    H132060   2.047   6.154   0.265  0.2549  0.3778  0.7490
 3523TIP3    H232061   1.897   6.135   0.262  0.4550 -1.3059  0.8537
 3524TIP3   OH232062   1.035   1.947   1.540  0.6900 -0.2127 -0.0190
 3524TIP3    H132063   0.955   1.987   1.574  0.8384 -0.2628  0.3940
 3524TIP3    H232064   1.028   1.855   1.564  2.5340  0.4204  3.2470
 3525TIP3   OH232065   6.572   3.645  13.188  0.0350 -0.1441 -0.5086
 3525TIP3    H132066   6.667   3.647  13.190  0.0208 -0.1462  0.5272
 3525TIP3    H232067   6.550   3.580  13.122  0.7477  0.4000 -1.2904
 3526TIP3   OH232068   2.049   0.721  13.479  0.7388  0.6814  0.1594
 3526TIP3    H132069   2.016   0.741  13.566 -0.0555  1.3702 -0.2921
 3526TIP3    H232070   2.003   0.640  13.454 -1.3024  2.1081 -0.8174
 3527TIP3   OH232071   2.297   4.999  13.886 -0.3815  0.5332 -0.1604
 3527TIP3    H132072   2.260   5.057  13.819 -0.7922  0.7417  0.2430
 3527TIP3    H232073   2.346   5.057  13.944  1.5604  0.1003 -1.3574
 3528TIP3   OH232074   6.782   4.686   3.727 -0.5660 -0.0540  0.0116
 3528TIP3    H132075   6.742   4.770   3.705 -0.6309 -0.0332  0.1991
 3528TIP3    H232076   6.790   4.688   3.823 -2.3363 -1.0354  0.2162
 3529TIP3   OH232077   4.386   3.133   5.681 -0.0142  0.2903  0.1448
 3529TIP3    H132078   4.374   3.143   5.586  0.3057 -0.5068  0.0176
 3529TIP3    H232079   4.298   3.121   5.715 -0.1796  1.0753  0.0118
 3530TIP3   OH232080   6.365   0.913   3.448 -0.0897  0.1006  0.1511
 3530TIP3    H132081   6.297   0.978   3.463 -0.8277 -0.1841 -1.8740
 3530TIP3    H232082   6.425   0.955   3.386  1.3097  0.1510  1.5052
 3531TIP3   OH232083   0.771   2.014   3.680  0.3043  0.4504 -0.2480
 3531TIP3    H132084   0.801   2.092   3.634 -0.1144  0.6653 -0.1550
 3531TIP3    H232085   0.733   2.046   3.762 -0.3676  0.2018 -0.4548
 3532TIP3   OH232086   3.029   4.636   4.766 -0.1092  0.0042 -0.2806
 3532TIP3    H132087   2.965   4.587   4.714 -1.0826  2.2744 -1.3134
 3532TIP3    H232088   2.990   4.723   4.775  3.2538  1.7781 -1.8089
 3533TIP3   OH232089   5.863   0.790   5.105  0.2488  0.3367  0.2270
 3533TIP3    H132090   5.803   0.750   5.168 -0.2539  1.8726  0.7350
 3533TIP3    H232091   5.900   0.716   5.057 -1.7620 -0.6652  0.1608
 3534TIP3   OH232092   0.983   1.762   2.827  0.6197 -0.4241  0.1776
 3534TIP3    H132093   0.954   1.692   2.769 -0.4667  0.1077  0.0613
 3534TIP3    H232094   0.905   1.786   2.876  1.8257 -1.8270  2.8998
 3535TIP3   OH232095   2.105   5.566  11.233 -0.0299 -0.5055 -0.2960
 3535TIP3    H132096   2.069   5.655  11.226 -2.8445 -1.2338  3.1762
 3535TIP3    H232097   2.039   5.510  11.193 -0.3718 -1.3960  1.4568
 3536TIP3   OH232098   2.355   1.771   4.507 -0.5077 -0.3728 -0.2429
 3536TIP3    H132099   2.273   1.729   4.482 -0.2366 -0.7279 -0.5576
 3536TIP3    H232100   2.387   1.719   4.581 -0.4072 -0.4401 -0.3320
 3537TIP3   OH232101   5.859   5.807   1.983 -1.0586 -0.0907  0.1994
 3537TIP3    H132102   5.827   5.802   2.073 -0.2062 -1.6047  0.4493
 3537TIP3    H232103   5.945   5.765   1.987 -0.9286  0.0282 -1.2790
 3538TIP3   OH232104   0.882   4.082   2.457  0.6358 -0.1274  0.1023
 3538TIP3    H132105   0.851   4.168   2.483  0.4840  0.1192 -0.8555
 3538TIP3    H232106   0.971   4.076   2.493  0.3812  0.1425  0.7737
 3539TIP3   OH232107   1.663   3.086   1.903  0.4381 -0.5731  0.2275
 3539TIP3    H132108   1.700   3.112   1.987 -0.9391  1.4706  0.2095
 3539TIP3    H232109   1.736   3.041   1.858  1.7706  0.1011  1.6717
 3540TIP3   OH232110   4.829   1.210  15.206 -0.1747  0.2614  0.5165
 3540TIP3    H132111   4.788   1.240  15.287  1.1096  1.0898  0.8681
 3540TIP3    H232112   4.905   1.159  15.235 -1.3356 -1.8619 -0.1109
 3541TIP3   OH232113   3.702   5.662  12.226  0.0606  0.2014 -0.0197
 3541TIP3    H132114   3.728   5.727  12.161  0.9009 -0.2062 -0.0998
 3541TIP3    H232115   3.746   5.690  12.307  1.0833 -0.7264 -0.2561
 3542TIP3   OH232116   4.633   0.335  10.984 -0.0832  0.7671 -0.4780
 3542TIP3    H132117   4.602   0.309  10.898  1.8076  1.4133 -1.3903
 3542TIP3    H232118   4.682   0.416  10.968 -0.1219  1.1562  1.2736
 3543TIP3   OH232119   3.515   4.135   6.015 -0.2130  0.5830  0.2898
 3543TIP3    H132120   3.462   4.207   6.049  0.9318  1.2749  0.6650
 3543TIP3    H232121   3.554   4.096   6.093 -1.3969 -0.9086  0.1452
 3544TIP3   OH232122   4.778   1.454   2.581  0.2799  0.3111 -0.1924
 3544TIP3    H132123   4.807   1.525   2.639  1.4489 -2.0804  2.2756
 3544TIP3    H232124   4.691   1.430   2.615  1.3255 -1.6672  1.1774
 3545TIP3   OH232125   5.613   5.262   4.992  0.0445  0.1646  0.4117
 3545TIP3    H132126   5.691   5.206   4.992  0.2732  0.4643 -1.4601
 3545TIP3    H232127   5.552   5.218   4.933 -0.2848  1.1983 -0.0210
 3546TIP3   OH232128   1.555   6.071  14.169 -0.2743 -0.3813 -0.3474
 3546TIP3    H132129   1.617   6.107  14.106 -0.7608 -1.2786 -1.3730
 3546TIP3    H232130   1.472   6.068  14.121 -0.5693 -1.4190  0.2072
 3547TIP3   OH232131   2.799   4.609   0.410  0.2370  0.3803  1.1079
 3547TIP3    H132132   2.839   4.581   0.492 -1.2102  0.1991  1.7605
 3547TIP3    H232133   2.851   4.566   0.342  0.3580 -0.8703  1.9780
 3548TIP3   OH232134   0.004   5.773   2.458  0.5393  0.1303 -0.0653
 3548TIP3    H132135  -0.031   5.686   2.477  1.6760 -0.3024  0.0626
 3548TIP3    H232136  -0.064   5.815   2.405 -1.2564  0.1963  2.2189
 3549TIP3   OH232137   0.561   4.699   0.376  0.6976 -0.0395 -0.4758
 3549TIP3    H132138   0.569   4.604   0.375 -0.4939 -0.1467 -0.7462
 3549TIP3    H232139   0.567   4.723   0.469  0.2255 -0.4482 -0.3407
 3550TIP3   OH232140   5.156   6.628  11.206  0.1502 -0.1192  0.2763
 3550TIP3    H132141   5.178   6.721  11.211  1.2754 -0.2995 -1.0170
 3550TIP3    H232142   5.182   6.593  11.292  3.2611  0.0591 -0.5065
 3551TIP3   OH232143   1.072   5.686   5.202  0.2007 -0.1225  0.6372
 3551TIP3    H132144   1.061   5.768   5.153  0.4235 -1.2502 -1.3387
 3551TIP3    H232145   1.164   5.662   5.188  0.4055 -0.1908  2.0584
 3552TIP3   OH232146   2.618   1.180   5.496  0.1673  0.0307  0.1333
 3552TIP3    H132147   2.619   1.105   5.437 -2.4529  1.4995 -1.8650
 3552TIP3    H232148   2.597   1.142   5.582 -0.2218 -1.6467 -0.6789
 3553TIP3   OH232149   3.782   6.615   1.965  0.7224 -0.0833  0.3868
 3553TIP3    H132150   3.819   6.535   2.000  0.5124 -0.8418 -1.0789
 3553TIP3    H232151   3.729   6.587   1.890  1.0307  1.4602 -0.4390
 3554TIP3   OH232152   6.717   5.262  16.070  0.4147  0.5141  0.0514
 3554TIP3    H132153   6.679   5.238  15.986 -1.0980  0.5710  0.6967
 3554TIP3    H232154   6.723   5.180  16.118 -2.3111  0.9786  1.2846
 3555TIP3   OH232155   2.421   4.385  14.883 -0.2491  0.1579  0.0490
 3555TIP3    H132156   2.477   4.330  14.937 -0.0818  0.9576  0.7031
 3555TIP3    H232157   2.416   4.468  14.931 -1.0266  0.4870 -0.5958
 3556TIP3   OH232158   2.828   4.933  14.615  0.0590  0.0938 -0.4563
 3556TIP3    H132159   2.820   5.020  14.575 -1.4925 -0.3153 -1.0476
 3556TIP3    H232160   2.773   4.937  14.693 -1.4719 -0.9236 -1.4688
 3557TIP3   OH232161   3.587   3.968  16.382  0.1520  0.4633 -0.1510
 3557TIP3    H132162   3.506   3.990  16.335  0.9055  0.7537 -1.3447
 3557TIP3    H232163   3.652   3.957  16.313  1.4197  1.4073  0.8586
 3558TIP3   OH232164   0.442   0.951   5.264 -0.4017 -0.1503  0.1970
 3558TIP3    H132165   0.464   0.881   5.326  2.6463 -0.4220 -1.1054
 3558TIP3    H232166   0.414   0.905   5.185 -0.6171  0.1352  0.1055
 3559TIP3   OH232167   3.188   4.975   1.765 -1.1821 -0.1252 -0.2798
 3559TIP3    H132168   3.131   4.908   1.801  0.5815 -0.4555  2.0489
 3559TIP3    H232169   3.270   4.966   1.814  0.0010  1.9934 -1.7498
 3560TIP3   OH232170   2.544   6.623   5.380  0.2367  0.0115  0.7018
 3560TIP3    H132171   2.583   6.707   5.354 -0.0267 -0.5876 -1.7820
 3560TIP3    H232172   2.582   6.604   5.465  1.0624  2.1750  0.8552
 3561TIP3   OH232173   6.452   1.971   0.398 -0.0125 -0.2167  0.1171
 3561TIP3    H132174   6.394   1.966   0.322  0.1316 -0.8207  0.0482
 3561TIP3    H232175   6.509   1.895   0.390 -0.4229 -0.6463  1.1727
 3562TIP3   OH232176   5.744   2.734  14.934 -0.2980 -0.1055  0.2693
 3562TIP3    H132177   5.774   2.788  15.007  0.0620 -0.4305  0.3582
 3562TIP3    H232178   5.655   2.767  14.916 -0.3331  0.0744  0.7537
 3563TIP3   OH232179   0.888   3.897   4.835  0.1858  0.2052 -0.3662
 3563TIP3    H132180   0.853   3.829   4.776 -0.4780  0.2822 -0.0529
 3563TIP3    H232181   0.813   3.927   4.885  0.2960  1.8361 -1.1378
 3564TIP3   OH232182   4.533   3.950   6.113  0.3879 -0.1688  0.2501
 3564TIP3    H132183   4.579   3.997   6.043  0.4765 -1.0402 -0.2929
 3564TIP3    H232184   4.565   3.989   6.194 -0.1840  1.2827 -0.2148
 3565TIP3   OH232185   2.752   6.487   2.263 -0.2447 -0.1033 -0.0838
 3565TIP3    H132186   2.659   6.506   2.277 -0.5051 -1.7662  0.4929
 3565TIP3    H232187   2.793   6.573   2.259 -1.7819  0.6494 -0.1755
 3566TIP3   OH232188   3.510   5.890  16.570 -0.0121 -0.2820  0.5281
 3566TIP3    H132189   3.512   5.794  16.573  1.2102 -0.3164 -0.8046
 3566TIP3    H232190   3.574   5.913  16.503 -1.7692  1.3966 -0.6458
 3567TIP3   OH232191   4.640   5.274   5.406 -0.2830  0.4484 -0.1191
 3567TIP3    H132192   4.559   5.325   5.412 -0.5497 -0.0691  0.7573
 3567TIP3    H232193   4.626   5.199   5.464 -0.0733 -0.8695 -1.7338
 3568TIP3   OH232194   5.961   6.776  14.507 -0.4405  0.1742  0.4332
 3568TIP3    H132195   5.912   6.858  14.508 -1.1798 -0.2430 -0.5789
 3568TIP3    H232196   6.052   6.802  14.518 -0.8256  1.0018  1.7169
 3569TIP3   OH232197   4.026   0.935   3.141  0.1374 -0.3882 -0.4859
 3569TIP3    H132198   4.087   0.996   3.182  1.1114  0.4069 -3.0230
 3569TIP3    H232199   3.959   0.990   3.102  0.5618 -0.9544 -2.0589
 3570TIP3   OH232200   4.365   0.536  16.773 -0.3344 -0.4381  0.8076
 3570TIP3    H132201   4.270   0.546  16.781  0.0856  3.6306  1.8914
 3570TIP3    H232202   4.387   0.466  16.834 -2.7093 -2.1096 -0.1863
 3571TIP3   OH232203   5.904   0.138  12.990 -0.1314 -0.0429  0.2211
 3571TIP3    H132204   5.863   0.055  13.014 -0.7561  0.5615  1.2641
 3571TIP3    H232205   5.992   0.134  13.027 -0.3151 -0.0542  0.6546
 3572TIP3   OH232206   3.618   2.316  11.239 -0.3418 -0.0230 -0.1024
 3572TIP3    H132207   3.671   2.331  11.161  0.2660 -0.3183  0.2475
 3572TIP3    H232208   3.535   2.360  11.221 -0.7601 -1.3371 -1.5242
 3573TIP3   OH232209   2.575   0.051  10.465  0.5054 -0.6116  0.8751
 3573TIP3    H132210   2.600   0.088  10.380 -0.6575 -0.1811  0.7141
 3573TIP3    H232211   2.525  -0.027  10.443 -0.4294 -0.0957  1.1452
 3574TIP3   OH232212   2.014   0.738   2.664  0.0750 -0.1978  0.2243
 3574TIP3    H132213   2.051   0.826   2.669 -1.4150  0.4245  0.4241
 3574TIP3    H232214   2.045   0.695   2.744  0.3959  0.3121  0.3771
 3575TIP3   OH232215   4.365   0.458  11.371  0.2602 -0.9722 -0.1134
 3575TIP3    H132216   4.347   0.461  11.465  0.1492 -1.4699 -0.1188
 3575TIP3    H232217   4.379   0.550  11.347 -4.2487 -0.2985 -0.5190
 3576TIP3   OH232218   4.275   6.180  11.336 -0.4664 -0.0928  0.3066
 3576TIP3    H132219   4.274   6.088  11.312 -1.2799  0.1449 -0.6142
 3576TIP3    H232220   4.328   6.184  11.415  1.3906 -1.0505 -0.8623
 3577TIP3   OH232221   3.093   5.977   1.735 -0.1570  0.3491  0.0613
 3577TIP3    H132222   3.126   5.899   1.779  0.9249 -0.0117 -1.3418
 3577TIP3    H232223   3.131   6.050   1.783  0.8183 -0.0376 -0.0976
 3578TIP3   OH232224   2.142   4.320  12.105  0.0567 -0.0392  0.3168
 3578TIP3    H132225   2.218   4.378  12.102  0.5111 -0.6663 -0.1292
 3578TIP3    H232226   2.176   4.237  12.137 -0.1956 -0.7075 -1.1238
 3579TIP3   OH232227   0.035   5.706  13.320 -0.3011 -0.0129 -0.0933
 3579TIP3    H132228   0.066   5.674  13.405  0.7531 -0.0263 -0.4672
 3579TIP3    H232229  -0.059   5.717  13.331 -0.3476 -1.1250  0.7164
 3580TIP3   OH232230   4.513   0.573  15.455 -0.5596  0.1267 -0.4810
 3580TIP3    H132231   4.482   0.567  15.546  0.3462  1.2963 -0.0782
 3580TIP3    H232232   4.500   0.665  15.432  0.0638  0.0301 -1.2293
 3581TIP3   OH232233   5.250   2.679  11.260  0.2735 -0.4531 -0.0241
 3581TIP3    H132234   5.233   2.771  11.242 -0.0899 -0.3279  0.9085
 3581TIP3    H232235   5.186   2.631  11.208 -0.7467 -0.1061  0.8963
 3582TIP3   OH232236   4.762   5.904   4.308  1.0362 -0.4652 -0.4386
 3582TIP3    H132237   4.757   5.959   4.230 -0.4472 -1.3150 -0.9592
 3582TIP3    H232238   4.856   5.893   4.323  1.3503  1.8757 -0.5366
 3583TIP3   OH232239   5.092   6.673  14.058  0.5867 -0.0236 -0.0849
 3583TIP3    H132240   5.004   6.636  14.060  1.1873 -1.6953 -2.0905
 3583TIP3    H232241   5.086   6.745  13.995  0.3931  0.6406  0.6834
 3584TIP3   OH232242   5.703   0.343  14.996  0.1547 -0.7343  0.3488
 3584TIP3    H132243   5.609   0.364  14.996  0.1912 -0.5110 -1.0965
 3584TIP3    H232244   5.732   0.365  15.085 -0.3882  2.6488 -0.2339
 3585TIP3   OH232245   2.243   5.456  16.858 -0.6968  0.4117 -0.3530
 3585TIP3    H132246   2.259   5.361  16.865 -3.0911  0.0256  0.3245
 3585TIP3    H232247   2.307   5.495  16.918  1.3276 -0.6220 -1.7432
 3586TIP3   OH232248   5.667   5.897   3.648 -0.0161  0.4227 -0.4880
 3586TIP3    H132249   5.738   5.960   3.642  2.4490 -2.3215 -1.5074
 3586TIP3    H232250   5.660   5.876   3.741 -0.0694  1.2977 -0.2916
 3587TIP3   OH232251   0.041   5.929  11.828 -0.0986 -0.4497 -0.2642
 3587TIP3    H132252   0.049   5.907  11.735  3.2653 -2.2103  0.3385
 3587TIP3    H232253   0.120   5.891  11.868 -1.9094 -0.5327  3.4541
 3588TIP3   OH232254   5.288   5.320   2.905  0.1739 -0.2300  0.3885
 3588TIP3    H132255   5.313   5.359   2.989  0.3996 -0.6889  0.5365
 3588TIP3    H232256   5.284   5.394   2.845  1.0841 -0.0459  0.5543
 3589TIP3   OH232257   4.620   0.305   4.921 -0.6690  0.8313 -0.8208
 3589TIP3    H132258   4.657   0.257   4.994 -1.3824  0.2017 -0.8702
 3589TIP3    H232259   4.667   0.273   4.844  0.6462  2.0743 -0.5583
 3590TIP3   OH232260   6.431   2.306  14.577 -0.9656 -0.4195  0.6883
 3590TIP3    H132261   6.341   2.328  14.600 -1.0028  1.0918 -0.7831
 3590TIP3    H232262   6.484   2.347  14.646 -1.2374  1.4892 -0.2039
 3591TIP3   OH232263   1.112   6.815   2.417  0.0217 -0.1447 -0.4108
 3591TIP3    H132264   1.050   6.833   2.346  2.4247 -0.5362 -2.6977
 3591TIP3    H232265   1.126   6.720   2.413  0.0964 -0.1899  0.6739
 3592TIP3   OH232266   3.202   2.111  12.624 -0.5110 -0.1185 -0.3342
 3592TIP3    H132267   3.117   2.096  12.667 -0.1910 -2.3067 -0.4105
 3592TIP3    H232268   3.200   2.055  12.547  2.0720 -2.3520  1.1252
 3593TIP3   OH232269   4.855   1.004  11.593 -0.2756 -0.0208  0.6205
 3593TIP3    H132270   4.769   0.997  11.550  0.0680 -0.3608 -0.0174
 3593TIP3    H232271   4.863   1.096  11.617 -0.3778  0.2140 -0.2342
 3594TIP3   OH232272   0.291   6.056   2.914 -0.3003  0.3373  0.4414
 3594TIP3    H132273   0.276   6.101   2.831  0.2038  0.4354  0.4047
 3594TIP3    H232274   0.341   6.118   2.966 -0.1586  0.0688  0.6261
 3595TIP3   OH232275   6.067   3.467   0.980  0.0309  0.5184 -1.0748
 3595TIP3    H132276   6.111   3.482   1.064 -1.6438 -3.1701  0.6038
 3595TIP3    H232277   5.988   3.521   0.984 -0.4574 -0.2613  0.1176
 3596TIP3   OH232278   4.716   4.484  11.596 -0.1698 -0.5371  0.9437
 3596TIP3    H132279   4.711   4.471  11.691  0.8238  1.7986  1.3726
 3596TIP3    H232280   4.635   4.530  11.574  0.1161 -0.0540  0.8744
 3597TIP3   OH232281   3.537   6.102   5.938  0.5158  0.3196 -0.3332
 3597TIP3    H132282   3.539   6.012   5.906  0.0477  0.2631 -0.2048
 3597TIP3    H232283   3.626   6.119   5.967  0.7524  0.0985 -0.9152
 3598TIP3   OH232284   5.957   2.214   1.805 -0.6227  0.8687  0.6297
 3598TIP3    H132285   6.000   2.266   1.873 -1.3996  0.8498  1.1374
 3598TIP3    H232286   5.961   2.124   1.837  0.3105  0.6696 -0.0341
 3599TIP3   OH232287   3.216   4.901   4.853  0.1473  0.0688 -0.1866
 3599TIP3    H132288   3.226   4.930   4.763  0.1022  0.0498 -0.1985
 3599TIP3    H232289   3.190   4.809   4.846 -0.7645  0.3150 -0.1791
 3600TIP3   OH232290   5.975   4.169  13.880 -0.9247  0.4602 -0.0238
 3600TIP3    H132291   5.947   4.078  13.874 -0.5176  0.3416 -0.1238
 3600TIP3    H232292   5.894   4.218  13.895 -0.9248 -0.1280  2.0803
 3601TIP3   OH232293   2.380   3.750   6.144 -0.2295  0.1726 -0.0316
 3601TIP3    H132294   2.285   3.746   6.139 -0.2903  0.7526  0.5719
 3601TIP3    H232295   2.401   3.714   6.230  0.2883 -2.4540 -1.1956
 3602TIP3   OH232296   4.711   2.796   1.838  0.1310 -0.0501 -0.3755
 3602TIP3    H132297   4.759   2.874   1.865  1.4101 -1.4945  1.6181
 3602TIP3    H232298   4.645   2.783   1.906  0.2993 -1.0187 -0.3895
 3603TIP3   OH232299   6.089   0.132   2.531 -0.6365  0.3191  0.5157
 3603TIP3    H132300   6.058   0.157   2.444  0.5030  3.4184  0.9270
 3603TIP3    H232301   6.180   0.161   2.532 -0.7251  0.5459  2.8089
 3604TIP3   OH232302   5.057   0.480  17.091  0.2470 -0.4917  0.4060
 3604TIP3    H132303   4.981   0.455  17.040  0.7580 -1.5145  0.1270
 3604TIP3    H232304   5.084   0.565  17.055 -0.9545  0.0336  0.7403
 3605TIP3   OH232305   6.026   4.566   0.667 -0.2233 -0.1395 -0.0046
 3605TIP3    H132306   5.954   4.609   0.714 -1.4215 -0.6633 -1.3356
 3605TIP3    H232307   6.071   4.638   0.623 -0.4627  0.0826  0.1107
 3606TIP3   OH232308   1.322   5.650  14.461  0.3643  0.2053  0.0110
 3606TIP3    H132309   1.338   5.738  14.427 -0.0206 -0.1146 -1.0325
 3606TIP3    H232310   1.228   5.646  14.476  0.5211  0.3197  1.0761
 3607TIP3   OH232311   2.501   2.518  15.047  0.1796  0.1383 -0.9593
 3607TIP3    H132312   2.440   2.585  15.080 -0.9026 -0.3674 -1.8925
 3607TIP3    H232313   2.497   2.448  15.113  2.5455  1.6312  0.8640
 3608TIP3   OH232314   0.544   2.840   3.511  0.1949 -0.0758 -0.4704
 3608TIP3    H132315   0.450   2.854   3.522  0.4540  1.2392  0.1419
 3608TIP3    H232316   0.584   2.877   3.590  1.1324 -1.7894 -0.1266
 3609TIP3   OH232317   3.124   5.166  16.867  0.1901  0.3443 -0.0213
 3609TIP3    H132318   3.151   5.212  16.788 -0.5751 -2.6959 -2.1418
 3609TIP3    H232319   3.029   5.179  16.872 -0.0422 -0.9925 -0.6703
 3610TIP3   OH232320   6.426   0.530  13.876 -0.1990  0.1018 -0.3257
 3610TIP3    H132321   6.521   0.517  13.878 -0.2073  0.0576 -0.1952
 3610TIP3    H232322   6.415   0.623  13.857 -0.1363  0.0109 -0.8078
 3611TIP3   OH232323   2.793   6.248  14.173  0.2660  0.1793 -0.4846
 3611TIP3    H132324   2.870   6.191  14.177 -0.0448 -0.4917 -3.0705
 3611TIP3    H232325   2.811   6.317  14.236  2.6960 -0.3411 -0.5467
 3612TIP3   OH232326   2.138   0.104   2.448 -0.3894  0.1302  0.4048
 3612TIP3    H132327   2.179   0.166   2.508 -0.3493 -0.4045  0.9295
 3612TIP3    H232328   2.046   0.130   2.446 -0.4836 -0.1639  1.0744
 3613TIP3   OH232329   5.247   6.694  15.450 -0.6502 -0.7540  0.7343
 3613TIP3    H132330   5.182   6.645  15.499 -0.0141 -0.9661  1.3769
 3613TIP3    H232331   5.280   6.759  15.512  2.0915 -2.7417  1.5079
 3614TIP3   OH232332   4.395   2.566   3.428 -0.3251 -0.2982  0.7427
 3614TIP3    H132333   4.392   2.659   3.453  1.5209  0.0142 -0.1487
 3614TIP3    H232334   4.345   2.563   3.346 -0.9946 -0.2235  1.1426
 3615TIP3   OH232335   4.400   1.560   2.608 -0.3066 -0.2447 -0.0471
 3615TIP3    H132336   4.474   1.594   2.557  0.0253  1.6943  1.6660
 3615TIP3    H232337   4.395   1.617   2.685 -1.0493 -2.8157  1.9129
 3616TIP3   OH232338   4.850   6.739   3.541  0.8948 -0.2624  0.5284
 3616TIP3    H132339   4.871   6.670   3.604 -0.1307  0.7861  2.0660
 3616TIP3    H232340   4.755   6.735   3.531  1.0017 -0.1169 -0.6287
 3617TIP3   OH232341   1.310   0.613   3.598 -0.2039  0.0646 -0.4270
 3617TIP3    H132342   1.369   0.570   3.537  0.8361 -1.5293  1.6448
 3617TIP3    H232343   1.331   0.706   3.591 -0.2421 -0.0647 -2.6059
 3618TIP3   OH232344   5.845   5.798   2.807  0.3533 -0.9734 -0.5537
 3618TIP3    H132345   5.861   5.734   2.876  0.7685 -0.7476 -0.4383
 3618TIP3    H232346   5.879   5.756   2.727  0.7059 -0.8626 -0.4630
 3619TIP3   OH232347   0.184   3.996  16.218  0.1805 -0.5410 -0.3486
 3619TIP3    H132348   0.099   4.037  16.229 -0.0577 -1.2351  0.4771
 3619TIP3    H232349   0.237   4.062  16.173 -0.6821  0.0223 -0.5543
 3620TIP3   OH232350   3.846   0.498   0.289  0.1366  0.2391  0.0288
 3620TIP3    H132351   3.865   0.489   0.196 -1.3742  1.5865 -0.4173
 3620TIP3    H232352   3.910   0.562   0.321 -0.7218  1.3940 -0.5373
 3621TIP3   OH232353   5.771   4.449  14.696  0.2912 -0.6540  0.2772
 3621TIP3    H132354   5.852   4.422  14.741  0.6075 -1.1663 -0.5903
 3621TIP3    H232355   5.732   4.514  14.754 -0.0129 -2.3184  1.9803
 3622TIP3   OH232356   3.919   1.219  14.462 -0.0068 -0.1339  0.4141
 3622TIP3    H132357   3.944   1.145  14.407  0.0644  0.6472 -0.6189
 3622TIP3    H232358   3.828   1.201  14.487 -0.0727 -0.4506 -0.0446
 3623TIP3   OH232359   2.842   3.609  14.731 -0.0316  0.2443 -0.3008
 3623TIP3    H132360   2.764   3.640  14.777 -1.8989  0.0956 -3.3131
 3623TIP3    H232361   2.882   3.689  14.697  0.6642  0.2291  0.4575
 3624TIP3   OH232362   5.345   6.510   1.261 -0.2615 -0.2447  0.2291
 3624TIP3    H132363   5.322   6.582   1.320  0.3546  0.8345 -0.8068
 3624TIP3    H232364   5.421   6.468   1.302  1.5130  1.8354 -0.8134
 3625TIP3   OH232365   6.041   6.803   4.365 -0.0528 -0.1893 -0.2818
 3625TIP3    H132366   5.954   6.791   4.403  0.1032  0.2558  0.2329
 3625TIP3    H232367   6.101   6.787   4.437  0.2679  0.1154 -0.4796
 3626TIP3   OH232368   4.521   6.676   2.015 -0.2454 -0.0078 -0.3087
 3626TIP3    H132369   4.584   6.731   1.968 -0.6419  0.6613 -0.0424
 3626TIP3    H232370   4.574   6.633   2.083  0.0189  0.2133 -0.3728
 3627TIP3   OH232371   6.796   3.802  15.687 -0.0389  0.0014 -0.4558
 3627TIP3    H132372   6.842   3.785  15.769 -0.0299 -0.3225 -0.5262
 3627TIP3    H232373   6.709   3.764  15.700 -1.4091  3.3809  0.8542
 3628TIP3   OH232374   1.917   2.059   1.686  0.4442 -0.6621 -0.4426
 3628TIP3    H132375   1.910   1.982   1.741  2.8065 -0.8391 -0.3687
 3628TIP3    H232376   1.834   2.106   1.700  1.3012 -0.2711  3.8839
 3629TIP3   OH232377   1.142   2.775   3.209  0.6369  0.2801 -0.2525
 3629TIP3    H132378   1.121   2.855   3.160 -1.5167 -0.8920 -1.3455
 3629TIP3    H232379   1.170   2.713   3.142 -1.4747 -1.0704  0.0741
 3630TIP3   OH232380   1.995   1.279  17.075  0.4628  0.0981  0.3835
 3630TIP3    H132381   1.969   1.371  17.063 -3.0333 -1.1847 -2.8661
 3630TIP3    H232382   1.913   1.234  17.096  1.5152 -2.7933 -1.4429
 3631TIP3   OH232383   0.513   5.868  17.231  1.2414  0.4328  0.0131
 3631TIP3    H132384   0.422   5.892  17.211  0.4599 -1.8123  0.7274
 3631TIP3    H232385   0.545   5.941  17.284 -0.5525  0.7406  0.7437
 3632TIP3   OH232386   2.661   1.188   4.292  0.0645  0.3429 -0.0199
 3632TIP3    H132387   2.594   1.140   4.342  0.4090 -1.1093 -0.9305
 3632TIP3    H232388   2.741   1.179   4.344  0.3170 -0.7764 -0.5956
 3633TIP3   OH232389   2.192   4.995   1.452  0.3391  0.1747 -0.0003
 3633TIP3    H132390   2.223   5.055   1.520  3.0940  0.4560 -1.4298
 3633TIP3    H232391   2.192   5.048   1.372  0.4843 -1.0873 -0.8428
 3634TIP3   OH232392   2.525   5.385   3.026  0.3537 -0.4494  0.1903
 3634TIP3    H132393   2.494   5.394   2.936  0.1483 -2.0500  0.0895
 3634TIP3    H232394   2.541   5.475   3.055  0.4151  0.0780 -1.4372
 3635TIP3   OH232395   2.948   3.772   3.456 -0.5815 -0.1580 -0.1625
 3635TIP3    H132396   3.044   3.769   3.454 -0.5819 -0.1282 -0.2380
 3635TIP3    H232397   2.922   3.681   3.470 -0.5678 -0.4173 -1.6889
 3636TIP3   OH232398   3.905   1.685   6.217 -0.3879 -0.5631  0.5865
 3636TIP3    H132399   3.822   1.639   6.225 -1.6780  1.1768 -2.2425
 3636TIP3    H232400   3.955   1.633   6.154 -0.2837 -0.2739  0.4306
 3637TIP3   OH232401   4.084   3.336  15.018  0.0675  0.6080 -0.5630
 3637TIP3    H132402   4.092   3.291  14.934  0.5774  0.0080 -0.2051
 3637TIP3    H232403   4.134   3.281  15.079  0.4656  1.5269 -0.0553
 3638TIP3   OH232404   1.403   1.264  11.722 -0.4332  0.3020 -0.1004
 3638TIP3    H132405   1.368   1.183  11.685 -0.2707  0.3547 -0.3671
 3638TIP3    H232406   1.493   1.268  11.691 -1.7637  2.9417 -3.9764
 3639TIP3   OH232407   3.250   5.211   1.611  0.7046 -0.0424  0.3792
 3639TIP3    H132408   3.182   5.273   1.634  0.1856 -0.6369  0.4448
 3639TIP3    H232409   3.221   5.128   1.647  0.4361 -0.7514 -1.4120
 3640TIP3   OH232410   3.266   3.397   0.300 -0.3362 -0.6836 -0.1444
 3640TIP3    H132411   3.174   3.398   0.273 -0.2822  0.2469 -0.3074
 3640TIP3    H232412   3.307   3.331   0.244 -1.0612 -1.7034  0.4882
 3641TIP3   OH232413   5.133   1.818  12.450  0.3663 -0.1659 -0.0706
 3641TIP3    H132414   5.057   1.877  12.448  0.1918 -0.3954 -0.4706
 3641TIP3    H232415   5.098   1.736  12.484  0.5632 -0.0975  0.2904
 3642TIP3   OH232416   1.080   5.924  12.555  0.1944  0.1869 -0.4514
 3642TIP3    H132417   1.081   6.006  12.604  3.2390 -0.2195  0.2935
 3642TIP3    H232418   1.081   5.951  12.463 -1.0667  0.9670 -0.2444
 3643TIP3   OH232419   4.303   0.465  15.670 -0.4015 -0.0518 -0.3031
 3643TIP3    H132420   4.267   0.501  15.589  0.7612  0.6241 -0.5312
 3643TIP3    H232421   4.269   0.376  15.674 -3.1705  0.9857  0.1693
 3644TIP3   OH232422   4.766   6.056   3.345 -0.5502  0.1591  0.1111
 3644TIP3    H132423   4.855   6.068   3.378 -0.1949  0.6366 -1.0190
 3644TIP3    H232424   4.770   6.085   3.254 -1.8163 -0.0014  0.0026
 3645TIP3   OH232425   4.463   0.522   5.342 -0.0429  0.1347  0.3914
 3645TIP3    H132426   4.457   0.428   5.324 -3.2130  0.1223  1.1811
 3645TIP3    H232427   4.480   0.562   5.257  2.4717 -1.2099  0.2129
 3646TIP3   OH232428   1.597   1.781   0.840 -0.0624  0.3295  0.0632
 3646TIP3    H132429   1.514   1.754   0.802 -0.0546  1.0618 -0.4873
 3646TIP3    H232430   1.664   1.745   0.783 -0.0357  0.8434 -0.2359
 3647TIP3   OH232431   0.604   4.694   1.014  0.0278  0.2636 -0.1763
 3647TIP3    H132432   0.626   4.679   1.105 -0.5128  0.3457 -0.0310
 3647TIP3    H232433   0.632   4.614   0.968 -0.1813  0.0106  0.1394
 3648TIP3   OH232434   5.443   5.911  15.433  0.0552 -0.1667 -0.0357
 3648TIP3    H132435   5.538   5.905  15.434  0.0633 -0.1144 -0.3914
 3648TIP3    H232436   5.414   5.821  15.415  0.0763  0.0686 -1.3298
 3649TIP3   OH232437   6.568   2.133  11.942 -0.0068 -0.0815 -0.1026
 3649TIP3    H132438   6.523   2.170  11.866  0.4405 -1.4863 -1.0677
 3649TIP3    H232439   6.503   2.073  11.981 -0.0486  0.2325  0.3166
 3650TIP3   OH232440   2.460   2.803  15.775  0.4836  0.7326  0.7644
 3650TIP3    H132441   2.516   2.856  15.718  1.5895  0.2040  1.3483
 3650TIP3    H232442   2.512   2.726  15.795  0.6630  1.5241  3.5716
 3651TIP3   OH232443   6.066   1.177  16.297 -0.0955 -0.6062 -0.2532
 3651TIP3    H132444   5.988   1.138  16.258 -0.6357  1.4894 -1.3548
 3651TIP3    H232445   6.032   1.236  16.365  0.6370 -1.2717  0.6916
 3652TIP3   OH232446   4.537   5.035   4.578  0.7373 -0.2155  0.3100
 3652TIP3    H132447   4.537   5.111   4.637  0.6638  0.8158 -0.9840
 3652TIP3    H232448   4.508   5.071   4.493 -0.0372 -1.8405 -0.1360
 3653TIP3   OH232449   2.442   4.166   1.879  0.6771 -0.4794 -0.1170
 3653TIP3    H132450   2.460   4.107   1.806  0.3354  0.5652 -1.0845
 3653TIP3    H232451   2.404   4.244   1.837  1.6599  0.6620  1.0537
 3654TIP3   OH232452   0.515   2.714   5.393  0.6961 -0.0963 -0.2042
 3654TIP3    H132453   0.461   2.673   5.325  0.1867  1.3619 -0.7122
 3654TIP3    H232454   0.553   2.790   5.349  1.4513  0.0921  0.7724
 3655TIP3   OH232455   2.977   5.084  11.561 -0.2912 -0.1140 -0.1677
 3655TIP3    H132456   2.928   5.141  11.621 -1.3751 -0.3351 -0.8246
 3655TIP3    H232457   2.927   5.003  11.559  1.7444 -1.4918  1.4866
 3656TIP3   OH232458   1.706   2.436  15.944  0.0472  0.4246 -0.1656
 3656TIP3    H132459   1.702   2.349  15.903  0.5236 -0.4946  1.7025
 3656TIP3    H232460   1.760   2.488  15.884 -0.6868 -0.4110 -1.5748
 3657TIP3   OH232461   4.596   3.215   0.430  0.0489 -0.6657 -0.2446
 3657TIP3    H132462   4.692   3.214   0.439  0.1419  0.8699 -0.8151
 3657TIP3    H232463   4.576   3.141   0.373  0.9642 -0.5895 -0.6743
 3658TIP3   OH232464   3.456   6.028   0.930  0.3822 -0.6201 -0.6230
 3658TIP3    H132465   3.546   6.053   0.954  0.4730 -1.8447  0.3833
 3658TIP3    H232466   3.415   6.110   0.901  1.7530 -0.0091 -0.8650
 3659TIP3   OH232467   0.459   3.226   2.587 -0.2153 -0.3774 -0.7502
 3659TIP3    H132468   0.494   3.139   2.565  0.9069 -0.1521  0.1129
 3659TIP3    H232469   0.451   3.271   2.503  1.3757 -0.5129 -0.9898
 3660TIP3   OH232470   5.774   5.221   3.820 -0.3633  0.2048  0.0233
 3660TIP3    H132471   5.828   5.145   3.839  1.7683  1.6520 -0.1003
 3660TIP3    H232472   5.684   5.191   3.834  0.2240 -3.1542 -2.8331
 3661TIP3   OH232473   1.582   0.452  16.695 -0.6459  0.4241  0.3690
 3661TIP3    H132474   1.586   0.356  16.702  0.6500  0.5281  1.1557
 3661TIP3    H232475   1.523   0.478  16.767 -0.3181  0.2810  0.6912
 3662TIP3   OH232476   1.606   4.131  13.382 -0.5066 -0.2321 -0.4130
 3662TIP3    H132477   1.633   4.059  13.439 -0.1545  0.4196  0.2428
 3662TIP3    H232478   1.517   4.107  13.355 -1.1176  0.0272  1.3396
 3663TIP3   OH232479   3.824   0.336  12.290 -0.0530 -0.1661  0.5752
 3663TIP3    H132480   3.820   0.413  12.346  3.2457  0.3409  0.2278
 3663TIP3    H232481   3.734   0.305  12.285 -1.3419  3.2363  1.3090
 3664TIP3   OH232482   3.238   2.974  16.652  0.0568 -0.3895  0.0896
 3664TIP3    H132483   3.158   2.925  16.635 -1.3226  0.5075  3.6274
 3664TIP3    H232484   3.294   2.912  16.698  0.2338 -0.0900  0.2796
 3665TIP3   OH232485   4.318   1.181  12.485 -0.6453 -0.1755 -0.0733
 3665TIP3    H132486   4.235   1.135  12.473 -0.7845  0.0328  0.0751
 3665TIP3    H232487   4.300   1.245  12.554 -1.1812  1.8482 -2.0364
 3666TIP3   OH232488   4.171   2.189  16.251 -0.0487 -0.3374  0.2447
 3666TIP3    H132489   4.133   2.116  16.201 -2.8833  0.3269  1.3419
 3666TIP3    H232490   4.126   2.267  16.218  0.2861  0.4823  1.6735
 3667TIP3   OH232491   5.788   4.134   1.527 -0.4268 -0.2641  0.5670
 3667TIP3    H132492   5.788   4.201   1.596  1.1494 -1.3302  1.6496
 3667TIP3    H232493   5.814   4.181   1.448 -0.6057  0.6677  1.0517
 3668TIP3   OH232494   3.288   0.729  16.014  0.1606 -0.4371 -1.0844
 3668TIP3    H132495   3.373   0.768  15.992  0.1443 -0.3525 -0.9988
 3668TIP3    H232496   3.225   0.801  16.002  0.3266  0.0084  0.6283
 3669TIP3   OH232497   6.770   6.030  14.052  0.1719  0.0071 -0.0245
 3669TIP3    H132498   6.678   6.053  14.064 -0.1646 -0.9318 -0.7507
 3669TIP3    H232499   6.809   6.108  14.012 -0.0275  0.8547  1.3806
 3670TIP3   OH232500   4.313   1.128   5.653 -0.6219 -0.5826  0.3392
 3670TIP3    H132501   4.351   1.102   5.737 -0.2378 -0.5559  0.1761
 3670TIP3    H232502   4.296   1.046   5.607 -0.2262 -0.5766  0.1803
 3671TIP3   OH232503   3.710   4.044  11.752  0.2524  0.2929 -0.8482
 3671TIP3    H132504   3.737   3.959  11.787 -2.1600 -0.0591  0.2475
 3671TIP3    H232505   3.670   4.089  11.826  1.3087  2.3319 -1.4663
 3672TIP3   OH232506   1.073   0.785   5.829 -0.3904  0.0058  0.4564
 3672TIP3    H132507   1.139   0.726   5.864  0.6202  0.4436 -0.6610
 3672TIP3    H232508   1.103   0.873   5.854 -0.5371  0.2065 -0.0682
 3673TIP3   OH232509   1.268   0.473  11.469 -0.0118 -0.2986 -0.4842
 3673TIP3    H132510   1.271   0.490  11.375 -2.0180  0.9355 -0.3492
 3673TIP3    H232511   1.347   0.421  11.486  0.3640 -0.5644 -2.8320
 3674TIP3   OH232512   5.777   0.799  12.008  0.1837 -0.5020  0.4448
 3674TIP3    H132513   5.776   0.796  12.104  0.1408  1.0272  0.5008
 3674TIP3    H232514   5.853   0.746  11.983  0.4196 -0.5925  1.3486
 3675TIP3   OH232515   2.878   5.289  16.886 -0.1125  0.0006  0.4308
 3675TIP3    H132516   2.884   5.323  16.976  1.9190  0.2736  0.2157
 3675TIP3    H232517   2.873   5.367  16.832  0.3873 -0.1287  0.1988
 3676TIP3   OH232518   0.100   5.598  12.388 -0.0350 -0.0437  0.4822
 3676TIP3    H132519   0.135   5.615  12.300 -1.4773  0.8600  0.0757
 3676TIP3    H232520   0.064   5.509  12.383  0.4417 -0.2291  0.3408
 3677TIP3   OH232521   1.583   2.767  15.466 -0.0155 -0.2071 -0.1870
 3677TIP3    H132522   1.492   2.777  15.439  0.2364 -0.7355 -1.2332
 3677TIP3    H232523   1.591   2.675  15.491  0.3844 -0.3079 -0.6833
 3678TIP3   OH232524   4.761   5.332   5.152 -0.2744 -0.4739  0.6140
 3678TIP3    H132525   4.765   5.427   5.168 -1.2397  0.1751 -2.7047
 3678TIP3    H232526   4.708   5.299   5.224  1.1850  1.2834  2.5901
 3679TIP3   OH232527   6.368   4.996   2.812  0.4364  0.8462 -0.1314
 3679TIP3    H132528   6.422   5.051   2.868 -0.1655  0.7286  0.5758
 3679TIP3    H232529   6.382   5.030   2.724  1.4848  0.9528  0.0788
 3680TIP3   OH232530   2.191   5.295  11.761  0.5679 -0.2824  0.2186
 3680TIP3    H132531   2.176   5.362  11.695 -1.6113 -0.0188  0.9199
 3680TIP3    H232532   2.197   5.343  11.843  0.3485 -0.8419  0.5652
 3681TIP3   OH232533   0.025   4.268  15.821 -0.1598 -0.0056 -0.2322
 3681TIP3    H132534  -0.016   4.270  15.734 -0.7377  0.8879  0.0527
 3681TIP3    H232535  -0.047   4.252  15.881  0.5178 -2.5314 -0.0597
 3682TIP3   OH232536   6.717   1.855   3.526 -0.5188  0.0264 -0.2504
 3682TIP3    H132537   6.696   1.920   3.593 -0.4440  0.8214 -0.9867
 3682TIP3    H232538   6.812   1.846   3.530 -0.7189 -1.7790  1.4304
 3683TIP3   OH232539   0.389   5.882  11.678 -0.1098 -0.0929  0.4824
 3683TIP3    H132540   0.369   5.937  11.602 -0.1528  0.5740  0.9703
 3683TIP3    H232541   0.461   5.826  11.649 -0.0868  0.1948 -0.0288
 3684TIP3   OH232542   3.583   3.393  17.153  0.4778  0.1155 -0.3446
 3684TIP3    H132543   3.630   3.420  17.074 -1.5670  2.0143 -0.9778
 3684TIP3    H232544   3.612   3.456  17.220  0.9124 -0.4250 -0.0254
 3685TIP3   OH232545   1.719   2.677   1.620  0.2694  0.4881 -0.1412
 3685TIP3    H132546   1.712   2.720   1.706  2.7753  0.5373  0.0849
 3685TIP3    H232547   1.690   2.743   1.558 -0.6419  0.7860  0.5773
 3686TIP3   OH232548   0.637   0.567   3.382  0.0334 -0.3179 -0.7183
 3686TIP3    H132549   0.728   0.537   3.390  0.1840 -0.0733 -1.4545
 3686TIP3    H232550   0.593   0.498   3.333 -0.2199 -0.5050 -0.2339
 3687TIP3   OH232551   1.802   4.130  11.239  0.0994 -0.1430 -0.0201
 3687TIP3    H132552   1.811   4.059  11.303  1.0457 -0.2662 -0.2736
 3687TIP3    H232553   1.734   4.186  11.274  0.4215 -0.3574  0.9573
 3688TIP3   OH232554   1.810   3.196   4.529  0.0305 -0.1437  0.3947
 3688TIP3    H132555   1.755   3.255   4.477  0.4492  2.1088  2.3913
 3688TIP3    H232556   1.750   3.155   4.591  0.1753  0.3281  0.8507
 3689TIP3   OH232557   6.132   3.908  12.799 -0.2323  0.2760  0.7911
 3689TIP3    H132558   6.149   3.954  12.717  0.1323 -2.1137 -0.5109
 3689TIP3    H232559   6.218   3.901  12.841 -0.2833  0.7021  0.9757
 3690TIP3   OH232560   2.150   1.883  14.914  0.5241 -0.0912  0.3058
 3690TIP3    H132561   2.219   1.947  14.896 -0.3603  0.3495 -1.6606
 3690TIP3    H232562   2.068   1.931  14.898 -0.2188 -0.8941  1.6411
 3691TIP3   OH232563   1.844   3.308   5.250  0.3293  0.2194  0.0437
 3691TIP3    H132564   1.876   3.218   5.252  0.4242  0.1357 -2.7906
 3691TIP3    H232565   1.749   3.299   5.243  0.2302  0.3806  1.0649
 3692TIP3   OH232566   4.680   3.731   5.042 -0.4136  0.7113 -0.0912
 3692TIP3    H132567   4.706   3.823   5.046  0.4407  0.5251 -1.2192
 3692TIP3    H232568   4.626   3.725   4.963 -1.6493  0.5272  0.7499
 3693TIP3   OH232569   1.416   6.495   2.474 -0.1008 -0.5127 -0.0347
 3693TIP3    H132570   1.491   6.508   2.416  1.1036  0.2920  1.6614
 3693TIP3    H232571   1.369   6.579   2.470  1.1711  0.3160  1.7833
 3694TIP3   OH232572   3.185   2.850   4.348 -0.1390 -0.4690  0.2426
 3694TIP3    H132573   3.097   2.813   4.357  0.3188 -1.2427  1.5793
 3694TIP3    H232574   3.231   2.790   4.290 -0.8554  0.6191 -1.5141
 3695TIP3   OH232575   3.590   1.441   3.780 -0.1513 -0.1401  0.2261
 3695TIP3    H132576   3.573   1.364   3.834 -1.6418 -0.6212 -0.9205
 3695TIP3    H232577   3.504   1.470   3.750  0.5465  0.9075 -0.8198
 3696TIP3   OH232578   5.800   4.940  14.795 -0.3788 -0.2620  0.0382
 3696TIP3    H132579   5.813   5.005  14.726 -1.4483 -0.1064 -0.0339
 3696TIP3    H232580   5.826   4.984  14.875  0.5911 -0.3446 -0.2262
 3697TIP3   OH232581   3.050   6.732   1.329 -0.0217 -0.5610 -0.9170
 3697TIP3    H132582   3.144   6.743   1.319 -0.1458  0.7699 -0.8007
 3697TIP3    H232583   3.020   6.702   1.243 -0.1625  4.2705 -2.7380
 3698TIP3   OH232584   1.349   0.684   5.637 -0.1531 -0.1768 -0.6630
 3698TIP3    H132585   1.365   0.589   5.636 -0.1376 -0.1627 -1.9020
 3698TIP3    H232586   1.370   0.710   5.727 -3.7661 -1.9443  0.8029
 3699TIP3   OH232587   3.083   1.130  17.235 -0.7545  0.1299 -0.9298
 3699TIP3    H132588   3.177   1.150  17.236 -0.9274  0.9385 -0.9107
 3699TIP3    H232589   3.044   1.200  17.183 -1.6554  1.0997  1.0065
 3700TIP3   OH232590   2.173   6.651   2.449  0.0539  0.2538 -0.1834
 3700TIP3    H132591   2.258   6.645   2.491  0.4649 -1.0981 -1.1790
 3700TIP3    H232592   2.147   6.742   2.459  1.9269  0.8221 -0.4870
 3701TIP3   OH232593   4.302   3.060   3.607 -0.1391  0.1667  0.3740
 3701TIP3    H132594   4.342   3.137   3.649 -0.5409  1.2405 -1.1611
 3701TIP3    H232595   4.213   3.088   3.587 -0.6281 -1.0812  0.7409
 3702TIP3   OH232596   6.418   5.380  13.185  0.1051 -0.1931  0.1509
 3702TIP3    H132597   6.442   5.469  13.211 -0.5466 -0.1639  0.6533
 3702TIP3    H232598   6.501   5.339  13.162  0.3792  0.6202 -0.3075
 3703TIP3   OH232599   3.321   4.559   3.221  0.6925 -0.5644 -0.1343
 3703TIP3    H132600   3.280   4.578   3.137 -2.2182  2.5820  1.8339
 3703TIP3    H232601   3.259   4.501   3.265 -0.1815  1.5803  1.5829
 3704TIP3   OH232602   3.858   0.104   5.842 -0.8327 -0.1740 -0.3589
 3704TIP3    H132603   3.894   0.016   5.830 -1.1970 -0.4997  0.8988
 3704TIP3    H232604   3.802   0.097   5.919  0.1521  1.4688  0.5374
 3705TIP3   OH232605   3.754   1.698   0.496 -0.4006  0.0556  0.2897
 3705TIP3    H132606   3.696   1.751   0.441 -0.4186  0.6967  0.9135
 3705TIP3    H232607   3.815   1.761   0.535 -1.0775 -0.2214  1.8541
 3706TIP3   OH232608   2.946   4.214  11.917  0.1999 -0.2067 -0.1760
 3706TIP3    H132609   2.874   4.202  11.979  1.1161 -0.1301  0.9340
 3706TIP3    H232610   2.933   4.301  11.881 -0.1949 -0.1476  0.1078
 3707TIP3   OH232611   0.042   3.819  13.245 -0.3972 -0.0481 -0.2423
 3707TIP3    H132612  -0.038   3.811  13.296  0.3402  1.1943  1.1468
 3707TIP3    H232613   0.064   3.912  13.248  2.1968 -0.6594  1.1512
 3708TIP3   OH232614   5.227   1.800   4.210 -0.0332  0.5351  0.2788
 3708TIP3    H132615   5.277   1.746   4.149 -0.7198 -1.1122  1.1770
 3708TIP3    H232616   5.293   1.855   4.253  0.8158 -0.4903  0.3030
 3709TIP3   OH232617   3.359   3.210   0.105 -0.3275  0.5361 -0.1888
 3709TIP3    H132618   3.453   3.222   0.090  0.0559 -2.8446 -0.9399
 3709TIP3    H232619   3.318   3.232   0.021 -0.0315  0.4639 -0.3534
 3710TIP3   OH232620   5.967   0.318  12.289  0.1737 -0.1225 -0.1799
 3710TIP3    H132621   5.947   0.254  12.221  1.2059  0.4061 -1.0059
 3710TIP3    H232622   5.885   0.366  12.302 -0.1578 -0.5335 -0.7294
 3711TIP3   OH232623   2.305   4.520  10.828  1.0458  0.0160 -0.7701
 3711TIP3    H132624   2.338   4.538  10.740 -0.2648  0.8820 -1.0923
 3711TIP3    H232625   2.211   4.509  10.816  0.9235 -0.2993  0.4666
 3712TIP3   OH232626   3.982   5.318   4.943 -0.0938 -0.4576 -0.2232
 3712TIP3    H132627   3.959   5.410   4.930  2.0428 -0.0090 -0.9297
 3712TIP3    H232628   3.927   5.290   5.017 -1.0021  1.2729 -0.2145
 3713TIP3   OH232629   5.788   1.970   1.530  0.0339  0.5013 -0.0092
 3713TIP3    H132630   5.878   1.961   1.561  0.2922  0.7066 -0.6845
 3713TIP3    H232631   5.796   2.014   1.445 -0.6307 -0.2211 -0.4633
 3714TIP3   OH232632   4.210   6.693   0.985  0.0010 -0.5314  0.2949
 3714TIP3    H132633   4.204   6.631   1.058 -2.3665  1.3904  1.8125
 3714TIP3    H232634   4.120   6.700   0.952  0.6980  0.1676 -1.5259
 3715TIP3   OH232635   3.171   5.187  14.248  0.0056  0.7497 -0.2671
 3715TIP3    H132636   3.212   5.156  14.167  0.6106  0.5445  0.1216
 3715TIP3    H232637   3.112   5.116  14.273  1.1087  0.0714  0.4171
 3716TIP3   OH232638   0.186   3.467  11.672 -0.2890  0.6541  0.5029
 3716TIP3    H132639   0.171   3.536  11.737  0.1611  1.2543 -0.0222
 3716TIP3    H232640   0.195   3.513  11.589 -1.0211 -0.1225 -0.0228
 3717TIP3   OH232641   0.235   3.759   6.236 -0.2446 -0.1078 -0.8144
 3717TIP3    H132642   0.301   3.723   6.175  1.0470 -0.5772  0.8074
 3717TIP3    H232643   0.196   3.832   6.188  0.2414 -0.8963 -2.4795
 3718TIP3   OH232644   6.171   0.699   7.096  0.8676 -0.1128 -0.9735
 3718TIP3    H132645   6.193   0.635   7.028  0.4486 -0.6805 -0.5744
 3718TIP3    H232646   6.110   0.653   7.154 -0.2942  1.0008 -1.2880
 3719TIP3   OH232647   4.230   1.504   3.287 -0.4267 -0.2875 -0.3256
 3719TIP3    H132648   4.268   1.522   3.202  1.9006  0.3096  0.8044
 3719TIP3    H232649   4.136   1.512   3.274 -0.0958 -0.2579 -2.8318
 3720TIP3   OH232650   2.811   1.148  15.965 -0.3956  0.9488 -0.6366
 3720TIP3    H132651   2.807   1.072  16.023  0.2333  0.6283 -1.0083
 3720TIP3    H232652   2.724   1.151  15.923 -0.8751  1.2226  0.3554
 3721TIP3   OH232653   4.341   5.586  14.511  0.5813 -0.4511  0.0050
 3721TIP3    H132654   4.273   5.571  14.445 -0.0809 -0.4297  0.6796
 3721TIP3    H232655   4.379   5.499  14.526  0.9743 -0.3993 -0.6575
 3722TIP3   OH232656   1.438   5.500  11.103 -0.3846 -0.2052  0.1557
 3722TIP3    H132657   1.531   5.481  11.092 -0.7381 -2.2228  0.3912
 3722TIP3    H232658   1.399   5.477  11.019 -0.7598 -0.0228  0.2807
 3723TIP3   OH232659   3.886   3.552  11.996  0.0838 -0.3671 -0.1528
 3723TIP3    H132660   3.795   3.526  12.000 -0.4684  1.4831 -0.2788
 3723TIP3    H232661   3.911   3.568  12.087 -0.9993  3.2894 -0.4219
 3724TIP3   OH232662   2.425   2.373   2.238  0.0240  0.1402  0.2601
 3724TIP3    H132663   2.434   2.278   2.228  1.4307  0.5862 -3.3156
 3724TIP3    H232664   2.510   2.402   2.270 -0.5195  0.1983  1.7020
 3725TIP3   OH232665   4.709   2.240  12.279 -0.4094  0.2611 -0.4067
 3725TIP3    H132666   4.687   2.257  12.187 -2.1858 -0.6350 -0.1716
 3725TIP3    H232667   4.719   2.145  12.284  1.1304  0.4311  0.0402
 3726TIP3   OH232668   5.129   1.929  15.190 -0.4143  0.2014  0.6440
 3726TIP3    H132669   5.163   1.846  15.157 -1.8771 -0.8198  1.6919
 3726TIP3    H232670   5.061   1.953  15.128 -0.9705 -0.0998  1.1390
 3727TIP3   OH232671   2.210   3.061  11.936  0.5071  0.0291 -0.4821
 3727TIP3    H132672   2.305   3.048  11.940  0.6432  0.4044 -2.0242
 3727TIP3    H232673   2.189   3.055  11.842 -0.9771  0.0599 -0.1692
 3728TIP3   OH232674   2.433   3.701  11.666  0.0705 -0.2692 -0.6170
 3728TIP3    H132675   2.508   3.646  11.688  0.5227  0.4218 -0.4326
 3728TIP3    H232676   2.362   3.667  11.720  0.8352  0.5611  0.9236
 3729TIP3   OH232677   0.806   1.254   0.664 -0.1724 -0.0631 -0.0013
 3729TIP3    H132678   0.743   1.271   0.594  1.0813  0.4507 -1.0119
 3729TIP3    H232679   0.760   1.193   0.722  0.8176 -5.2538 -4.3034
 3730TIP3   OH232680   1.114   0.387  16.290  0.0573 -0.2283 -0.1895
 3730TIP3    H132681   1.187   0.379  16.351 -0.9300 -2.0088  0.7893
 3730TIP3    H232682   1.054   0.449  16.332 -0.0560 -0.5221  0.0830
 3731TIP3   OH232683   4.228   5.303   5.060 -0.3633 -0.0542  0.1418
 3731TIP3    H132684   4.139   5.319   5.028 -0.2892 -0.8959 -0.4780
 3731TIP3    H232685   4.248   5.381   5.113 -1.3340  0.2975  0.0057
 3732TIP3   OH232686   3.384   6.788  11.050  0.3813  0.3298 -0.9031
 3732TIP3    H132687   3.296   6.821  11.031 -0.0580  0.9127  2.0012
 3732TIP3    H232688   3.442   6.862  11.033  0.1225  0.5032 -1.0366
 3733TIP3   OH232689   3.025   2.907  10.528  0.0557 -0.4785  0.1519
 3733TIP3    H132690   3.056   2.983  10.478  1.8301  0.0824  2.0690
 3733TIP3    H232691   3.007   2.841  10.461  0.4846  0.9224 -1.3839
 3734TIP3   OH232692   3.346   6.767  14.146 -0.1359 -0.4321 -0.4147
 3734TIP3    H132693   3.281   6.734  14.208  0.1087  0.0638  0.1153
 3734TIP3    H232694   3.325   6.860  14.137 -1.0584 -0.8037 -2.1926
 3735TIP3   OH232695   1.886   1.496  14.497  0.2720 -0.1902  0.2300
 3735TIP3    H132696   1.973   1.536  14.486  0.2097  0.3095  1.3913
 3735TIP3    H232697   1.828   1.571  14.511 -0.1388 -0.5987  0.6946
 3736TIP3   OH232698   6.000   5.917  11.715  0.4436 -0.4852  0.2869
 3736TIP3    H132699   5.974   5.825  11.719  1.2030 -0.6759  0.7810
 3736TIP3    H232700   5.923   5.961  11.679  0.5078 -1.4838 -1.1367
 3737TIP3   OH232701   5.601   1.846  11.996 -0.0440  0.5589  0.1666
 3737TIP3    H132702   5.655   1.909  12.044  2.7677 -0.6078 -1.3721
 3737TIP3    H232703   5.535   1.900  11.953  0.5550  2.1506  1.1729
 3738TIP3   OH232704   0.203   3.832   4.770  0.3520  0.5094  0.0392
 3738TIP3    H132705   0.191   3.772   4.844 -2.7066 -0.1852 -0.9710
 3738TIP3    H232706   0.163   3.788   4.696  0.7693  2.4799 -1.4109
 3739TIP3   OH232707   4.903   5.495  15.128 -0.0988 -0.2736  0.2418
 3739TIP3    H132708   4.914   5.584  15.096  0.2845 -0.6427 -0.6952
 3739TIP3    H232709   4.977   5.447  15.090  0.1550 -0.8150  1.4003
 3740TIP3   OH232710   2.815   0.936  10.795 -0.3034 -0.0365  0.4395
 3740TIP3    H132711   2.806   0.885  10.714  0.3440 -0.1117  0.4061
 3740TIP3    H232712   2.787   1.024  10.770 -0.9726 -0.2708  0.3713
 3741TIP3   OH232713   1.384   2.811  13.619  0.1700  0.7885 -0.0438
 3741TIP3    H132714   1.390   2.799  13.524 -2.2744  0.8562 -0.2302
 3741TIP3    H232715   1.313   2.754  13.647  0.1289  1.5859  1.5997
 3742TIP3   OH232716   3.257   0.322   2.018  0.3038  0.4066 -0.6872
 3742TIP3    H132717   3.287   0.393   2.076  0.5656  1.1830 -1.7461
 3742TIP3    H232718   3.201   0.366   1.955  0.5177 -0.3339 -1.3958
 3743TIP3   OH232719   6.403   2.196  16.319  0.1434 -0.2784 -0.2778
 3743TIP3    H132720   6.339   2.175  16.386  1.0381 -2.3068 -0.0314
 3743TIP3    H232721   6.364   2.270  16.271  0.0301  2.0053  3.1706
 3744TIP3   OH232722   5.538   0.354  16.949  0.0811  0.0634  0.1771
 3744TIP3    H132723   5.518   0.343  17.042  0.3839 -0.8123  0.1381
 3744TIP3    H232724   5.460   0.322  16.904 -0.1527  0.6896  0.1279
 3745TIP3   OH232725   5.070   5.325  12.245  0.0658 -0.3740  0.0305
 3745TIP3    H132726   5.072   5.378  12.324  0.7283 -0.3467 -0.0094
 3745TIP3    H232727   5.066   5.235  12.277  0.2004 -0.3576  0.0917
 3746TIP3   OH232728   0.920   1.452  14.619 -0.1871 -0.5899  0.5727
 3746TIP3    H132729   0.957   1.425  14.535 -1.4574 -1.7035  0.3569
 3746TIP3    H232730   0.865   1.528  14.597  0.6115  0.0178  0.6352
 3747TIP3   OH232731   4.008   2.984   0.962  0.1612  0.3286 -0.6193
 3747TIP3    H132732   4.051   3.069   0.950 -1.5315  0.9157 -3.1161
 3747TIP3    H232733   3.916   3.007   0.979 -0.1010 -0.9871 -0.2177
 3748TIP3   OH232734   1.526   3.857   3.174  0.4296  0.0377 -0.2524
 3748TIP3    H132735   1.500   3.849   3.082 -1.0433  0.1011  0.1458
 3748TIP3    H232736   1.470   3.794   3.220  0.5170  0.6587  0.7153
 3749TIP3   OH232737   0.687   1.823   2.890  0.8471 -0.4659  0.1587
 3749TIP3    H132738   0.592   1.822   2.877  0.5758 -1.6415  1.9706
 3749TIP3    H232739   0.704   1.908   2.931  0.6760  0.0316 -0.7922
 3750TIP3   OH232740   2.676   0.563  12.908 -0.3569  0.0758 -0.1740
 3750TIP3    H132741   2.669   0.649  12.867 -1.2309 -0.6131 -1.5291
 3750TIP3    H232742   2.649   0.576  12.998  2.4039  1.8063  0.4537
 3751TIP3   OH232743   1.598   0.742   5.067  0.1854  0.0144  0.1134
 3751TIP3    H132744   1.552   0.752   4.983 -0.5976 -1.1400  0.3987
 3751TIP3    H232745   1.531   0.758   5.133  0.2254 -1.5025  0.5318
 3752TIP3   OH232746   1.348   3.115  12.254 -0.2419 -0.2557  0.1751
 3752TIP3    H132747   1.274   3.175  12.244 -0.4873 -0.5424  0.2564
 3752TIP3    H232748   1.312   3.040  12.302  0.4487  0.2638  1.5485
 3753TIP3   OH232749   6.345   4.373  12.602  0.3133  0.0121  0.2238
 3753TIP3    H132750   6.337   4.298  12.660 -0.4765  0.3546  0.5727
 3753TIP3    H232751   6.319   4.340  12.516  0.3425 -0.2036  0.2978
 3754TIP3   OH232752   6.396   1.171  12.857 -0.2293 -0.9062  0.3962
 3754TIP3    H132753   6.311   1.167  12.901  0.3164 -2.3671  1.3690
 3754TIP3    H232754   6.460   1.176  12.929  0.5571 -0.9112 -0.2946
 3755TIP3   OH232755   6.746   3.194   1.859 -0.0157 -1.2501 -0.4468
 3755TIP3    H132756   6.786   3.176   1.944 -3.5012 -0.6134  1.4255
 3755TIP3    H232757   6.810   3.250   1.814  0.8104  0.5824  2.8266
 3756TIP3   OH232758   4.915   2.427  12.387  0.5010 -0.1188  0.4164
 3756TIP3    H132759   4.869   2.356  12.341 -0.4713  0.3970  0.5858
 3756TIP3    H232760   4.885   2.507  12.344  1.4474  0.2138  0.3588
 3757TIP3   OH232761   6.434   2.692   0.901  0.2751 -0.1186 -0.0065
 3757TIP3    H132762   6.427   2.603   0.935  1.8072 -0.1319  0.3004
 3757TIP3    H232763   6.344   2.723   0.896 -0.3392 -2.0045 -0.9856
 3758TIP3   OH232764   6.272   6.576   1.829 -0.2647  0.6070  0.3467
 3758TIP3    H132765   6.208   6.642   1.804 -0.1101  1.0111  1.0036
 3758TIP3    H232766   6.287   6.592   1.922 -1.6792 -1.5907  0.9933
 3759TIP3   OH232767   4.189   6.688   1.732  0.0266  0.1935 -0.5041
 3759TIP3    H132768   4.123   6.681   1.663  0.3778 -0.7358 -0.7529
 3759TIP3    H232769   4.268   6.651   1.693  0.0579 -0.9342  0.6086
 3760TIP3   OH232770   2.586   5.051  16.791 -0.2175  0.1229  1.0451
 3760TIP3    H132771   2.556   4.960  16.786 -1.5917  0.5410  1.3711
 3760TIP3    H232772   2.668   5.046  16.840  0.5030 -1.1076 -0.2628
 3761TIP3   OH232773   3.019   2.648   3.919 -0.4174  0.2788 -0.1979
 3761TIP3    H132774   3.042   2.574   3.974 -0.2413  0.2230 -0.3486
 3761TIP3    H232775   3.023   2.615   3.830  2.0203  1.0997 -0.4175
 3762TIP3   OH232776   4.194   0.537   5.872 -0.1110 -0.1441 -0.6204
 3762TIP3    H132777   4.100   0.521   5.861  0.0047 -0.6133 -0.9484
 3762TIP3    H232778   4.233   0.510   5.789  0.3883 -0.5438 -0.2644
 3763TIP3   OH232779   3.916   0.685   1.635 -0.2756 -0.3774  0.6509
 3763TIP3    H132780   3.965   0.612   1.671 -0.7822 -0.9979  0.0999
 3763TIP3    H232781   3.829   0.649   1.617 -0.3207  0.1764 -0.2769
 3764TIP3   OH232782   4.658   3.947  16.709 -0.2897  0.3647  0.0417
 3764TIP3    H132783   4.632   3.986  16.793 -0.7211  1.0191 -0.3883
 3764TIP3    H232784   4.748   3.921  16.722  0.5233  2.9045 -0.1122
 3765TIP3   OH232785   3.378   6.376  16.734  0.1493 -0.4071 -0.0474
 3765TIP3    H132786   3.307   6.440  16.735 -0.5889 -1.1755 -1.5950
 3765TIP3    H232787   3.457   6.426  16.753 -0.4853  0.8716 -0.7573
 3766TIP3   OH232788   0.791   5.182   1.528 -0.6062 -0.3578  0.1720
 3766TIP3    H132789   0.870   5.210   1.574 -0.5067 -0.6234  0.1658
 3766TIP3    H232790   0.719   5.212   1.583 -0.4627 -2.9386  1.8673
 3767TIP3   OH232791   3.622   5.398  15.477  0.2953 -0.0111 -0.2159
 3767TIP3    H132792   3.557   5.425  15.542 -0.0522  0.6146 -0.8116
 3767TIP3    H232793   3.706   5.426  15.514 -0.0156  1.4910 -0.6035
 3768TIP3   OH232794   3.271   5.944  11.563  0.1449  0.0450 -0.4211
 3768TIP3    H132795   3.269   6.030  11.522  0.7860 -0.2674 -1.1327
 3768TIP3    H232796   3.180   5.914  11.563  0.3137 -0.5714 -2.9648
 3769TIP3   OH232797   2.035   5.905  15.486 -0.3025  0.2264  0.5396
 3769TIP3    H132798   2.090   5.977  15.454 -1.1339  0.3244 -0.6682
 3769TIP3    H232799   2.012   5.855  15.408 -2.3611  0.4728  0.9709
 3770TIP3   OH232800   2.220   5.651   0.366  0.2026  0.0358  0.4147
 3770TIP3    H132801   2.140   5.696   0.336 -1.0071 -0.8723  2.2085
 3770TIP3    H232802   2.291   5.705   0.332 -1.1645  0.8915 -1.1892
 3771TIP3   OH232803   2.350   2.369   2.668  0.3610 -0.8636  0.0997
 3771TIP3    H132804   2.292   2.429   2.621  1.7009 -0.3666 -0.9472
 3771TIP3    H232805   2.420   2.425   2.702 -0.3173 -1.2821  2.3118
 3772TIP3   OH232806   3.867   5.746   1.746  0.1903 -0.2143 -0.3554
 3772TIP3    H132807   3.842   5.705   1.663 -2.6806 -0.4658  0.5621
 3772TIP3    H232808   3.863   5.840   1.729  0.7106 -0.2712 -0.7987
 3773TIP3   OH232809   0.595   3.688   3.647 -0.2356 -0.6720  0.4452
 3773TIP3    H132810   0.502   3.708   3.646 -0.3129 -0.9623  1.4584
 3773TIP3    H232811   0.625   3.719   3.732  1.1266  1.7800 -0.8583
 3774TIP3   OH232812   6.347   4.021  16.137 -0.1867  0.2904  0.4058
 3774TIP3    H132813   6.283   3.991  16.073 -1.6543 -0.2483  2.0787
 3774TIP3    H232814   6.400   3.943  16.156  0.5189  0.5528 -0.4244
 3775TIP3   OH232815   2.396   4.077  12.952  0.2682  0.8003 -0.3235
 3775TIP3    H132816   2.343   4.004  12.921 -0.5447  0.4012  1.9017
 3775TIP3    H232817   2.334   4.151  12.957  0.7228  1.2283 -1.0724
 3776TIP3   OH232818   4.831   6.020   4.073 -0.0957  0.2509 -0.0764
 3776TIP3    H132819   4.860   6.110   4.055  0.5682  0.3071  1.1678
 3776TIP3    H232820   4.797   5.988   3.990  1.9055  0.8270 -1.1508
 3777TIP3   OH232821   0.842   6.811  15.540 -1.0869 -0.2996  0.1897
 3777TIP3    H132822   0.787   6.801  15.618 -0.3975 -1.7676  0.5041
 3777TIP3    H232823   0.782   6.842  15.472 -1.5047  1.9919  1.5441
 3778TIP3   OH232824   5.123   5.403   5.119  0.7192 -0.2543  0.3020
 3778TIP3    H132825   5.215   5.391   5.097  0.4278 -1.9399 -0.0551
 3778TIP3    H232826   5.077   5.402   5.035  0.2895 -0.2453  0.5335
 3779TIP3   OH232827   1.531   3.877  11.833  0.1990  0.3905 -0.4716
 3779TIP3    H132828   1.545   3.969  11.859  0.0883  0.3383 -0.2252
 3779TIP3    H232829   1.458   3.848  11.887  0.5288  0.0206 -0.2194
 3780TIP3   OH232830   6.274   0.105   6.257  0.4683 -0.1788 -0.2529
 3780TIP3    H132831   6.273   0.044   6.183  1.4167  0.5014 -0.8313
 3780TIP3    H232832   6.342   0.070   6.315  1.1807  0.4749 -0.7013
 3781TIP3   OH232833   2.720   3.854  14.414 -0.2315 -0.2950  0.4979
 3781TIP3    H132834   2.727   3.777  14.357  0.4977 -1.0747  1.6146
 3781TIP3    H232835   2.730   3.929  14.354 -2.0642 -1.0182 -0.7573
 3782TIP3   OH232836   2.749   6.099   0.119  0.2386 -0.0804 -0.6691
 3782TIP3    H132837   2.729   6.106   0.026 -1.0166  0.9362 -0.3350
 3782TIP3    H232838   2.785   6.184   0.143  0.0141 -0.1472 -0.0958
 3783TIP3   OH232839   3.356   1.468  16.947  0.3831 -0.5274 -0.0188
 3783TIP3    H132840   3.278   1.524  16.952  0.1864 -0.5097 -2.6188
 3783TIP3    H232841   3.395   1.475  17.034 -0.7126  2.1066  0.3398
 3784TIP3   OH232842   2.702   5.032  15.301 -0.0765  0.7845  0.5204
 3784TIP3    H132843   2.790   4.995  15.291 -0.1759  1.0966 -1.7119
 3784TIP3    H232844   2.692   5.044  15.395  2.0411  0.1793  0.8542
 3785TIP3   OH232845   1.442   5.573   1.802 -0.4294 -0.0983  0.5145
 3785TIP3    H132846   1.391   5.606   1.875 -0.3870  0.4045  0.3179
 3785TIP3    H232847   1.479   5.651   1.761 -0.2024 -0.3981  0.1440
 3786TIP3   OH232848   4.329   0.256   0.548 -0.1739  0.6049  0.7307
 3786TIP3    H132849   4.398   0.274   0.612 -0.4235  2.2548  0.5561
 3786TIP3    H232850   4.283   0.180   0.583  1.4071 -0.1988  1.1086
 3787TIP3   OH232851   5.254   1.132  14.762 -0.0074  0.0348  0.2016
 3787TIP3    H132852   5.341   1.154  14.794  0.0016  1.1353 -0.5393
 3787TIP3    H232853   5.194   1.176  14.821 -0.1411 -2.1939  1.8056
 3788TIP3   OH232854   2.745   4.078  14.273 -0.2570 -0.8064  0.2013
 3788TIP3    H132855   2.767   4.158  14.321  0.4443 -1.0035  0.2146
 3788TIP3    H232856   2.722   4.109  14.185  0.2672 -0.6100  0.1300
 3789TIP3   OH232857   0.042   6.169  11.226 -0.0086 -0.1333  0.1474
 3789TIP3    H132858   0.011   6.084  11.256  0.6483 -0.7354 -0.8269
 3789TIP3    H232859  -0.024   6.198  11.163  0.1438 -0.2621 -0.0708
 3790TIP3   OH232860   2.074   3.234   5.964 -0.0168 -0.2992  0.2369
 3790TIP3    H132861   2.054   3.310   6.019  0.2008  0.0597 -0.1836
 3790TIP3    H232862   1.990   3.190   5.953  0.0660 -0.8135  1.5108
 3791TIP3   OH232863   4.949   1.410   4.004 -0.0614 -0.4763  0.1395
 3791TIP3    H132864   4.867   1.438   4.043 -0.1446 -0.2172 -0.2175
 3791TIP3    H232865   4.924   1.339   3.944 -0.0465 -0.2981 -0.0803
 3792TIP3   OH232866   5.252   2.885  16.397 -0.7395 -0.2366 -0.4631
 3792TIP3    H132867   5.267   2.885  16.491  0.9495  0.7704 -0.7111
 3792TIP3    H232868   5.303   2.811  16.364  1.3463  1.3755 -0.9504
 3793TIP3   OH232869   4.054   1.335   3.042  0.4528  0.2417  0.2175
 3793TIP3    H132870   4.014   1.386   3.112  1.4986  0.4694  0.6580
 3793TIP3    H232871   4.003   1.255   3.038  0.7186 -0.0007  1.6085
 3794TIP3   OH232872   2.993   1.203  11.567 -0.0278  0.0087 -0.5167
 3794TIP3    H132873   2.993   1.298  11.571 -0.3416 -0.0326  0.8158
 3794TIP3    H232874   3.086   1.178  11.570 -0.0454  0.1762  2.5672
 3795TIP3   OH232875   2.547   1.109  15.818  0.4849 -0.8566 -0.6418
 3795TIP3    H132876   2.502   1.149  15.893  1.1226 -1.0869 -0.1412
 3795TIP3    H232877   2.534   1.172  15.747 -0.0381 -0.5924 -0.3163
 3796TIP3   OH232878   3.350   0.329  15.099 -0.0138  0.4909  0.5742
 3796TIP3    H132879   3.347   0.414  15.054 -0.7425 -0.1046 -0.5165
 3796TIP3    H232880   3.443   0.312  15.111  0.1894  0.7097 -0.6198
 3797TIP3   OH232881   5.149   2.247  10.280 -0.6567  0.4104 -0.3885
 3797TIP3    H132882   5.056   2.254  10.259 -0.6129 -0.1881 -0.7924
 3797TIP3    H232883   5.152   2.245  10.376 -1.2127 -1.5202 -0.3892
 3798TIP3   OH232884   2.574   2.766  16.244 -0.9110  0.2272  0.0846
 3798TIP3    H132885   2.591   2.693  16.303  0.8441  0.3436 -0.2551
 3798TIP3    H232886   2.495   2.807  16.279 -1.5543 -1.4495  0.6364
 3799TIP3   OH232887   2.084   3.081   4.445  0.4848 -0.8758  0.2817
 3799TIP3    H132888   2.017   3.013   4.442 -1.6943  1.2395 -0.1349
 3799TIP3    H232889   2.091   3.103   4.538  0.2098 -0.7205  0.2657
 3800TIP3   OH232890   3.763   6.012   5.732  0.4840 -0.1243 -0.3996
 3800TIP3    H132891   3.819   5.954   5.784  1.9037  1.7194  0.1569
 3800TIP3    H232892   3.678   5.968   5.731  1.7016 -2.5826 -0.6051
 3801TIP3   OH232893   5.509   4.561   3.389 -1.0515  0.5190  0.1224
 3801TIP3    H132894   5.440   4.499   3.414 -0.9786  0.1134 -0.6862
 3801TIP3    H232895   5.521   4.616   3.467 -1.1822 -0.4169  0.8075
 3802TIP3   OH232896   6.559   6.424   2.016 -0.0128 -0.3019  0.2347
 3802TIP3    H132897   6.599   6.337   2.012 -0.9714 -0.6906 -1.5201
 3802TIP3    H232898   6.632   6.485   2.009  0.5891 -0.9715  0.5826
 3803TIP3   OH232899   1.395   5.407  15.388 -0.4229  0.3087 -1.0372
 3803TIP3    H132900   1.467   5.357  15.349 -1.6006 -0.7578 -1.9006
 3803TIP3    H232901   1.353   5.449  15.314 -0.9181  0.6242 -0.5802
 3804TIP3   OH232902   5.153   2.687   2.035 -0.1685 -0.2477  0.6833
 3804TIP3    H132903   5.144   2.775   1.997 -1.1233 -0.2374  0.9248
 3804TIP3    H232904   5.070   2.644   2.016 -0.0429 -0.7989  1.3531
 3805TIP3   OH232905   5.215   6.377   2.587  0.0582 -0.3758  0.1537
 3805TIP3    H132906   5.142   6.419   2.633  1.1922  1.1198  0.6434
 3805TIP3    H232907   5.201   6.400   2.495 -0.3021 -0.4396  0.1894
 3806TIP3   OH232908   4.438   6.765   5.926 -0.0479  0.2514 -0.5697
 3806TIP3    H132909   4.484   6.725   6.000  1.2484  3.1558  0.2884
 3806TIP3    H232910   4.508   6.792   5.867 -0.9770 -0.2901 -1.9273
 3807TIP3   OH232911   5.688   2.390  10.978 -0.4282 -0.0127  0.0555
 3807TIP3    H132912   5.753   2.330  10.940  0.0761  0.1602  0.6415
 3807TIP3    H232913   5.653   2.437  10.903 -1.0340 -1.2416 -0.4483
 3808TIP3   OH232914   6.603   1.610  14.521  0.7455 -0.0075 -0.0394
 3808TIP3    H132915   6.641   1.522  14.531  1.5615  0.1542 -1.5756
 3808TIP3    H232916   6.593   1.641  14.611 -1.8504 -2.6194  0.6483
 3809TIP3   OH232917   4.688   1.887   6.007  0.6195 -0.0669 -0.1245
 3809TIP3    H132918   4.648   1.912   6.091  0.4072 -0.8284  0.0098
 3809TIP3    H232919   4.703   1.793   6.016  2.3997  0.1925 -0.1968
 3810TIP3   OH232920   3.904   5.110  14.450  0.2989 -0.0828 -0.1966
 3810TIP3    H132921   3.891   5.086  14.542 -1.7989  1.3074 -0.0927
 3810TIP3    H232922   3.964   5.184  14.452 -0.4197  0.4917  0.1159
 3811TIP3   OH232923   3.529   0.114   2.381  0.2443  0.6535 -0.4494
 3811TIP3    H132924   3.437   0.140   2.371  0.0615 -0.5302 -2.1290
 3811TIP3    H232925   3.575   0.197   2.398 -0.9715  1.4359 -0.8693
 3812TIP3   OH232926   5.667   3.012   3.335 -0.1535 -0.0481  0.5207
 3812TIP3    H132927   5.601   2.951   3.368 -1.2364 -0.7873 -2.8244
 3812TIP3    H232928   5.724   2.958   3.281 -0.2124  1.6270 -1.2271
 3813TIP3   OH232929   6.707   5.274  12.125  0.0480 -0.1817  0.2019
 3813TIP3    H132930   6.726   5.189  12.086 -0.1285 -0.6932  1.2252
 3813TIP3    H232931   6.703   5.334  12.050  4.9567 -0.1152 -0.1751
 3814TIP3   OH232932   3.504   2.448  11.493  0.3863  0.3516 -0.2207
 3814TIP3    H132933   3.491   2.472  11.401  0.5109 -0.2501 -0.4003
 3814TIP3    H232934   3.598   2.435  11.502  0.2721 -0.5766 -0.2662
 3815TIP3   OH232935   0.676   2.735  11.047  0.4884  0.5266 -0.4878
 3815TIP3    H132936   0.608   2.683  11.087  0.5597  0.1103 -0.9004
 3815TIP3    H232937   0.750   2.675  11.036  0.1040  0.3263 -2.2206
 3816TIP3   OH232938   4.130   2.739  16.238 -0.0856 -0.5230 -0.1721
 3816TIP3    H132939   4.090   2.812  16.191 -0.6875 -1.2156 -0.7436
 3816TIP3    H232940   4.179   2.781  16.309 -1.1280  0.3796  0.0283
 3817TIP3   OH232941   6.263   3.992   2.936  0.0640 -0.1613 -0.4600
 3817TIP3    H132942   6.340   4.014   2.988 -0.0095 -0.3456 -0.2701
 3817TIP3    H232943   6.263   3.896   2.933 -0.8476 -0.2063  0.5873
 3818TIP3   OH232944   6.186   3.024  12.877 -0.3336  0.5137 -0.4545
 3818TIP3    H132945   6.279   3.034  12.898 -0.4575  0.4633  0.1152
 3818TIP3    H232946   6.183   3.025  12.781  0.4433 -1.1692 -0.5043
 3819TIP3   OH232947   6.433   5.713   1.882  0.0935  0.8079 -0.5836
 3819TIP3    H132948   6.504   5.704   1.819  0.8127 -1.9437  0.5528
 3819TIP3    H232949   6.420   5.625   1.917 -3.7767  1.2519 -0.6406
 3820TIP3   OH232950   2.471   1.349  13.769  0.0070 -0.2785  0.1543
 3820TIP3    H132951   2.454   1.406  13.844 -0.7020  1.1410 -1.0696
 3820TIP3    H232952   2.520   1.276  13.806  2.9006  2.1773  1.3843
 3821TIP3   OH232953   3.440   0.168   5.125  0.0449 -0.0581 -0.4657
 3821TIP3    H132954   3.413   0.236   5.187 -0.3325  0.5178 -1.2524
 3821TIP3    H232955   3.517   0.129   5.166 -0.0069  0.5336  0.2192
 3822TIP3   OH232956   3.798   2.284   4.630  0.0271 -0.3346  0.0806
 3822TIP3    H132957   3.817   2.295   4.723 -1.0925  0.0822  0.2567
 3822TIP3    H232958   3.827   2.195   4.610 -2.3915 -1.4765  1.4946
 3823TIP3   OH232959   3.020   6.429   3.341  0.0617  0.0216  0.1149
 3823TIP3    H132960   3.080   6.497   3.371  0.7199 -0.7194  0.5022
 3823TIP3    H232961   2.979   6.396   3.421 -0.9553  0.5961 -0.1555
 3824TIP3   OH232962   0.483   1.510  12.745  0.4154  0.4142  0.1806
 3824TIP3    H132963   0.490   1.588  12.800  1.0210  1.8526 -1.8728
 3824TIP3    H232964   0.475   1.438  12.807  0.3987  2.0406  2.1391
 3825TIP3   OH232965   5.598   4.480   2.864  0.5043 -0.1966 -0.2234
 3825TIP3    H132966   5.520   4.486   2.809 -0.0772  1.9009  0.7979
 3825TIP3    H232967   5.648   4.408   2.826 -1.1824 -0.5547 -1.8379
 3826TIP3   OH232968   1.247   3.285  11.329 -0.4525 -0.0867  0.0357
 3826TIP3    H132969   1.328   3.291  11.380  0.0284 -0.6721 -0.6546
 3826TIP3    H232970   1.201   3.209  11.366 -0.8702  0.4800  0.6863
 3827TIP3   OH232971   1.618   5.979   5.302  0.1564  0.1233  0.3508
 3827TIP3    H132972   1.601   6.044   5.370  0.2156  0.0393  0.4469
 3827TIP3    H232973   1.674   5.914   5.345 -0.6537 -0.4662  0.5206
 3828TIP3   OH232974   0.283   5.940   4.664 -0.2222  0.5738 -0.1546
 3828TIP3    H132975   0.311   6.014   4.718  1.2346 -0.0782  0.0082
 3828TIP3    H232976   0.302   5.968   4.574 -1.2654  1.0672 -0.2273
 3829TIP3   OH232977   2.373   4.396  13.474 -0.1511 -0.1848 -0.6586
 3829TIP3    H132978   2.337   4.313  13.444 -0.2359 -0.6253  0.6449
 3829TIP3    H232979   2.460   4.375  13.506  0.1202  0.3642 -1.0249
 3830TIP3   OH232980   5.499   1.405   2.425 -0.1363  0.1943  0.3610
 3830TIP3    H132981   5.538   1.319   2.444 -1.2359 -0.5872 -0.7985
 3830TIP3    H232982   5.410   1.398   2.459 -0.6010  0.4569 -0.7914
 3831TIP3   OH232983   0.789   1.907   5.352  0.2042  0.2345  0.0253
 3831TIP3    H132984   0.783   1.918   5.447 -0.0271 -0.1500  0.0555
 3831TIP3    H232985   0.703   1.932   5.319  1.0130  2.7456 -0.3238
 3832TIP3   OH232986   6.250   6.447  12.892  0.1157 -0.4235  0.4949
 3832TIP3    H132987   6.192   6.520  12.915  0.7401  0.3436 -0.3329
 3832TIP3    H232988   6.194   6.388  12.841 -0.1464 -0.0698  0.3724
 3833TIP3   OH232989   3.807   1.195   3.525  0.3901 -0.0346 -0.5229
 3833TIP3    H132990   3.803   1.205   3.620  0.2076 -3.9088 -0.0560
 3833TIP3    H232991   3.720   1.167   3.499  1.3174 -2.2754 -1.3562
 3834TIP3   OH232992   2.302   0.441  12.811  0.0308  0.6423 -0.0973
 3834TIP3    H132993   2.335   0.529  12.795  0.4199  0.4824 -0.1931
 3834TIP3    H232994   2.223   0.435  12.759 -0.3346  1.1468  0.3946
 3835TIP3   OH232995   6.614   1.494   1.621 -0.6173 -0.7660  0.1758
 3835TIP3    H132996   6.574   1.529   1.701 -0.6671 -0.3208 -0.0460
 3835TIP3    H232997   6.541   1.488   1.559 -0.2032  0.7922 -0.4870
 3836TIP3   OH232998   0.311   1.376  11.514 -0.1112 -0.1084 -0.1675
 3836TIP3    H132999   0.295   1.447  11.452 -0.3529 -0.4359 -0.4787
 3836TIP3    H233000   0.225   1.357  11.551 -0.1489 -0.6538 -0.5316
 3837TIP3   OH233001   0.668   2.081   3.926 -0.3886 -0.5739 -0.0461
 3837TIP3    H133002   0.687   2.048   4.014  0.4945 -0.5867 -0.2359
 3837TIP3    H233003   0.573   2.079   3.920 -0.5013  0.2296  1.2149
 3838TIP3   OH233004   4.303   0.401   6.131 -0.2110 -0.5811  0.0372
 3838TIP3    H133005   4.297   0.461   6.057  0.2714  1.6418  1.7326
 3838TIP3    H233006   4.307   0.314   6.092  0.6794  0.5910 -2.5507
 3839TIP3   OH233007   1.714   3.744  12.386  0.0295 -0.5499 -0.2881
 3839TIP3    H133008   1.670   3.790  12.457  0.1816 -1.7888  0.6309
 3839TIP3    H233009   1.644   3.717  12.327 -0.1652 -0.1211 -0.2539
 3840TIP3   OH233010   3.700   6.502  15.354  0.4021  0.1831  0.1315
 3840TIP3    H133011   3.772   6.475  15.298 -2.0900 -0.1321 -3.0463
 3840TIP3    H233012   3.666   6.582  15.314 -0.8170  0.5312  1.7876
 3841TIP3   OH233013   1.745   4.047   4.781  0.3176 -0.0175 -0.6182
 3841TIP3    H133014   1.800   4.105   4.729  0.0329 -0.2000 -1.1269
 3841TIP3    H233015   1.783   3.960   4.768  0.0740 -0.1049 -0.7509
 3842TIP3   OH233016   0.354   2.302   5.918 -0.0988  0.3274 -0.0419
 3842TIP3    H133017   0.394   2.224   5.955  0.7154 -0.4735 -2.5761
 3842TIP3    H233018   0.260   2.289   5.932 -0.1928 -2.4097 -2.8604
 3843TIP3   OH233019   5.543   0.840   2.343 -0.7727  0.2134 -0.0185
 3843TIP3    H133020   5.514   0.931   2.343 -1.5595 -0.0254  0.0898
 3843TIP3    H233021   5.542   0.815   2.250 -0.7734  0.2532 -0.0292
 3844TIP3   OH233022   2.115   0.569   2.000 -0.4437  0.0186 -0.4953
 3844TIP3    H133023   2.035   0.535   1.958 -1.6767  1.7909  0.3663
 3844TIP3    H233024   2.182   0.561   1.932 -1.9731  1.0181 -2.1893
 3845TIP3   OH233025   0.863   2.218   2.512  0.3763 -0.0506 -0.0637
 3845TIP3    H133026   0.838   2.310   2.506  1.1443  0.4778  3.9314
 3845TIP3    H233027   0.959   2.219   2.507  0.4257 -0.5510  0.7109
 3846TIP3   OH233028   4.349   6.132  11.703  0.3654 -0.1905  0.1990
 3846TIP3    H133029   4.324   6.223  11.688  1.0732 -0.1694 -0.9400
 3846TIP3    H233030   4.275   6.082  11.670  0.3083 -0.0376  0.0902
 3847TIP3   OH233031   3.479   2.943   0.459  0.1159  0.0046  0.6131
 3847TIP3    H133032   3.524   3.004   0.400  0.2488 -1.9497 -1.3209
 3847TIP3    H233033   3.411   2.903   0.407 -0.9919 -0.3968  2.3176
 3848TIP3   OH233034   6.778   4.760   0.566 -0.3537 -0.3478 -0.2832
 3848TIP3    H133035   6.859   4.724   0.600 -1.2809 -3.5377 -1.2594
 3848TIP3    H233036   6.715   4.689   0.574 -2.3526  1.1411 -2.0855
 3849TIP3   OH233037   4.568   0.372   4.236 -0.7021  0.4835 -0.2270
 3849TIP3    H133038   4.518   0.397   4.314  1.8551 -1.5332  2.1841
 3849TIP3    H233039   4.649   0.422   4.243  0.7036 -1.7254 -0.0609
 3850TIP3   OH233040   6.118   1.600   3.133  0.4052 -0.2005 -0.0739
 3850TIP3    H133041   6.102   1.531   3.197  0.1488 -0.8354 -0.8139
 3850TIP3    H233042   6.113   1.682   3.183 -1.5987 -0.5931  0.3802
 3851TIP3   OH233043   2.761   4.753  14.265  0.1569 -0.3913  0.0065
 3851TIP3    H133044   2.717   4.828  14.226  0.3584 -0.0553  0.4222
 3851TIP3    H233045   2.704   4.679  14.246 -0.4254 -0.0074  0.2621
 3852TIP3   OH233046   2.511   5.887  13.856  0.0218 -0.0344 -0.0489
 3852TIP3    H133047   2.421   5.896  13.827  0.2481 -0.8871 -1.0260
 3852TIP3    H233048   2.545   5.812  13.808  0.8082 -0.6365  1.4071
 3853TIP3   OH233049   5.468   3.802   2.884  0.1722 -0.4055 -0.4566
 3853TIP3    H133050   5.460   3.706   2.889  0.7791 -0.4677 -0.6378
 3853TIP3    H233051   5.474   3.830   2.976  2.5479 -0.7764 -0.4521
 3854TIP3   OH233052   5.237   0.188   0.080  0.0904 -1.0580  0.8258
 3854TIP3    H133053   5.156   0.168   0.127  0.5536 -0.5498  1.8708
 3854TIP3    H233054   5.294   0.113   0.097 -0.1855 -1.4438  0.0395
 3855TIP3   OH233055   3.025   4.626  13.208 -0.6005  0.1370  0.1790
 3855TIP3    H133056   3.107   4.594  13.247 -0.4214  0.6683  0.2525
 3855TIP3    H233057   2.985   4.549  13.169  0.8788  0.2010 -1.5494
 3856TIP3   OH233058   1.036   4.315   6.140  0.3403  0.1929  0.0276
 3856TIP3    H133059   1.063   4.239   6.088 -2.3611 -0.3723 -0.6455
 3856TIP3    H233060   1.077   4.301   6.225  1.0769 -1.2874 -0.5470
 3857TIP3   OH233061   4.115   1.900   4.492  0.5341 -0.3915 -0.3466
 3857TIP3    H133062   4.090   1.990   4.470  1.1537 -0.0122  0.4707
 3857TIP3    H233063   4.044   1.869   4.548  1.4391  0.4019  1.2913
 3858TIP3   OH233064   1.335   4.002   0.843  0.4670  0.2026 -0.0579
 3858TIP3    H133065   1.414   3.965   0.803  0.5385 -0.3439  0.5611
 3858TIP3    H233066   1.367   4.075   0.896  0.3210  1.1926 -1.3216
 3859TIP3   OH233067   2.459   4.982   1.330  0.6079 -0.3260  0.3754
 3859TIP3    H133068   2.469   5.071   1.364  1.1684 -0.4370  0.5188
 3859TIP3    H233069   2.367   4.960   1.345  0.1603  0.7099 -0.8380
 3860TIP3   OH233070   4.960   6.399   1.373 -0.6738 -0.1119 -0.4151
 3860TIP3    H133071   4.887   6.379   1.431 -1.5858  3.5036 -0.2070
 3860TIP3    H233072   4.921   6.400   1.285 -0.2273 -1.1870 -0.6292
 3861TIP3   OH233073   6.794   1.498  13.729  0.1527  0.1583 -0.0458
 3861TIP3    H133074   6.861   1.444  13.772 -0.6339 -1.8292 -1.2580
 3861TIP3    H233075   6.712   1.471  13.771 -0.1306  1.2917  0.1586
 3862TIP3   OH233076   2.320   5.098  11.260  0.0008  0.1907 -0.1290
 3862TIP3    H133077   2.241   5.144  11.233  0.7100  2.1634  1.0499
 3862TIP3    H233078   2.392   5.155  11.233  0.8458  0.4804  2.5479
 3863TIP3   OH233079   5.089   1.199   6.022 -0.2096  0.2092  0.0889
 3863TIP3    H133080   5.178   1.206   5.986 -0.1839 -2.0851 -0.3604
 3863TIP3    H233081   5.033   1.197   5.944 -0.7198  2.1671  0.3812
 3864TIP3   OH233082   5.390   4.002  16.122 -0.0817  0.0108 -0.1602
 3864TIP3    H133083   5.408   3.977  16.031  1.5326  0.2358  0.0684
 3864TIP3    H233084   5.437   4.085  16.133  0.6660 -0.5777  1.1958
 3865TIP3   OH233085   1.418   4.964  16.021  0.2120  0.0936  0.0170
 3865TIP3    H133086   1.352   5.033  16.009 -0.1644 -0.1824  0.4784
 3865TIP3    H233087   1.440   4.968  16.114 -1.5011 -1.9145  0.5546
 3866TIP3   OH233088   2.925   2.288   2.908 -0.4621 -0.2923  0.1599
 3866TIP3    H133089   2.953   2.354   2.845  1.2868 -0.0833  1.1170
 3866TIP3    H233090   2.958   2.320   2.992 -2.1226 -0.9347  1.0752
 3867TIP3   OH233091   3.914   3.550  13.576 -0.5885  0.1981 -0.6918
 3867TIP3    H133092   3.970   3.553  13.654 -1.7937  1.6853  0.1298
 3867TIP3    H233093   3.967   3.591  13.507 -0.1648  0.3901 -0.2527
 3868TIP3   OH233094   1.678   1.697  16.492  0.4540  0.0950 -0.3058
 3868TIP3    H133095   1.598   1.717  16.444  0.9166  1.0350 -0.6938
 3868TIP3    H233096   1.719   1.626  16.442 -0.4717 -0.8603  0.2775
 3869TIP3   OH233097   0.747   2.237  13.282  0.1588 -0.4305 -0.4911
 3869TIP3    H133098   0.763   2.278  13.367 -1.7302 -1.0510  0.2009
 3869TIP3    H233099   0.752   2.310  13.220 -1.1418  0.5358  0.4954
 3870TIP3   OH233100   4.904   2.848  14.264 -0.0436 -0.6580 -0.2514
 3870TIP3    H133101   4.892   2.815  14.353  0.7431  0.8250  0.4160
 3870TIP3    H233102   4.994   2.824  14.242 -0.3712 -1.3947 -0.8215
 3871TIP3   OH233103   4.567   5.821  12.089 -0.8093 -0.5052 -0.3064
 3871TIP3    H133104   4.663   5.818  12.088 -0.7402  0.6628  1.4081
 3871TIP3    H233105   4.545   5.910  12.062 -1.4135 -0.8456 -0.9340
 3872TIP3   OH233106   1.559   4.121  14.312 -0.0403 -0.5830  0.4186
 3872TIP3    H133107   1.484   4.176  14.291 -0.5773 -0.3276  2.9022
 3872TIP3    H233108   1.627   4.182  14.340  0.2390 -1.0038  0.6692
 3873TIP3   OH233109   0.053   2.242  17.113  0.5157 -0.4822 -0.4167
 3873TIP3    H133110   0.074   2.330  17.146 -0.9441 -0.9095  1.7469
 3873TIP3    H233111   0.078   2.245  17.021 -1.3008  2.8400 -0.8894
 3874TIP3   OH233112   5.844   4.307   5.069  0.5989 -0.3616 -0.1410
 3874TIP3    H133113   5.807   4.313   4.981  0.9500  2.4756 -0.1372
 3874TIP3    H233114   5.938   4.316   5.056  0.5225  1.8250  0.6365
 3875TIP3   OH233115   0.929   6.453   6.170 -0.1533  0.0143 -0.5909
 3875TIP3    H133116   0.958   6.430   6.259 -0.6493  0.6106 -0.2764
 3875TIP3    H233117   0.885   6.374   6.138 -0.1714 -0.1264 -0.2230
 3876TIP3   OH233118   0.472   6.309   5.406  0.6913  0.2063 -0.3857
 3876TIP3    H133119   0.507   6.396   5.386 -0.5947  0.7812 -0.1489
 3876TIP3    H233120   0.495   6.256   5.329 -1.2700  1.5469 -1.9209
 3877TIP3   OH233121   0.679   5.058  13.985 -0.2030 -0.3780  1.0533
 3877TIP3    H133122   0.628   5.133  14.015  1.0599  0.6298  0.7388
 3877TIP3    H233123   0.756   5.097  13.942  0.7156 -1.8537  1.3219
 3878TIP3   OH233124   6.636   0.988  16.663  0.1136 -0.3155 -0.0164
 3878TIP3    H133125   6.561   0.937  16.694 -0.7494  0.2332 -1.1523
 3878TIP3    H233126   6.666   1.035  16.740  0.1928 -1.6431  0.7739
 3879TIP3   OH233127   5.610   6.595  11.912 -0.2929 -0.2410 -0.2676
 3879TIP3    H133128   5.561   6.519  11.943  0.1723 -0.9903 -1.3334
 3879TIP3    H233129   5.702   6.571  11.925 -0.1474  0.1842 -0.4867
 3880TIP3   OH233130   4.618   3.349   4.832 -0.0262  0.5682 -0.4265
 3880TIP3    H133131   4.641   3.427   4.884 -0.8368  1.1378 -0.9191
 3880TIP3    H233132   4.599   3.282   4.897 -0.6654  1.1738  0.0140
 3881TIP3   OH233133   2.746   0.537   2.818  0.2981 -0.5514  0.1681
 3881TIP3    H133134   2.659   0.498   2.825  0.3258 -0.5311  0.6067
 3881TIP3    H233135   2.751   0.600   2.889  0.0728  0.6303 -0.8512
 3882TIP3   OH233136   0.705   3.919   2.589  0.6823 -0.0992  0.1166
 3882TIP3    H133137   0.767   3.984   2.557 -1.5375  1.8892 -0.2495
 3882TIP3    H233138   0.643   3.908   2.518  0.6358 -2.1251  0.4514
 3883TIP3   OH233139   0.893   0.169  13.483 -0.0511 -0.2210  0.3190
 3883TIP3    H133140   0.947   0.122  13.546 -1.3543 -0.4974  1.2588
 3883TIP3    H233141   0.885   0.257  13.520  1.6090  0.4989 -0.9661
 3884TIP3   OH233142   0.303   4.508   3.233 -0.1758  0.1861  0.3286
 3884TIP3    H133143   0.255   4.555   3.301  2.1174  0.2554  1.9592
 3884TIP3    H233144   0.356   4.575   3.190 -0.7556 -0.0620 -0.7996
 3885TIP3   OH233145   2.444   4.152   6.232  0.3704  0.4203  0.2941
 3885TIP3    H133146   2.432   4.225   6.171 -0.1215 -0.1450 -0.2767
 3885TIP3    H233147   2.378   4.167   6.299 -0.7466 -0.3531 -0.6321
 3886TIP3   OH233148   2.252   3.706   2.759 -0.3680 -0.1229 -0.2312
 3886TIP3    H133149   2.199   3.631   2.734 -0.1736 -0.3688  0.0899
 3886TIP3    H233150   2.224   3.776   2.700  0.1441 -0.7199 -1.2023
 3887TIP3   OH233151   3.363   6.310  11.709  0.0745  0.1023  0.8194
 3887TIP3    H133152   3.312   6.296  11.789 -2.2449  1.3368 -0.4004
 3887TIP3    H233153   3.298   6.312  11.639  2.1154 -1.4845 -1.2010
 3888TIP3   OH233154   0.985   3.546   5.170  0.1840 -0.0839  0.6200
 3888TIP3    H133155   0.955   3.521   5.083  1.3196 -1.6018  0.6455
 3888TIP3    H233156   1.002   3.640   5.164  2.1899 -0.5330 -1.3842
 3889TIP3   OH233157   1.516   2.101   3.912 -0.3607  0.0880  0.3155
 3889TIP3    H133158   1.604   2.113   3.876 -0.0690 -0.0644  0.9684
 3889TIP3    H233159   1.458   2.125   3.841  0.2105  0.9488  0.1337
 3890TIP3   OH233160   6.344   6.168  10.790  0.4132  0.5191  0.3340
 3890TIP3    H133161   6.426   6.127  10.760  0.3831 -1.3412  2.6623
 3890TIP3    H233162   6.309   6.106  10.854 -2.5081  1.6077 -0.1559
 3891TIP3   OH233163   2.120   3.686  16.447 -0.0161  0.4478  0.8625
 3891TIP3    H133164   2.159   3.763  16.488 -2.8152  1.7204  1.2218
 3891TIP3    H233165   2.189   3.652  16.389  1.3805  2.9772  0.9986
 3892TIP3   OH233166   5.840   4.342   0.319 -0.3137  0.0201  0.3379
 3892TIP3    H133167   5.889   4.363   0.239 -0.9502  0.0936 -0.0379
 3892TIP3    H233168   5.906   4.305   0.378  0.0042 -0.8324 -0.5301
 3893TIP3   OH233169   0.301   6.019   0.466  0.3096 -0.3045  0.0855
 3893TIP3    H133170   0.302   5.987   0.556  0.6712  2.0007  0.9527
 3893TIP3    H233171   0.390   6.051   0.451  0.1402 -0.3063 -0.9481
 3894TIP3   OH233172   6.364   5.256  12.142 -0.3038 -0.3097 -0.1719
 3894TIP3    H133173   6.412   5.336  12.166 -0.7736  0.2413 -1.0357
 3894TIP3    H233174   6.433   5.192  12.123  0.0826 -0.6714  2.2668
 3895TIP3   OH233175   1.393   5.666  15.266  0.7996  0.4562  0.1201
 3895TIP3    H133176   1.465   5.645  15.326  1.3377 -0.5534 -0.8553
 3895TIP3    H233177   1.427   5.642  15.179 -0.7148 -0.0056 -0.3483
 3896TIP3   OH233178   1.088   2.271  12.353  0.5818 -0.4494  0.6087
 3896TIP3    H133179   1.054   2.340  12.294  1.5054  1.1280  1.8741
 3896TIP3    H233180   1.111   2.199  12.294 -0.2116  0.3910 -0.7778
 3897TIP3   OH233181   3.076   5.787  15.821  0.6660 -0.2336  0.0445
 3897TIP3    H133182   3.096   5.713  15.878  0.2617  0.9076  1.6814
 3897TIP3    H233183   3.155   5.841  15.823  1.7412 -1.5801 -2.7457
 3898TIP3   OH233184   3.116   6.135  13.687  0.0902 -0.1671  0.1050
 3898TIP3    H133185   3.122   6.119  13.593 -1.3913 -1.4740  0.2022
 3898TIP3    H233186   3.051   6.204  13.696 -1.7493 -1.8720  0.2830
 3899TIP3   OH233187   4.706   2.241   6.610  0.0615 -0.7252  0.2091
 3899TIP3    H133188   4.638   2.309   6.610 -0.5310 -1.2828 -1.4200
 3899TIP3    H233189   4.685   2.188   6.533  1.8793 -1.3916  0.1713
 3900TIP3   OH233190   3.927   3.206  17.193 -0.3764 -0.1222 -0.2889
 3900TIP3    H133191   3.870   3.245  17.259 -1.6218  0.0929 -1.4708
 3900TIP3    H233192   4.015   3.213  17.230 -1.0571 -0.0502  1.3664
 3901TIP3   OH233193   5.501   5.948   5.188 -0.6615  0.4021 -0.5265
 3901TIP3    H133194   5.584   5.994   5.179 -1.6650  2.0473 -1.6503
 3901TIP3    H233195   5.515   5.887   5.260  1.3199  1.0855 -0.3046
 3902TIP3   OH233196   2.232   3.632   4.115  0.1431  0.1291  0.3620
 3902TIP3    H133197   2.308   3.689   4.121  0.3095  0.0131 -0.5965
 3902TIP3    H233198   2.257   3.566   4.050 -0.3049 -0.6357  0.9501
 3903TIP3   OH233199   5.677   3.924   0.913 -0.5278 -0.2100 -0.3147
 3903TIP3    H133200   5.592   3.966   0.911 -0.6943 -0.4468  1.1113
 3903TIP3    H233201   5.736   3.991   0.950  0.0871  0.2482 -2.0748
 3904TIP3   OH233202   2.027   2.988  12.868 -0.0746 -0.2985  0.2321
 3904TIP3    H133203   2.053   3.079  12.885 -2.7345 -0.0248  3.3685
 3904TIP3    H233204   2.000   2.988  12.776 -0.9455  2.3296  0.4502
 3905TIP3   OH233205   1.847   5.248  13.104 -0.3392 -0.2419 -0.4738
 3905TIP3    H133206   1.785   5.312  13.139  1.2852 -0.6150  3.3600
 3905TIP3    H233207   1.921   5.301  13.075 -1.0104 -0.0514 -1.8684
 3906TIP3   OH233208   0.543   0.324  12.434 -0.0183 -0.5578  0.2248
 3906TIP3    H133209   0.616   0.382  12.454 -0.3220 -0.8676  2.2559
 3906TIP3    H233210   0.583   0.239  12.415  0.2585 -0.2791 -0.4620
 3907TIP3   OH233211   5.538   2.434  15.620 -0.3690 -0.4360  0.0286
 3907TIP3    H133212   5.533   2.438  15.716  0.2022  0.7580  0.0225
 3907TIP3    H233213   5.632   2.432  15.601 -0.4484  0.7822 -0.5457
 3908TIP3   OH233214   3.402   0.082  11.576  0.3139 -0.2237 -0.4157
 3908TIP3    H133215   3.361   0.163  11.545  1.6088  0.0449 -1.5222
 3908TIP3    H233216   3.353   0.012  11.533 -1.7282 -0.1000  1.6721
 3909TIP3   OH233217   0.455   0.786   5.542  0.0361  0.1443 -0.2642
 3909TIP3    H133218   0.385   0.851   5.538 -0.7161 -0.6429 -0.0209
 3909TIP3    H233219   0.414   0.705   5.511  0.9907 -0.1945 -0.6710
 3910TIP3   OH233220   1.103   3.896  16.584  0.0361  0.0703 -0.2817
 3910TIP3    H133221   1.061   3.838  16.521  1.4591 -1.1203 -0.1615
 3910TIP3    H233222   1.195   3.900  16.557  0.6818 -0.4986  1.6949
 3911TIP3   OH233223   2.520   2.719  11.298 -0.3655 -0.0333  0.2074
 3911TIP3    H133224   2.497   2.798  11.347 -0.8737 -0.9507  1.4668
 3911TIP3    H233225   2.615   2.717  11.298 -0.3612  0.0597  1.0386
 3912TIP3   OH233226   0.582   5.879  11.322  0.3928  0.0059  0.4589
 3912TIP3    H133227   0.558   5.902  11.411 -2.3303 -0.6875 -0.0263
 3912TIP3    H233228   0.602   5.962  11.279 -1.1453  0.6433  0.9519
 3913TIP3   OH233229   2.129   2.864   5.141  0.6591 -0.1466  0.5548
 3913TIP3    H133230   2.198   2.930   5.149  2.8087 -2.1393 -1.1665
 3913TIP3    H233231   2.169   2.783   5.172 -1.3631 -1.0758  0.8357
 3914TIP3   OH233232   0.627   1.124   0.829  0.3203  0.3454  0.1559
 3914TIP3    H133233   0.577   1.096   0.906 -0.7752  1.0176 -0.2997
 3914TIP3    H233234   0.645   1.042   0.782 -1.8555  0.2466 -0.5593
 3915TIP3   OH233235   0.746   0.134   5.512 -0.4531  0.8661  0.1108
 3915TIP3    H133236   0.707   0.126   5.598  0.7675 -0.9048  0.5218
 3915TIP3    H233237   0.763   0.228   5.502 -0.4851  1.0695  1.8416
 3916TIP3   OH233238   1.078   5.345   2.353  0.8319  0.4517  0.4684
 3916TIP3    H133239   1.133   5.400   2.409  1.8130 -0.5572  0.5185
 3916TIP3    H233240   1.140   5.306   2.291  0.1112 -0.3804  0.2660
 3917TIP3   OH233241   3.739   1.499   0.921 -0.4006 -0.2762 -0.6551
 3917TIP3    H133242   3.726   1.447   1.000  1.5337 -0.2091 -0.2823
 3917TIP3    H233243   3.653   1.538   0.904 -1.1522 -1.3134  0.6660
 3918TIP3   OH233244   1.072   1.241   6.286 -0.2467 -0.2772 -0.3058
 3918TIP3    H133245   1.106   1.153   6.303 -0.1393 -0.4964 -1.6109
 3918TIP3    H233246   0.985   1.241   6.326  0.4280 -0.4081  1.1989
 3919TIP3   OH233247   5.024   4.231  13.926  0.2229 -0.3744  0.0896
 3919TIP3    H133248   5.071   4.152  13.954  0.7872 -0.2830 -0.5770
 3919TIP3    H233249   4.975   4.203  13.849 -0.4910 -0.3560  0.5265
 3920TIP3   OH233250   4.415   2.380   5.704 -0.3981  0.3026 -0.5545
 3920TIP3    H133251   4.460   2.355   5.623 -0.0717 -0.4785 -0.1318
 3920TIP3    H233252   4.426   2.475   5.709 -0.1201  0.3097 -1.2459
 3921TIP3   OH233253   2.163   4.346   2.870  0.2488 -0.0981  0.3285
 3921TIP3    H133254   2.178   4.405   2.944 -1.4056 -0.9217  1.3459
 3921TIP3    H233255   2.126   4.402   2.802  3.6438  1.0825 -0.6642
 3922TIP3   OH233256   0.337   0.293   6.067 -0.6509 -0.3946  0.0920
 3922TIP3    H133257   0.305   0.333   6.148  0.2964  0.3263  0.1172
 3922TIP3    H233258   0.322   0.360   6.000 -0.6526 -0.6639 -0.1761
 3923TIP3   OH233259   5.077   3.534   2.072 -0.4497  0.0742  0.0975
 3923TIP3    H133260   5.039   3.465   2.018 -1.0848  0.0942  0.5007
 3923TIP3    H233261   5.089   3.493   2.158 -1.3977  0.6218  0.5087
 3924TIP3   OH233262   2.696   4.663   1.903  0.0011 -0.7249  0.0536
 3924TIP3    H133263   2.614   4.663   1.854 -0.5885  0.0840  1.0519
 3924TIP3    H233264   2.760   4.627   1.841  0.0388  3.5876 -2.6016
 3925TIP3   OH233265   6.261   4.078   0.717 -0.0801  0.4040 -0.2042
 3925TIP3    H133266   6.171   4.106   0.732  0.7317  3.0225  0.1090
 3925TIP3    H233267   6.290   4.129   0.641  1.7173  1.0392  0.8682
 3926TIP3   OH233268   6.284   5.272   2.690  0.3200  0.0021  0.1473
 3926TIP3    H133269   6.264   5.309   2.604 -1.0330  0.8396  0.8091
 3926TIP3    H233270   6.200   5.244   2.725  0.8049 -0.0086  1.3566
 3927TIP3   OH233271   0.299   0.173   3.703  0.1105 -0.4928 -0.2564
 3927TIP3    H133272   0.238   0.204   3.770  2.0908 -2.3571  2.5430
 3927TIP3    H233273   0.291   0.078   3.704  2.0157 -0.6918 -0.8106
 3928TIP3   OH233274   1.816   0.663  14.873  0.3088  0.2443 -0.5356
 3928TIP3    H133275   1.772   0.733  14.921 -1.6260 -2.4510  1.8018
 3928TIP3    H233276   1.760   0.647  14.797  1.2481  1.8154 -1.5797
 3929TIP3   OH233277   2.208   1.238  15.721  0.2318 -0.0974  0.5411
 3929TIP3    H133278   2.157   1.278  15.650  0.2353  1.6405  1.5170
 3929TIP3    H233279   2.157   1.160  15.745 -0.5063  0.0800 -0.3999
 3930TIP3   OH233280   0.045   0.438  11.953 -0.3325 -0.4068 -0.0308
 3930TIP3    H133281   0.130   0.475  11.977 -0.2342 -1.1278  0.7374
 3930TIP3    H233282   0.034   0.362  12.010 -1.7380 -0.0147  0.2405
 3931TIP3   OH233283   1.446   2.786   0.204 -0.1154  0.0912  0.0568
 3931TIP3    H133284   1.517   2.797   0.267  0.7655  0.2783 -0.9516
 3931TIP3    H233285   1.427   2.874   0.172 -0.4827 -0.0144 -0.0262
 3932TIP3   OH233286   2.157   6.187  13.297  0.6464 -0.2825  0.2843
 3932TIP3    H133287   2.066   6.206  13.319  0.6146  0.5486 -0.5635
 3932TIP3    H233288   2.173   6.100  13.334 -0.0555  0.1706  1.7061
 3933TIP3   OH233289   6.515   6.767   2.863 -0.3455 -0.1122 -0.0829
 3933TIP3    H133290   6.467   6.803   2.938  2.4257  1.3311  1.0603
 3933TIP3    H233291   6.494   6.826   2.790  1.4796  1.9144  0.9742
 3934TIP3   OH233292   1.725   5.346  10.709 -0.2583 -0.4940  0.1207
 3934TIP3    H133293   1.672   5.364  10.786  1.2333 -0.0100  1.0619
 3934TIP3    H233294   1.665   5.303  10.648 -1.8882  0.6432  0.8753
 3935TIP3   OH233295   4.235   6.252   4.267  0.0732 -0.2919 -0.3799
 3935TIP3    H133296   4.185   6.287   4.193 -2.0971 -0.3992  1.0004
 3935TIP3    H233297   4.193   6.168   4.287  0.9675 -0.5104  0.6375
 3936TIP3   OH233298   1.137   4.620   1.493 -0.6171  0.2765  0.2646
 3936TIP3    H133299   1.058   4.587   1.449  0.5298 -1.0498 -0.8549
 3936TIP3    H233300   1.130   4.586   1.582 -0.8734 -0.6025 -0.0810
 3937TIP3   OH233301   5.484   4.168   4.431 -0.0746 -0.3188  0.3322
 3937TIP3    H133302   5.414   4.103   4.439 -0.3776  0.2524  2.7434
 3937TIP3    H233303   5.562   4.122   4.461 -0.1618  0.2074  1.3873
 3938TIP3   OH233304   0.449   6.422  13.009  0.3384 -0.3551  0.0944
 3938TIP3    H133305   0.522   6.435  12.948 -1.6533 -0.2856 -2.3362
 3938TIP3    H233306   0.424   6.511  13.035 -0.0201 -0.3065 -0.4285
 3939TIP3   OH233307   2.067   5.403  13.033 -0.3728 -0.1908 -0.5201
 3939TIP3    H133308   2.075   5.438  13.121 -2.1129 -1.6602  0.2604
 3939TIP3    H233309   2.147   5.353  13.019  0.7249  1.5395 -0.4816
 3940TIP3   OH233310   4.809   3.872   2.411 -0.0684 -0.0202 -0.0292
 3940TIP3    H133311   4.818   3.907   2.323 -1.0200  1.8626  0.6016
 3940TIP3    H233312   4.853   3.935   2.467  0.4836 -1.1724  0.8616
 3941TIP3   OH233313   3.734   4.995  16.521  0.2822 -0.6141  0.0040
 3941TIP3    H133314   3.771   4.916  16.561 -0.1878 -0.1175  1.4657
 3941TIP3    H233315   3.645   5.000  16.557 -0.1471 -0.1447 -1.1150
 3942TIP3   OH233316   5.705   3.381  13.260  0.0644 -0.4958  0.5513
 3942TIP3    H133317   5.732   3.289  13.266 -1.4820 -0.9904  0.2568
 3942TIP3    H233318   5.786   3.431  13.271  0.9003 -1.8903  0.8617
 3943TIP3   OH233319   1.011   3.242  15.440 -0.3543  0.2318  0.3491
 3943TIP3    H133320   1.066   3.166  15.420 -0.5014  0.0802  0.5120
 3943TIP3    H233321   0.948   3.246  15.368 -0.0672  0.4636  0.1113
 3944TIP3   OH233322   1.034   2.770   5.285  0.5815 -0.9023  0.6916
 3944TIP3    H133323   0.975   2.695   5.289 -1.4193  0.6553  1.1722
 3944TIP3    H233324   1.032   2.808   5.373  0.8210  0.2598  0.2098
 3945TIP3   OH233325   1.549   3.469  12.617  0.3082  0.0496 -0.0695
 3945TIP3    H133326   1.577   3.499  12.704 -1.5422 -0.4980  0.7390
 3945TIP3    H233327   1.498   3.542  12.582  0.5140  0.0219 -0.4232
 3946TIP3   OH233328   5.213   0.618  12.012 -0.1254  0.5664 -0.0129
 3946TIP3    H133329   5.161   0.539  11.993  0.0953  0.3970  0.0809
 3946TIP3    H233330   5.279   0.588  12.075  0.2481  0.7192 -0.3290
 3947TIP3   OH233331   0.822   0.128  13.879  0.1329  0.1725 -0.0071
 3947TIP3    H133332   0.809   0.223  13.870  0.3503  0.3225  1.1585
 3947TIP3    H233333   0.842   0.116  13.972 -1.0250 -1.1553  0.0692
 3948TIP3   OH233334   6.809   4.066   3.416 -0.1924  0.0714  0.8179
 3948TIP3    H133335   6.830   4.011   3.341 -1.1427 -1.2880  1.5283
 3948TIP3    H233336   6.870   4.140   3.409  0.2342 -0.4032 -0.8612
 3949TIP3   OH233337   5.390   2.771  15.723  0.3261  0.2049  0.1735
 3949TIP3    H133338   5.297   2.749  15.732  1.1703 -3.3167  0.7140
 3949TIP3    H233339   5.405   2.773  15.629  0.1543 -1.1874  0.1171
 3950TIP3   OH233340   6.118   0.676   3.932 -0.0065 -0.0089  0.8158
 3950TIP3    H133341   6.076   0.622   3.866  0.9028 -0.9455  0.9962
 3950TIP3    H233342   6.189   0.721   3.886 -0.8678  1.1871  0.6243
 3951TIP3   OH233343   6.455   6.418   4.115 -0.2838  0.1376  0.0761
 3951TIP3    H133344   6.412   6.337   4.143 -0.1106  0.8385  2.4817
 3951TIP3    H233345   6.520   6.390   4.051 -1.9588 -1.3250 -1.0262
 3952TIP3   OH233346   4.051   0.780  12.247 -0.6281  0.1222  0.5669
 3952TIP3    H133347   4.060   0.772  12.152 -0.0221  0.7120  0.5658
 3952TIP3    H233348   4.086   0.698  12.282 -1.0027 -0.1631  0.2715
 3953TIP3   OH233349   6.116   6.439   3.314 -0.4502  1.1128 -0.0773
 3953TIP3    H133350   6.141   6.431   3.406 -1.5877 -0.8160  0.0884
 3953TIP3    H233351   6.024   6.466   3.317 -0.9980 -0.6722 -0.6325
 3954TIP3   OH233352   1.741   4.812  13.366 -0.9052 -0.0563 -0.1217
 3954TIP3    H133353   1.787   4.843  13.443 -0.4693 -0.6235 -0.1531
 3954TIP3    H233354   1.738   4.717  13.376  0.0083 -0.2200 -1.2661
 3955TIP3   OH233355   3.568   0.855  12.433  0.0676  0.4554  0.4387
 3955TIP3    H133356   3.588   0.944  12.459  2.7159 -0.4169  1.5431
 3955TIP3    H233357   3.649   0.823  12.393 -0.9562 -1.3368 -0.2547
 3956TIP3   OH233358   5.190   0.242  10.912 -0.1057  0.4160 -0.2692
 3956TIP3    H133359   5.258   0.183  10.881  0.6944  1.7990 -1.2424
 3956TIP3    H233360   5.229   0.287  10.987 -0.0123  1.0662 -0.7026
 3957TIP3   OH233361   2.710   0.851   1.582 -0.1559  0.0901 -0.4864
 3957TIP3    H133362   2.751   0.816   1.661 -0.0229 -1.3161 -1.1502
 3957TIP3    H233363   2.677   0.937   1.607 -1.0854 -0.7888  1.4005
 3958TIP3   OH233364   3.083   4.237  13.721  0.2134  0.0861  0.5241
 3958TIP3    H133365   3.099   4.278  13.636 -1.7042 -0.3652 -0.0803
 3958TIP3    H233366   3.073   4.311  13.781  1.2634  0.4159  0.2993
 3959TIP3   OH233367   3.668   5.187  17.107 -0.6338  0.1101 -0.2789
 3959TIP3    H133368   3.584   5.151  17.133 -0.6492  1.0323  0.9629
 3959TIP3    H233369   3.647   5.274  17.071 -0.2709  0.1189 -0.4729
 3960TIP3   OH233370   4.783   4.220   6.270 -0.2968  0.3351  0.2353
 3960TIP3    H133371   4.767   4.125   6.270  0.0818  0.2612 -1.0370
 3960TIP3    H233372   4.716   4.255   6.328 -1.4559 -0.5562 -0.5286
 3961TIP3   OH233373   1.856   0.221   3.121  0.5721 -0.6896  0.0341
 3961TIP3    H133374   1.860   0.258   3.033 -0.2503  2.7359  1.3847
 3961TIP3    H233375   1.764   0.200   3.134  0.6501 -0.9241  0.2072
 3962TIP3   OH233376   5.903   6.748  12.309  0.2772  0.5521 -0.0199
 3962TIP3    H133377   5.861   6.672  12.269  2.0253  0.2385 -1.2791
 3962TIP3    H233378   5.955   6.712  12.381  0.9109  0.5878 -0.4614
 3963TIP3   OH233379   0.711   1.759   0.271  0.1953  0.1945  0.1095
 3963TIP3    H133380   0.765   1.697   0.320 -1.5205 -1.2935  0.1636
 3963TIP3    H233381   0.679   1.709   0.196  1.9428  2.1415 -2.0068
 3964TIP3   OH233382   0.647   3.303  13.594 -0.5149 -1.3992  0.3374
 3964TIP3    H133383   0.670   3.212  13.614 -1.0681 -1.9841 -1.6169
 3964TIP3    H233384   0.707   3.329  13.524 -1.8849 -1.0198 -0.7185
 3965TIP3   OH233385   6.669   2.261  15.204 -0.4753  0.1967 -0.0436
 3965TIP3    H133386   6.670   2.199  15.277  0.3527  1.0655  0.6933
 3965TIP3    H233387   6.586   2.244  15.159 -0.1051 -1.6509 -0.0330
 3966TIP3   OH233388   3.278   6.539  12.492 -0.1539  0.8195 -0.1905
 3966TIP3    H133389   3.220   6.613  12.477 -0.3391  1.0655  1.6680
 3966TIP3    H233390   3.359   6.577  12.524 -0.0025  0.2704  0.0928
 3967TIP3   OH233391   5.878   1.114  17.071  0.0410 -0.1017 -0.3509
 3967TIP3    H133392   5.946   1.056  17.037  0.5075  1.3394 -1.9965
 3967TIP3    H233393   5.817   1.125  16.997 -1.6187 -0.8267  0.8840
 3968TIP3   OH233394   5.569   2.470   4.824 -0.5900 -0.6858  0.3074
 3968TIP3    H133395   5.537   2.560   4.814 -0.6525 -0.9987 -2.5701
 3968TIP3    H233396   5.663   2.475   4.807 -0.6708 -1.2333 -0.3154
 3969TIP3   OH233397   4.807   5.134  14.453  0.4464 -0.1900  0.0904
 3969TIP3    H133398   4.802   5.061  14.515  0.0674  1.5590  2.1767
 3969TIP3    H233399   4.776   5.209  14.502  1.7098  1.5848 -1.7415
 3970TIP3   OH233400   1.941   4.120   2.669  0.8429 -0.1493 -0.0382
 3970TIP3    H133401   1.939   4.170   2.588 -1.3684 -0.5189 -0.2438
 3970TIP3    H233402   1.921   4.184   2.738 -2.5344 -0.7730 -0.3563
 3971TIP3   OH233403   0.525   5.046  13.599 -0.0120  0.1612  0.5303
 3971TIP3    H133404   0.519   5.048  13.503 -0.7582 -1.6922  0.5351
 3971TIP3    H233405   0.592   4.980  13.617 -1.6972 -1.3480  1.3481
 3972TIP3   OH233406   6.788   1.865  15.719  0.2669  0.1285  0.3219
 3972TIP3    H133407   6.851   1.795  15.701 -0.2130 -0.0344 -0.7341
 3972TIP3    H233408   6.734   1.831  15.791  0.5622 -0.2454  0.3661
 3973TIP3   OH233409   4.269   5.909  16.217  0.2042  0.1482  0.1914
 3973TIP3    H133410   4.227   5.968  16.280 -0.5955 -0.3822  0.1579
 3973TIP3    H233411   4.336   5.864  16.268 -0.6210 -0.4755  0.7463
 3974TIP3   OH233412   2.162   2.278   6.134  0.2224  0.2602 -0.5568
 3974TIP3    H133413   2.068   2.262   6.133  0.0931  1.0204 -0.9024
 3974TIP3    H233414   2.189   2.259   6.224 -0.2040 -0.2592 -0.5352
 3975TIP3   OH233415   3.843   0.475  13.024  0.3999  0.7788  0.3305
 3975TIP3    H133416   3.825   0.536  13.095  0.1497  0.9343  0.1346
 3975TIP3    H233417   3.859   0.530  12.948  1.2611  0.6280  0.4026
 3976TIP3   OH233418   0.406   3.620  16.728  0.5765  0.3372 -0.8040
 3976TIP3    H133419   0.384   3.706  16.763  0.6476 -0.4342  1.1875
 3976TIP3    H233420   0.325   3.588  16.688  0.2098  0.7824 -0.4154
 3977TIP3   OH233421   3.007   6.194  14.375 -0.4715  0.2325 -0.0017
 3977TIP3    H133422   2.965   6.279  14.365 -1.3255 -0.2498 -0.5861
 3977TIP3    H233423   3.023   6.184  14.469  1.8981  2.1137 -0.1604
 3978TIP3   OH233424   6.143   2.568   2.445 -0.6233  0.2095 -0.1462
 3978TIP3    H133425   6.147   2.636   2.512 -0.9561  1.5367 -1.4576
 3978TIP3    H233426   6.068   2.591   2.391 -0.2055 -0.6974 -1.1418
 3979TIP3   OH233427   6.092   0.329   5.232  0.4612 -0.4505 -0.4715
 3979TIP3    H133428   6.055   0.375   5.307  0.9715  0.1079 -0.5598
 3979TIP3    H233429   6.105   0.397   5.165  1.7424 -0.6134 -0.3991
 3980TIP3   OH233430   2.131   6.172   4.137 -0.2485  0.4607 -0.0981
 3980TIP3    H133431   2.041   6.192   4.114  0.0574  0.5096 -1.2748
 3980TIP3    H233432   2.169   6.255   4.163 -0.3173  0.5853 -0.3931
 3981TIP3   OH233433   2.568   0.395   5.577  0.8745  0.3475 -0.1163
 3981TIP3    H133434   2.662   0.410   5.588  1.1181 -0.8847 -0.3946
 3981TIP3    H233435   2.532   0.481   5.555  1.9937  0.7512 -0.3960
 3982TIP3   OH233436   2.935   3.727   1.169 -0.1585  0.0903  0.1771
 3982TIP3    H133437   2.990   3.802   1.190 -0.6780  0.9121 -1.3431
 3982TIP3    H233438   2.921   3.683   1.253  0.9698  1.1292  0.9175
 3983TIP3   OH233439   3.460   4.552   0.853 -0.4348  0.2507 -0.0147
 3983TIP3    H133440   3.390   4.491   0.876  0.8622 -2.1502 -2.2019
 3983TIP3    H233441   3.519   4.551   0.928 -1.7507  0.8037  1.0346
 3984TIP3   OH233442   6.497   2.273  13.757 -0.1091  0.2400 -0.1483
 3984TIP3    H133443   6.538   2.307  13.677  0.9389  1.3453  0.8451
 3984TIP3    H233444   6.566   2.223  13.800 -0.4401  0.2920  0.4445
 3985TIP3   OH233445   6.400   6.590  15.990 -0.3060 -0.0523 -0.3735
 3985TIP3    H133446   6.399   6.594  15.895  0.0647 -0.4065 -0.3893
 3985TIP3    H233447   6.484   6.550  16.012  0.1159  1.0856  0.1342
 3986TIP3   OH233448   2.395   1.981  12.901  0.1307  0.1439  0.1839
 3986TIP3    H133449   2.390   2.066  12.856  0.0781  0.5735  0.9818
 3986TIP3    H233450   2.315   1.935  12.875  0.2767  0.2445 -0.4444
 3987TIP3   OH233451   1.094   4.019  14.102 -0.0394  0.2511  0.1708
 3987TIP3    H133452   1.016   4.075  14.093  0.5368  0.8697 -1.2354
 3987TIP3    H233453   1.077   3.966  14.180 -1.8373  0.4219 -0.0799
 3988TIP3   OH233454   2.870   5.915   4.467 -0.0797  0.2686 -0.3071
 3988TIP3    H133455   2.876   5.903   4.562  0.8048  2.7132 -0.0248
 3988TIP3    H233456   2.777   5.929   4.450 -0.5173 -2.1339 -0.0821
 3989TIP3   OH233457   2.839   6.054   1.634 -0.0890  0.0705 -0.5409
 3989TIP3    H133458   2.915   6.003   1.661  1.3294  2.8642  1.0561
 3989TIP3    H233459   2.866   6.095   1.551  0.0501  0.7495 -0.1713
 3990TIP3   OH233460   5.044   5.899  15.415  0.1039 -0.1716 -0.5995
 3990TIP3    H133461   5.074   5.852  15.338  0.4161 -0.8109 -0.0893
 3990TIP3    H233462   5.115   5.960  15.436  0.3058 -0.4653 -0.4238
 3991TIP3   OH233463   2.150   1.856  10.565  0.1539 -0.1675 -0.0933
 3991TIP3    H133464   2.166   1.924  10.632 -1.8888 -1.5407  1.8657
 3991TIP3    H233465   2.058   1.866  10.543  0.5098 -0.5714 -1.7988
 3992TIP3   OH233466   0.560   3.617  14.944 -0.9864 -0.1806  0.1029
 3992TIP3    H133467   0.629   3.666  14.900  0.4538 -0.4244  2.0138
 3992TIP3    H233468   0.494   3.602  14.877  0.3763  0.9226 -1.5093
 3993TIP3   OH233469   1.591   5.895   5.712 -0.1890  0.4091 -0.2002
 3993TIP3    H133470   1.528   5.964   5.691 -0.7052 -0.2411 -0.8028
 3993TIP3    H233471   1.613   5.910   5.804 -1.0647  0.7643 -0.0442
 3994TIP3   OH233472   3.811   0.217  14.791  0.0268 -0.3496 -0.0808
 3994TIP3    H133473   3.887   0.225  14.848 -0.3388 -0.4179  0.4126
 3994TIP3    H233474   3.835   0.149  14.728  0.8568  0.4924 -0.6876
 3995TIP3   OH233475   2.768   2.005  14.062  0.4243 -0.3723 -0.0157
 3995TIP3    H133476   2.717   2.034  14.138  1.0893  2.6907 -0.6458
 3995TIP3    H233477   2.716   1.936  14.022 -1.1813 -0.2240  1.7487
 3996TIP3   OH233478   1.059   6.228  14.547  0.2574  0.3840  0.2554
 3996TIP3    H133479   1.092   6.192  14.630  1.9456  1.5100  0.0860
 3996TIP3    H233480   0.965   6.207  14.548  0.7048 -1.7407  1.3297
 3997TIP3   OH233481   4.702   0.055   1.944  0.4594 -0.4293 -0.0059
 3997TIP3    H133482   4.665   0.135   1.908 -1.6730  0.1038  3.1609
 3997TIP3    H233483   4.789   0.081   1.976  0.1145  0.4257  0.2466
 3998TIP3   OH233484   0.149   5.274  11.354 -0.1226  0.3982 -0.3115
 3998TIP3    H133485   0.224   5.221  11.383 -0.5195 -1.1098 -1.9573
 3998TIP3    H233486   0.188   5.348  11.307  0.3538  0.0796 -0.4163
 3999TIP3   OH233487   6.288   4.649   2.660  0.0645 -0.2415  0.1316
 3999TIP3    H133488   6.216   4.596   2.693  0.0017 -1.4926 -1.9208
 3999TIP3    H233489   6.327   4.689   2.738 -0.4618 -2.5685  1.6103
 4000TIP3   OH233490   5.407   3.148  12.595 -0.5424 -0.6860 -0.6677
 4000TIP3    H133491   5.392   3.072  12.538 -0.2334 -1.8364  0.7556
 4000TIP3    H233492   5.499   3.170  12.581 -0.8567 -0.0094 -1.7405
 4001TIP3   OH233493   6.768   2.770  12.605  0.6483 -0.1633  0.4868
 4001TIP3    H133494   6.760   2.821  12.685  0.6222 -2.0863  1.7616
 4001TIP3    H233495   6.849   2.800  12.564  0.6323  0.8641  1.2213
 4002TIP3   OH233496   6.506   3.516  13.920  0.2218  0.0057 -0.0710
 4002TIP3    H133497   6.447   3.476  13.855  0.0719 -0.4381  0.3313
 4002TIP3    H233498   6.448   3.539  13.993  0.4660  0.0602  0.1036
 4003TIP3   OH233499   2.852   0.116   6.200 -0.4136 -0.7038  0.3160
 4003TIP3    H133500   2.934   0.141   6.243  0.0804 -0.3084 -0.8432
 4003TIP3    H233501   2.812   0.054   6.261  1.4803 -2.0923  0.1989
 4004TIP3   OH233502   3.443   1.298  16.505  0.2242  0.4866  0.3014
 4004TIP3    H133503   3.382   1.363  16.470  1.2903  2.0105  1.1989
 4004TIP3    H233504   3.421   1.293  16.598 -1.0046 -1.7611 -0.0727
 4005TIP3   OH233505   3.403   4.708   4.332 -0.2287  0.4316 -0.2322
 4005TIP3    H133506   3.487   4.750   4.349 -0.6104  1.9661 -2.0227
 4005TIP3    H233507   3.376   4.742   4.247 -0.9924 -2.7411 -1.3095
 4006TIP3   OH233508   3.733   4.916   3.017  0.0393 -0.5425 -0.5239
 4006TIP3    H133509   3.782   4.858   2.958 -0.2826 -1.3641  0.0087
 4006TIP3    H233510   3.680   4.857   3.069 -0.6137  0.2713 -0.2634
 4007TIP3   OH233511   6.486   2.309   4.834  0.2692  0.0190  0.4449
 4007TIP3    H133512   6.536   2.377   4.880 -0.4440  0.7860  0.0950
 4007TIP3    H233513   6.551   2.264   4.779  0.7610  0.3599  0.7476
 4008TIP3   OH233514   3.949   5.362   5.367 -0.5851  0.1822  0.3880
 4008TIP3    H133515   3.967   5.425   5.437  1.2445  0.3845 -0.2338
 4008TIP3    H233516   3.938   5.415   5.288 -1.7747 -0.1061  0.3494
 4009TIP3   OH233517   2.130   3.809   0.757  0.0454  0.0985 -0.3484
 4009TIP3    H133518   2.058   3.853   0.802  0.1680 -0.4594  0.4024
 4009TIP3    H233519   2.106   3.717   0.757  1.0274 -0.1737  0.4339
 4010TIP3   OH233520   5.689   5.906   5.668 -0.1676  0.0104 -0.6517
 4010TIP3    H133521   5.690   5.865   5.755  0.2708 -0.7495 -1.0091
 4010TIP3    H233522   5.781   5.905   5.640 -0.6915 -2.8170 -2.5268
 4011TIP3   OH233523   0.224   1.593  11.367  0.0690 -0.0969 -0.0033
 4011TIP3    H133524   0.204   1.578  11.274 -0.1674 -1.1606  0.2115
 4011TIP3    H233525   0.153   1.648  11.398  0.9984  1.6012 -0.8373
 4012TIP3   OH233526   3.590   2.533   4.963 -0.1107  0.0309  0.1922
 4012TIP3    H133527   3.565   2.591   4.891  0.2573 -1.0217 -0.7888
 4012TIP3    H233528   3.586   2.589   5.040 -3.3911  0.4553 -0.1927
 4013TIP3   OH233529   1.914   2.481   4.130 -0.8104  0.0198  0.2364
 4013TIP3    H133530   1.899   2.473   4.036  1.6443  1.9333 -0.3650
 4013TIP3    H233531   1.851   2.548   4.158 -1.6272 -0.6336  0.0103
 4014TIP3   OH233532   0.580   1.569   6.252 -0.3221 -0.2932  0.1183
 4014TIP3    H133533   0.608   1.480   6.274  1.3791  0.2997  0.4665
 4014TIP3    H233534   0.635   1.625   6.307 -1.2171  0.9799 -0.2645
 4015TIP3   OH233535   1.352   0.376   6.472 -0.7287  0.0016 -0.7222
 4015TIP3    H133536   1.290   0.433   6.427 -0.4708  1.2206  0.4681
 4015TIP3    H233537   1.359   0.299   6.414 -0.6562  1.3862 -2.6031
 4016TIP3   OH233538   5.122   2.422  13.766 -0.1104 -0.2713  0.1718
 4016TIP3    H133539   5.131   2.469  13.683 -1.2834  1.0910  0.8095
 4016TIP3    H233540   5.064   2.349  13.746 -0.9822  0.4768 -0.0301
 4017TIP3   OH233541   4.770   3.240   4.428  0.4587 -0.4482 -0.6309
 4017TIP3    H133542   4.754   3.146   4.422 -0.3599 -0.2332 -2.0684
 4017TIP3    H233543   4.698   3.274   4.481 -0.3008 -0.3888 -1.6742
 4018TIP3   OH233544   2.747   3.044  15.823  0.4226  0.4843  0.3713
 4018TIP3    H133545   2.738   2.974  15.888  1.2789  0.0972  0.0912
 4018TIP3    H233546   2.662   3.087  15.822  0.1593  0.0081  1.1936
 4019TIP3   OH233547   3.470   3.613  14.001  0.2861  0.2229 -0.2381
 4019TIP3    H133548   3.469   3.682  13.934  0.3973 -0.8810 -1.3855
 4019TIP3    H233549   3.562   3.585  14.004 -0.0429 -0.9249 -0.8622
 4020TIP3   OH233550   4.815   4.746  10.479  0.2309  0.2906 -0.2170
 4020TIP3    H133551   4.832   4.661  10.437 -0.3996 -0.2462  0.5916
 4020TIP3    H233552   4.720   4.747  10.493  0.1775  1.3301 -0.6331
 4021TIP3   OH233553   5.808   5.342  12.991  0.2563  0.1258 -0.4712
 4021TIP3    H133554   5.787   5.423  12.945  0.0144 -0.0388 -0.6504
 4021TIP3    H233555   5.864   5.370  13.064 -1.8436  0.7618  0.9424
 4022TIP3   OH233556   5.576   4.408  14.506  0.8718  0.3301 -0.2709
 4022TIP3    H133557   5.606   4.349  14.437  0.9889  0.3852 -0.2676
 4022TIP3    H233558   5.648   4.409  14.570 -0.6609 -2.5034  1.6057
 4023TIP3   OH233559   4.939   6.133   1.767 -0.0892  0.1370  0.1097
 4023TIP3    H133560   5.017   6.173   1.728 -0.1942  0.3153  0.0875
 4023TIP3    H233561   4.867   6.159   1.710 -0.2850  0.6271  0.5788
 4024TIP3   OH233562   3.207   5.888   5.149 -0.8746 -0.4597 -0.0903
 4024TIP3    H133563   3.233   5.813   5.202 -0.1881  2.1663  3.4980
 4024TIP3    H233564   3.113   5.895   5.161 -0.7263  0.1044  0.8140
 4025TIP3   OH233565   3.354   4.781  16.468  0.0118  0.2793 -0.4119
 4025TIP3    H133566   3.430   4.742  16.425 -0.2613  0.8988 -1.4828
 4025TIP3    H233567   3.389   4.856  16.515  0.1786  0.1028 -0.2536
 4026TIP3   OH233568   0.827   3.248  15.230 -0.3414  0.0644 -0.5822
 4026TIP3    H133569   0.779   3.172  15.264  0.9019 -0.9072 -0.9464
 4026TIP3    H233570   0.770   3.284  15.163 -1.4178  0.1027  0.3310
 4027TIP3   OH233571   0.386   2.443   1.609  0.2005 -0.1468  0.0798
 4027TIP3    H133572   0.471   2.488   1.612 -0.4573  1.1352 -0.0252
 4027TIP3    H233573   0.407   2.351   1.621  1.7227  0.0312 -1.1021
 4028TIP3   OH233574   0.293   4.670  12.248  0.3364  0.0449 -0.4709
 4028TIP3    H133575   0.351   4.716  12.188  0.1597  2.5616  1.2257
 4028TIP3    H233576   0.292   4.724  12.327 -3.8278 -0.2462 -0.2219
 4029TIP3   OH233577   5.446   5.604  14.782 -0.0912  0.3000  0.3459
 4029TIP3    H133578   5.408   5.683  14.744 -0.7762 -0.2382 -0.1161
 4029TIP3    H233579   5.531   5.631  14.816 -0.2928  1.2138  0.1298
 4030TIP3   OH233580   1.899   5.249   1.047 -0.2420  0.0213  0.5265
 4030TIP3    H133581   1.966   5.285   0.989 -0.4782 -1.5566 -0.7586
 4030TIP3    H233582   1.844   5.196   0.990 -0.0514 -2.1485  2.3067
 4031TIP3   OH233583   3.110   6.008  12.207  0.3288 -0.2011  0.5771
 4031TIP3    H133584   3.025   6.031  12.168 -0.4819  0.6202  2.7473
 4031TIP3    H233585   3.133   5.925  12.165 -2.0703 -0.9803  0.6758
 4032TIP3   OH233586   0.316   3.264  13.607  0.1602  0.3789 -0.2167
 4032TIP3    H133587   0.396   3.212  13.609 -1.3935 -2.2182 -1.7490
 4032TIP3    H233588   0.283   3.261  13.696  0.0065 -1.4868 -0.3093
 4033TIP3   OH233589   0.688   2.804   5.598  0.2812 -0.0144 -0.1673
 4033TIP3    H133590   0.652   2.752   5.527  0.3109  2.5949 -2.1587
 4033TIP3    H233591   0.715   2.886   5.557  3.6530  0.1780  2.1856
 4034TIP3   OH233592   6.752   6.728   3.386 -0.2972  0.4631 -0.7647
 4034TIP3    H133593   6.739   6.721   3.291 -1.0035 -0.5741 -0.6004
 4034TIP3    H233594   6.687   6.668   3.424  2.1922 -1.6671  0.2548
 4035TIP3   OH233595   5.992   2.168  12.360  0.3850  0.4540 -0.0254
 4035TIP3    H133596   5.900   2.193  12.353  0.5999  1.6433  1.0561
 4035TIP3    H233597   5.997   2.116  12.441  0.4560 -0.6249 -0.7183
 4036TIP3   OH233598   3.475   5.634   0.270  0.0499 -0.2269 -0.2113
 4036TIP3    H133599   3.488   5.575   0.196  0.1788  1.0420 -1.2140
 4036TIP3    H233600   3.526   5.712   0.248 -0.6488  0.5228  0.7929
 4037TIP3   OH233601   3.700   5.995   4.058  0.0743 -0.4534 -0.0092
 4037TIP3    H133602   3.632   5.984   4.124  0.3245 -1.3538  0.0996
 4037TIP3    H233603   3.652   6.011   3.977 -0.2363  4.3742  0.9464
 4038TIP3   OH233604   5.151   2.669  15.731 -0.2350  0.2118  0.2239
 4038TIP3    H133605   5.142   2.587  15.681  0.3321 -0.8352  1.8209
 4038TIP3    H233606   5.063   2.687  15.763 -0.4294  0.4246 -0.4157
 4039TIP3   OH233607   2.642   4.976  14.209  0.0932  0.1929  0.0224
 4039TIP3    H133608   2.566   5.014  14.164  1.0824  2.6096  0.3241
 4039TIP3    H233609   2.663   5.039  14.278  1.5934 -1.1009  0.7830
 4040TIP3   OH233610   2.741   1.154  12.240 -0.2762  0.1966  0.1702
 4040TIP3    H133611   2.666   1.196  12.198  0.0722  1.1054  0.4702
 4040TIP3    H233612   2.793   1.226  12.275  1.0396 -0.3912 -0.5297
 4041TIP3   OH233613   2.715   1.715   1.251  0.4041 -0.3754  0.0003
 4041TIP3    H133614   2.795   1.751   1.214  0.4991  0.3388  0.8736
 4041TIP3    H233615   2.696   1.772   1.326 -0.8423 -0.6129 -0.1258
 4042TIP3   OH233616   3.915   2.688   6.239 -0.2205 -0.0781 -0.5613
 4042TIP3    H133617   3.979   2.759   6.249 -0.7767  0.2399  1.0457
 4042TIP3    H233618   3.833   2.733   6.219  0.2462 -0.5501 -3.6749
 4043TIP3   OH233619   6.484   5.568   2.198 -0.0190  0.7047  0.3575
 4043TIP3    H133620   6.445   5.532   2.118  0.8922 -0.8864  0.6123
 4043TIP3    H233621   6.409   5.591   2.253 -0.6298  0.5608 -0.4106
 4044TIP3   OH233622   4.044   6.194  13.805 -0.5310 -0.5973  0.3105
 4044TIP3    H133623   4.081   6.107  13.794 -0.0787 -0.2100 -1.3574
 4044TIP3    H233624   4.108   6.253  13.764 -0.9639  0.4933  1.1614
 4045TIP3   OH233625   3.095   0.963  13.289  0.2747 -0.0931  0.3268
 4045TIP3    H133626   3.012   0.955  13.241  0.5211 -0.4329 -0.0492
 4045TIP3    H233627   3.071   1.003  13.372 -0.4901 -1.6389  0.8585
 4046TIP3   OH233628   5.846   6.644   1.178  0.3605  0.1892 -0.2826
 4046TIP3    H133629   5.924   6.630   1.232  0.5858 -0.6859 -0.8233
 4046TIP3    H233630   5.877   6.634   1.088 -0.1459  0.9875 -0.5461
 4047TIP3   OH233631   1.653   3.574   0.894 -0.2287  0.1070 -0.1837
 4047TIP3    H133632   1.581   3.595   0.954  0.5740 -3.0251  2.0189
 4047TIP3    H233633   1.645   3.480   0.880  3.5811 -0.3818  0.3642
 4048TIP3   OH233634   0.596   1.363   5.756  0.2350  0.0039  0.2965
 4048TIP3    H133635   0.505   1.336   5.767 -0.3313  0.3431 -2.9419
 4048TIP3    H233636   0.613   1.421   5.830 -2.1293 -0.1733  1.0223
 4049TIP3   OH233637   5.885   2.013   4.533 -0.1865  0.1068  0.0209
 4049TIP3    H133638   5.801   2.057   4.543  1.3558  2.8282  1.4245
 4049TIP3    H233639   5.899   1.967   4.616 -0.5373 -0.8513 -0.4376
 4050TIP3   OH233640   6.077   5.808  13.364 -0.0352 -0.4535 -0.2080
 4050TIP3    H133641   6.096   5.716  13.345  2.3318  0.3785 -2.0621
 4050TIP3    H233642   6.035   5.841  13.285  1.0921  0.5896 -0.3883
 4051TIP3   OH233643   2.925   2.369  11.463 -0.1231 -0.0888 -0.3097
 4051TIP3    H133644   2.988   2.412  11.521  0.5075  0.1146 -1.1474
 4051TIP3    H233645   2.842   2.412  11.484 -0.4521 -1.8934  2.3815
 4052TIP3   OH233646   5.249   2.726   5.440 -0.2096  0.0557  0.0837
 4052TIP3    H133647   5.190   2.701   5.368  1.3481 -0.5655 -1.0140
 4052TIP3    H233648   5.289   2.643   5.467  0.1135  0.4645  0.8480
 4053TIP3   OH233649   0.258   4.841  12.475  0.7724  0.7189  0.5951
 4053TIP3    H133650   0.209   4.919  12.503  0.0715  0.3594  0.3922
 4053TIP3    H233651   0.345   4.852  12.514  0.4563  1.2539  1.1636
 4054TIP3   OH233652   5.609   0.916  13.493 -0.0747  0.0957 -0.1711
 4054TIP3    H133653   5.526   0.947  13.455  0.4777 -0.9531 -2.3128
 4054TIP3    H233654   5.676   0.966  13.447  0.5300  0.6782  1.3103
 4055TIP3   OH233655   6.459   5.291  16.518 -0.9647  0.0872  0.3892
 4055TIP3    H133656   6.476   5.253  16.605 -1.7266  0.1448  0.5650
 4055TIP3    H233657   6.457   5.215  16.459  0.5553  0.1415  0.2624
 4056TIP3   OH233658   3.939   0.489   1.845 -0.2661 -0.7500  0.2808
 4056TIP3    H133659   3.858   0.477   1.895 -1.9164  3.5840 -1.1710
 4056TIP3    H233660   4.006   0.503   1.912 -1.4362 -0.5350  1.4271
 4057TIP3   OH233661   2.442   3.732   5.020  0.0648  0.0758  0.0106
 4057TIP3    H133662   2.446   3.804   5.083  0.4532 -0.2817  0.4034
 4057TIP3    H233663   2.367   3.680   5.049  0.3149 -0.1527  0.2498
 4058TIP3   OH233664   0.959   3.782  12.728  0.0600  0.1819 -0.0960
 4058TIP3    H133665   0.882   3.811  12.777  0.5676  0.1079  0.7632
 4058TIP3    H233666   0.992   3.862  12.686 -0.1846  0.3088 -0.0517
 4059TIP3   OH233667   0.945   1.309   4.310 -0.4115 -0.2359 -0.4922
 4059TIP3    H133668   0.906   1.267   4.387 -0.0241  0.0378 -0.1387
 4059TIP3    H233669   1.033   1.334   4.339  0.0128 -0.8099 -1.2685
 4060TIP3   OH233670   5.515   4.696   0.781 -0.5758 -0.1085  0.8559
 4060TIP3    H133671   5.530   4.699   0.686  0.3928 -2.5036  0.8965
 4060TIP3    H233672   5.534   4.784   0.811 -0.9575  0.7073 -1.1817
 4061TIP3   OH233673   1.781   2.541   0.486 -0.0594  0.5430  0.1414
 4061TIP3    H133674   1.857   2.486   0.465 -0.9317 -0.3283 -0.7557
 4061TIP3    H233675   1.753   2.509   0.572  0.7458  1.0485  0.5995
 4062TIP3   OH233676   6.556   1.364   5.250 -0.3181 -0.0862 -0.0833
 4062TIP3    H133677   6.635   1.312   5.241 -0.0879  0.4909 -1.5001
 4062TIP3    H233678   6.577   1.429   5.318  0.5466  0.2970 -0.7167
 4063TIP3   OH233679   3.924   2.048  15.768  0.3594 -0.3493  0.2116
 4063TIP3    H133680   3.961   2.133  15.789  0.5763  0.0963 -1.8346
 4063TIP3    H233681   3.846   2.067  15.716  0.6534 -1.3763 -0.6468
 4064TIP3   OH233682   4.256   6.423   0.519 -0.4901 -0.5672  0.9774
 4064TIP3    H133683   4.281   6.354   0.458  1.4821  0.7416  0.2733
 4064TIP3    H233684   4.161   6.432   0.507 -0.4666 -1.8243 -0.2935
 4065TIP3   OH233685   1.907   3.727  11.858 -0.3361 -0.4197 -0.4514
 4065TIP3    H133686   1.953   3.643  11.852  0.7795  0.0245  1.5284
 4065TIP3    H233687   1.853   3.719  11.937  0.6922  1.1533  0.4263
 4066TIP3   OH233688   2.630   3.933  12.167 -0.0122 -0.1879 -0.9874
 4066TIP3    H133689   2.621   4.009  12.110 -1.6017 -0.7108 -1.4639
 4066TIP3    H233690   2.723   3.913  12.166  0.5663  2.2570 -0.1845
 4067TIP3   OH233691   5.533   4.226  15.106 -0.3211 -0.4291  0.0838
 4067TIP3    H133692   5.512   4.133  15.092 -1.1156 -0.5025  1.6669
 4067TIP3    H233693   5.451   4.264  15.139  0.4637  0.5014  0.9741
 4068TIP3   OH233694   2.704   0.489   1.822 -0.1415  0.0108 -0.1326
 4068TIP3    H133695   2.733   0.484   1.914 -0.9775 -0.6748  0.0986
 4068TIP3    H233696   2.611   0.468   1.825  0.1487 -1.5330 -1.3303
 4069TIP3   OH233697   2.692   6.666  15.390 -0.2761  0.3270 -0.2241
 4069TIP3    H133698   2.782   6.659  15.423 -0.7675 -0.0030  1.0869
 4069TIP3    H233699   2.655   6.739  15.438 -0.8952  0.0713 -0.3126
 4070TIP3   OH233700   4.942   0.357   5.671 -0.4057 -0.2764  0.4116
 4070TIP3    H133701   4.929   0.267   5.640  1.6861 -1.2861  2.3349
 4070TIP3    H233702   4.936   0.410   5.591  0.6137 -2.3652 -1.1179
 4071TIP3   OH233703   6.643   1.928   3.268  0.3891  1.1404  0.6812
 4071TIP3    H133704   6.701   2.003   3.256  0.0730  1.5689  1.8157
 4071TIP3    H233705   6.669   1.890   3.351  0.7794 -0.2330 -0.0584
 4072TIP3   OH233706   3.529   3.003   2.032  0.4423  0.0002 -0.0743
 4072TIP3    H133707   3.605   3.008   2.090  0.1750  3.4803  0.0853
 4072TIP3    H233708   3.464   2.954   2.081  1.8782 -1.2453  0.6108
 4073TIP3   OH233709   6.134   3.112  14.828 -0.3341  0.0060 -0.1731
 4073TIP3    H133710   6.190   3.142  14.756  0.6167 -2.5428 -0.5569
 4073TIP3    H233711   6.081   3.042  14.789 -0.6519 -0.5841  1.3090
 4074TIP3   OH233712   3.567   6.240   4.268 -0.0833  0.2875  0.1840
 4074TIP3    H133713   3.549   6.274   4.180  2.2163 -0.4865 -0.6211
 4074TIP3    H233714   3.645   6.186   4.257 -1.4889 -2.2409  2.1544
 4075TIP3   OH233715   6.163   4.705  16.693  0.4149 -0.7018 -0.6144
 4075TIP3    H133716   6.141   4.762  16.620 -0.9323 -0.3400  0.0545
 4075TIP3    H233717   6.190   4.623  16.652 -1.7531 -0.9975 -1.4850
 4076TIP3   OH233718   6.693   6.614  13.972  0.2473  0.1004 -0.7180
 4076TIP3    H133719   6.667   6.663  14.050  0.4271 -0.6746 -0.1681
 4076TIP3    H233720   6.633   6.540  13.970 -0.4512  0.6832 -1.9146
 4077TIP3   OH233721   5.930   4.960  14.251 -0.1660  0.6323  0.2260
 4077TIP3    H133722   5.870   4.924  14.185  0.0686  1.5198 -0.4817
 4077TIP3    H233723   5.884   4.948  14.334 -0.6157 -0.1867 -0.1250
 4078TIP3   OH233724   6.761   3.456   1.661 -0.1739 -0.7967 -0.3915
 4078TIP3    H133725   6.790   3.473   1.571 -1.2928 -1.0327 -0.7953
 4078TIP3    H233726   6.678   3.502   1.670  0.1753 -0.3525  0.6922
 4079TIP3   OH233727   6.801   0.986  14.884 -0.0479  0.2509 -0.8562
 4079TIP3    H133728   6.866   0.918  14.864  0.7248  0.5572  0.5779
 4079TIP3    H233729   6.843   1.068  14.859  0.0288  0.4261 -0.1711
 4080TIP3   OH233730   4.778   0.163  12.604 -0.0783  0.1085  0.3425
 4080TIP3    H133731   4.686   0.177  12.580  0.0889  1.5786  0.5492
 4080TIP3    H233732   4.779   0.164  12.699 -0.0717 -1.4917  0.3840
 4081TIP3   OH233733   2.028   2.361   4.663  0.5408 -0.6190  0.8030
 4081TIP3    H133734   2.116   2.324   4.671  1.2882  1.0492  0.5467
 4081TIP3    H233735   2.020   2.384   4.571 -0.2225 -0.8793  0.7999
 4082TIP3   OH233736   6.434   3.464  15.728 -0.2290  0.6448 -0.0503
 4082TIP3    H133737   6.467   3.552  15.714 -0.4616  0.8960  0.9119
 4082TIP3    H233738   6.420   3.459  15.823  2.3332 -1.3160  0.2676
 4083TIP3   OH233739   4.291   0.029   5.048 -0.1305 -0.2654  0.3060
 4083TIP3    H133740   4.329   0.033   5.136  1.6707  1.8652 -0.5070
 4083TIP3    H233741   4.198   0.049   5.061 -0.4223 -2.5720  2.0008
 4084TIP3   OH233742   0.965   0.440  12.217  0.0629  0.4451 -0.1828
 4084TIP3    H133743   0.964   0.348  12.240 -1.1615  0.6679  0.7015
 4084TIP3    H233744   1.047   0.474  12.252  0.2135 -0.1573  0.0422
 4085TIP3   OH233745   1.435   3.897  15.539  0.5761  0.1158 -0.6362
 4085TIP3    H133746   1.354   3.896  15.591  1.4289  0.9234  0.7248
 4085TIP3    H233747   1.405   3.916  15.450 -0.8271 -0.4903 -0.3141
 4086TIP3   OH233748   1.578   0.199  16.732  0.0377  0.9163  0.0942
 4086TIP3    H133749   1.558   0.184  16.824 -0.4796 -0.3482 -0.2226
 4086TIP3    H233750   1.663   0.157  16.718 -0.5859 -0.2281 -0.3586
 4087TIP3   OH233751   6.605   0.745   5.109 -0.5433 -0.3585  0.1721
 4087TIP3    H133752   6.561   0.806   5.050 -1.8165 -2.6015 -1.2576
 4087TIP3    H233753   6.536   0.715   5.168  0.6268  1.5418  2.6092
 4088TIP3   OH233754   1.347   5.629   5.164 -0.4646  0.2103 -0.2730
 4088TIP3    H133755   1.440   5.633   5.140 -0.1263  0.0887  1.0248
 4088TIP3    H233756   1.346   5.592   5.252 -1.7244  0.5966 -0.1159
 4089TIP3   OH233757   4.462   4.059   4.366 -0.2313  0.0772 -0.3238
 4089TIP3    H133758   4.437   4.027   4.453  0.6011  0.6820  0.1434
 4089TIP3    H233759   4.404   4.133   4.349 -0.3216  0.0253 -0.2388
 4090TIP3   OH233760   2.676   5.299  16.600  0.1097 -0.2481  0.2019
 4090TIP3    H133761   2.704   5.292  16.691 -0.4831  0.6783  0.4570
 4090TIP3    H233762   2.583   5.274  16.602  0.3710 -1.3284 -0.3276
 4091TIP3   OH233763   6.543   4.900   6.001  0.0114 -0.1446  0.3446
 4091TIP3    H133764   6.542   4.805   6.014  0.1681 -0.1074  0.6365
 4091TIP3    H233765   6.632   4.927   6.024 -0.3033  0.1998  1.1584
 4092TIP3   OH233766   2.813   1.836  12.195 -0.0585  0.1426 -0.3511
 4092TIP3    H133767   2.782   1.763  12.248 -0.4684 -0.6428 -1.6502
 4092TIP3    H233768   2.898   1.807  12.161 -0.7627 -0.2452 -1.8470
 4093TIP3   OH233769   3.251   0.073  11.996 -0.3638  0.2668 -0.6506
 4093TIP3    H133770   3.339   0.108  11.983  0.1276 -0.9726 -0.6974
 4093TIP3    H233771   3.213   0.128  12.065  0.7669  0.2309  0.0010
 4094TIP3   OH233772   0.284   1.250  13.234 -0.1586  0.2581  0.4615
 4094TIP3    H133773   0.369   1.213  13.211 -0.2454 -0.7823  1.8051
 4094TIP3    H233774   0.230   1.175  13.257 -0.3629  1.1923  3.1432
 4095TIP3   OH233775   2.164   5.302   3.349 -0.0872  0.1102 -0.8525
 4095TIP3    H133776   2.234   5.237   3.353  0.9473  1.3152  1.6091
 4095TIP3    H233777   2.169   5.338   3.261  2.0538 -0.1853 -0.8653
 4096TIP3   OH233778   0.020   1.347   1.556 -0.2364  0.3822  0.4231
 4096TIP3    H133779  -0.039   1.405   1.604 -1.0571  1.0270 -1.3293
 4096TIP3    H233780   0.046   1.398   1.479  0.7270 -0.7930 -0.0436
 4097TIP3   OH233781   3.438   0.438  12.710 -0.1890  0.4806 -0.3007
 4097TIP3    H133782   3.531   0.433  12.686  0.1474 -0.6518  1.1519
 4097TIP3    H233783   3.438   0.429  12.805 -1.7308  1.4613 -0.1964
 4098TIP3   OH233784   1.572   3.771  13.288  1.0079  0.3442  0.2083
 4098TIP3    H133785   1.513   3.741  13.358  0.7345  0.9625  0.2464
 4098TIP3    H233786   1.533   3.853  13.258  0.9551 -0.0660 -0.8806
 4099TIP3   OH233787   3.074   6.187  16.748 -0.1528  0.3046 -0.2023
 4099TIP3    H133788   3.128   6.114  16.719 -0.5144  0.1154 -0.4080
 4099TIP3    H233789   3.104   6.261  16.695 -0.6485  0.0138 -0.8930
 4100TIP3   OH233790   4.933   5.826  13.615 -0.2043  0.3102 -0.0023
 4100TIP3    H133791   4.839   5.825  13.626 -0.3826 -0.3861 -1.4266
 4100TIP3    H233792   4.969   5.829  13.704 -1.5190 -1.8672  0.6196
 4101TIP3   OH233793   0.895   1.383  15.115 -0.5384  0.1878  0.0740
 4101TIP3    H133794   0.886   1.349  15.026 -0.7149 -0.6010  0.3941
 4101TIP3    H233795   0.917   1.307  15.168 -0.5946  0.6277  0.7366
 4102TIP3   OH233796   5.693   1.859   3.026  0.0260  0.0266 -0.3468
 4102TIP3    H133797   5.641   1.806   3.087  0.8484 -0.5664 -0.1408
 4102TIP3    H233798   5.629   1.898   2.967 -0.7697  0.4289  0.7576
 4103TIP3   OH233799   1.632   1.156  10.761 -0.3101 -0.5531  0.0829
 4103TIP3    H133800   1.653   1.235  10.810 -3.1503  0.7616 -0.7412
 4103TIP3    H233801   1.683   1.164  10.680 -1.1677  0.8513 -0.3447
 4104TIP3   OH233802   4.340   2.293   3.584 -0.2656 -0.1320  0.2057
 4104TIP3    H133803   4.361   2.365   3.524 -0.3341 -0.2940 -0.0169
 4104TIP3    H233804   4.364   2.214   3.534  0.4027 -0.2366  0.6852
 4105TIP3   OH233805   6.058   3.230  15.637 -0.1887 -0.3406 -0.2447
 4105TIP3    H133806   6.020   3.188  15.713  2.7834 -3.1700 -0.2153
 4105TIP3    H233807   6.106   3.305  15.672 -3.6980  1.9139 -0.0616
 4106TIP3   OH233808   6.054   2.814   5.981 -0.2023 -0.0810 -0.0651
 4106TIP3    H133809   6.008   2.896   5.962 -0.0470  0.3909  1.5581
 4106TIP3    H233810   5.988   2.757   6.020 -0.3241 -0.7718 -1.2380
 4107TIP3   OH233811   4.547   1.871   5.374  0.2053  0.1713  0.6231
 4107TIP3    H133812   4.565   1.779   5.358  0.7124  0.3664  0.0500
 4107TIP3    H233813   4.616   1.900   5.434  1.7600  0.8804 -1.4557
 4108TIP3   OH233814   0.712   0.692  14.620  0.1159  0.1344 -0.0585
 4108TIP3    H133815   0.802   0.709  14.591 -0.2807  0.0786 -1.3656
 4108TIP3    H233816   0.703   0.597  14.615 -0.5658  0.2546 -1.7026
 4109TIP3   OH233817   2.037   3.604  13.494 -0.5128  0.1012 -0.0707
 4109TIP3    H133818   2.132   3.609  13.509 -0.5130  0.4816 -0.1894
 4109TIP3    H233819   2.011   3.522  13.535 -0.1351  0.0091 -0.0095
 4110TIP3   OH233820   3.892   2.814   5.638 -0.1867 -0.0476 -0.0843
 4110TIP3    H133821   3.915   2.816   5.731  1.2145 -1.1100 -0.3736
 4110TIP3    H233822   3.857   2.901   5.619 -0.6636  0.1096  1.4800
 4111TIP3   OH233823   3.966   4.473  13.434 -0.2891 -0.2204  0.1304
 4111TIP3    H133824   3.999   4.547  13.382  0.1526  0.3454  1.2138
 4111TIP3    H233825   3.872   4.471  13.414 -0.2469  0.4218 -0.1662
 4112TIP3   OH233826   4.944   3.805   0.607  0.7072  0.2196  0.1741
 4112TIP3    H133827   5.018   3.772   0.657 -0.4342 -2.4609  0.1967
 4112TIP3    H233828   4.954   3.766   0.520 -0.7154 -0.3291  0.2281
 4113TIP3   OH233829   0.928   2.796   1.832  0.2546 -0.0973 -0.5243
 4113TIP3    H133830   0.978   2.870   1.865 -0.7012 -0.1882  1.1564
 4113TIP3    H233831   0.904   2.821   1.743  0.2676  1.4408 -0.0963
 4114TIP3   OH233832   2.220   5.427  12.073 -0.0305  0.1851 -0.4587
 4114TIP3    H133833   2.226   5.342  12.116 -1.4007  0.3447  0.0455
 4114TIP3    H233834   2.133   5.429  12.035 -0.0257  1.4012 -0.4102
 4115TIP3   OH233835   3.424   4.572   4.985 -0.6722  0.1066  0.2312
 4115TIP3    H133836   3.456   4.486   4.959  0.4479  0.6241 -0.1766
 4115TIP3    H233837   3.459   4.585   5.073 -1.4045 -0.1299  0.5601
 4116TIP3   OH233838   0.203   4.638   4.532  0.2368  0.0099 -0.4540
 4116TIP3    H133839   0.202   4.582   4.609  0.2412  0.3589 -0.2015
 4116TIP3    H233840   0.202   4.727   4.566  1.2329  0.1798 -0.8232
 4117TIP3   OH233841   4.837   6.672   2.737 -0.4555  0.3834  0.4349
 4117TIP3    H133842   4.777   6.597   2.741  1.1896 -0.9552  0.6025
 4117TIP3    H233843   4.845   6.702   2.828  0.3744 -0.4572  0.6454
 4118TIP3   OH233844   0.798   5.248  11.815 -0.0619 -0.6543 -0.0468
 4118TIP3    H133845   0.804   5.224  11.722  0.7685 -0.8002  0.0410
 4118TIP3    H233846   0.720   5.201  11.847 -0.8416  0.0613 -0.8653
 4119TIP3   OH233847   2.226   4.731   3.159  0.2326  0.6420 -0.1805
 4119TIP3    H133848   2.174   4.811   3.155  0.0680  0.4689 -2.2498
 4119TIP3    H233849   2.228   4.708   3.252  1.2031  3.6173  0.5815
 4120TIP3   OH233850   6.584   4.786   3.201 -0.0668 -0.1466 -0.1340
 4120TIP3    H133851   6.602   4.854   3.136  1.0595 -1.3138 -1.0687
 4120TIP3    H233852   6.657   4.792   3.263  0.3065 -0.8239 -0.5007
 4121TIP3   OH233853   3.509   4.162   2.952 -0.3969  0.4465 -0.1804
 4121TIP3    H133854   3.463   4.224   3.009 -0.5115  2.0273 -1.9240
 4121TIP3    H233855   3.575   4.122   3.009 -1.9032  0.3921  1.5858
 4122TIP3   OH233856   5.356   6.387  15.429 -0.3339  0.1901 -0.4363
 4122TIP3    H133857   5.400   6.468  15.452 -1.5242  0.8486 -0.4437
 4122TIP3    H233858   5.324   6.402  15.340 -1.9152  0.3120  0.1366
 4123TIP3   OH233859   3.841   2.635  17.127 -0.0760  0.4122  0.1310
 4123TIP3    H133860   3.936   2.641  17.120 -0.0714 -0.0001 -0.2374
 4123TIP3    H233861   3.809   2.717  17.091  0.1763  1.0635  1.3791
 4124TIP3   OH233862   0.648   5.166   4.426  0.2264 -0.3990  0.5960
 4124TIP3    H133863   0.698   5.217   4.490 -1.4748  0.2167  1.4762
 4124TIP3    H233864   0.656   5.076   4.456 -1.8108  0.0355  2.6254
 4125TIP3   OH233865   1.969   4.278  11.088 -0.0613  0.1700 -0.0138
 4125TIP3    H133866   1.962   4.221  11.012  0.8510 -0.3936  0.3216
 4125TIP3    H233867   1.928   4.229  11.159  1.6066 -0.5143  0.5075
 4126TIP3   OH233868   4.863   6.063  15.866 -0.1403 -0.5908  0.3603
 4126TIP3    H133869   4.892   6.086  15.778 -3.2685 -0.3174 -0.6725
 4126TIP3    H233870   4.818   6.142  15.897  0.2197 -0.9735  1.8990
 4127TIP3   OH233871   4.379   2.796   4.367 -0.0505 -0.3253 -0.5751
 4127TIP3    H133872   4.338   2.841   4.293 -0.1899  1.3997  0.5291
 4127TIP3    H233873   4.312   2.734   4.397 -0.3212 -0.4150 -1.3491
 4128TIP3   OH233874   0.299   4.033   3.918  0.6129 -0.7788 -0.6435
 4128TIP3    H133875   0.342   4.073   3.842 -0.4884 -0.8553 -1.3332
 4128TIP3    H233876   0.219   3.995   3.882  0.4988 -1.5706  0.4194
 4129TIP3   OH233877   3.541   0.591   5.328 -0.0267  0.6339  0.2841
 4129TIP3    H133878   3.606   0.636   5.274 -0.5193  1.3210  0.2541
 4129TIP3    H233879   3.552   0.499   5.307  1.3243  0.6804  0.6945
 4130TIP3   OH233880   0.246   1.291  13.512 -0.5421  0.2029 -0.3217
 4130TIP3    H133881   0.301   1.317  13.438 -0.1164 -0.9584 -0.4260
 4130TIP3    H233882   0.240   1.370  13.566 -1.6730  1.3421 -2.0828
 4131TIP3   OH233883   6.045   2.957   1.748  0.5093  0.2130  0.2905
 4131TIP3    H133884   6.028   3.017   1.819 -0.3437 -0.0148  0.2827
 4131TIP3    H233885   5.989   2.882   1.765 -1.4119  1.0987 -1.8116
 4132TIP3   OH233886   0.723   6.731   2.894  0.1672  0.1269  1.3723
 4132TIP3    H133887   0.712   6.636   2.902  1.0152 -0.2675 -1.6791
 4132TIP3    H233888   0.804   6.750   2.942  1.3566 -1.0877 -0.1048
 4133TIP3   OH233889   3.362   3.804  12.108  0.2258 -0.2268 -0.4101
 4133TIP3    H133890   3.449   3.800  12.146  0.1249  0.3422 -0.1089
 4133TIP3    H233891   3.375   3.840  12.020  0.2146  0.5590 -0.0926
 4134TIP3   OH233892   3.725   2.134  16.681 -0.1008  0.0464 -0.4771
 4134TIP3    H133893   3.659   2.189  16.640 -0.9648 -0.5439  0.1238
 4134TIP3    H233894   3.682   2.050  16.695  0.2270  0.2012  1.5326
 4135TIP3   OH233895   0.579   1.121   2.016  0.0137  0.0377 -0.1029
 4135TIP3    H133896   0.545   1.207   1.990 -2.1903 -0.3654  1.2531
 4135TIP3    H233897   0.546   1.061   1.949  0.2314  0.0246 -0.1977
 4136TIP3   OH233898   4.850   5.004  12.820 -0.6734  0.1378 -0.1322
 4136TIP3    H133899   4.843   5.008  12.916  0.1304  1.6818 -0.1186
 4136TIP3    H233900   4.937   4.967  12.805 -0.7285  0.0660 -0.2716
 4137TIP3   OH233901   0.470   1.984  11.979  0.3999 -0.2251 -0.1839
 4137TIP3    H133902   0.379   2.007  12.001  0.6216  1.7877 -1.2847
 4137TIP3    H233903   0.479   2.007  11.887  2.3094  0.4847  0.1653
 4138TIP3   OH233904   2.050   1.261   0.918 -0.1505  0.5181 -0.0784
 4138TIP3    H133905   2.078   1.253   1.009  1.6961 -0.3467 -0.7002
 4138TIP3    H233906   1.967   1.309   0.923 -1.7231 -2.1881  2.3043
 4139TIP3   OH233907   0.290   1.304  14.642 -0.4583  0.1083  0.8904
 4139TIP3    H133908   0.342   1.249  14.583  0.9821 -0.2899  2.4719
 4139TIP3    H233909   0.337   1.387  14.644 -0.6281  0.1929  1.3056
 4140TIP3   OH233910   5.878   0.173   0.032  0.0530  0.4333 -0.2775
 4140TIP3    H133911   5.881   0.208   0.121  0.5268  0.1484 -0.1833
 4140TIP3    H233912   5.795   0.205  -0.003 -0.4952 -0.0753  0.5277
 4141TIP3   OH233913   3.659   4.792  11.484  0.0963  0.4624  0.5480
 4141TIP3    H133914   3.611   4.847  11.546 -1.4658  0.7432 -0.8883
 4141TIP3    H233915   3.605   4.792  11.405  1.7396 -0.4200 -0.5978
 4142TIP3   OH233916   0.784   1.038   2.219 -0.2883 -0.3171  0.5098
 4142TIP3    H133917   0.732   1.066   2.143 -0.0931  1.6571  1.0850
 4142TIP3    H233918   0.870   1.078   2.205  0.2648 -1.3337  0.9413
 4143TIP3   OH233919   0.276   3.451   4.807 -0.3645  0.0538 -0.0461
 4143TIP3    H133920   0.264   3.500   4.889  1.8386 -0.3690  0.5425
 4143TIP3    H233921   0.224   3.372   4.819  1.6898 -1.0615  1.8698
 4144TIP3   OH233922   3.398   0.772   5.491  0.5010  0.0067  0.6503
 4144TIP3    H133923   3.431   0.709   5.428 -3.0238 -1.7896  0.4723
 4144TIP3    H233924   3.308   0.790   5.462  0.0919  2.0355  2.9869
 4145TIP3   OH233925   0.951   3.326  13.942  0.1488 -0.3732 -0.2894
 4145TIP3    H133926   0.860   3.304  13.921  0.0370 -0.7712  0.5901
 4145TIP3    H233927   0.977   3.387  13.874 -1.8035  2.2218  1.1779
 4146TIP3   OH233928   2.753   3.833   0.052  0.0891  0.8071  0.2184
 4146TIP3    H133929   2.659   3.848   0.067  0.0296 -0.5643  1.2655
 4146TIP3    H233930   2.791   3.829   0.140  0.8770 -0.2093 -0.1594
 4147TIP3   OH233931   5.606   5.787   3.035 -0.1478  0.1663  0.0601
 4147TIP3    H133932   5.664   5.736   2.979 -1.0119 -1.3758  0.5404
 4147TIP3    H233933   5.530   5.805   2.979 -0.4286 -0.2355  0.3088
 4148TIP3   OH233934   6.419   2.920   2.876 -0.5481 -0.1440 -0.4661
 4148TIP3    H133935   6.353   2.982   2.845  0.2379  0.7422 -0.3961
 4148TIP3    H233936   6.502   2.965   2.862  0.1787 -1.9204 -2.1640
 4149TIP3   OH233937   4.646   1.078   6.064  0.7291 -0.3577  0.6680
 4149TIP3    H133938   4.570   1.116   6.020  1.4933  1.0972  0.5991
 4149TIP3    H233939   4.630   1.093   6.157  0.7956 -0.2966  0.6699
 4150TIP3   OH233940   1.384   6.541  15.681  0.7332 -0.3610  0.2004
 4150TIP3    H133941   1.328   6.580  15.748 -1.5291 -0.3631 -1.6251
 4150TIP3    H233942   1.465   6.591  15.687 -0.3677  1.4079  1.1769
 4151TIP3   OH233943   2.536   5.450  11.688  0.1241  0.4394  0.2626
 4151TIP3    H133944   2.499   5.407  11.765  0.2063 -0.9104 -0.4465
 4151TIP3    H233945   2.473   5.432  11.618  0.7029  0.5654 -0.2921
 4152TIP3   OH233946   6.531   3.294   0.822 -0.3635 -0.1658  0.4722
 4152TIP3    H133947   6.439   3.321   0.828 -0.1813  0.6899 -0.5170
 4152TIP3    H233948   6.529   3.200   0.839 -1.2845  0.0478  1.6180
 4153TIP3   OH233949   3.462   5.379   0.180  0.3245  0.1335 -0.2684
 4153TIP3    H133950   3.509   5.358   0.260  0.8770  0.8426 -0.4024
 4153TIP3    H233951   3.448   5.294   0.137 -0.0197 -0.2497  0.5975
 4154TIP3   OH233952   1.139   6.385   4.672 -0.2820  0.2185  0.5091
 4154TIP3    H133953   1.074   6.396   4.742  1.6592  0.0719  2.3651
 4154TIP3    H233954   1.149   6.473   4.636  0.8711  0.8758  2.3875
 4155TIP3   OH233955   5.328   3.473  16.474  0.1593 -0.2714 -0.6654
 4155TIP3    H133956   5.407   3.421  16.490  0.9186  0.8318 -0.7012
 4155TIP3    H233957   5.289   3.435  16.396  0.2973 -1.2495 -0.2572
 4156TIP3   OH233958   5.340   6.093   0.289 -0.0368  0.1339 -0.2259
 4156TIP3    H133959   5.318   6.046   0.369 -0.2123  1.7252  0.6948
 4156TIP3    H233960   5.402   6.036   0.244 -0.8690 -1.3218  0.4597
 4157TIP3   OH233961   4.760   0.365   6.176  0.2064  0.0953 -0.0806
 4157TIP3    H133962   4.692   0.398   6.234 -1.0160 -0.4127 -1.1837
 4157TIP3    H233963   4.839   0.364   6.229 -0.3067  2.2007  0.7660
 4158TIP3   OH233964   1.313   2.751  12.759  0.7212 -0.2571 -0.2395
 4158TIP3    H133965   1.299   2.846  12.759  1.9215 -0.0244  2.5227
 4158TIP3    H233966   1.225   2.714  12.758  0.2476  0.8317 -2.7301
 4159TIP3   OH233967   6.034   4.320   0.501 -0.4365  0.4490 -0.7522
 4159TIP3    H133968   6.051   4.402   0.549  1.3073 -0.8548  0.9580
 4159TIP3    H233969   6.118   4.299   0.460 -1.1423  0.0289 -1.9813
 4160TIP3   OH233970   5.592   4.348  12.203 -0.0448 -0.3329  0.1641
 4160TIP3    H133971   5.505   4.361  12.166  0.0901 -0.5226 -0.2259
 4160TIP3    H233972   5.643   4.423  12.172 -0.0577 -0.2450  0.3559
 4161TIP3   OH233973   6.200   4.361   6.458  0.0828  0.1706 -0.1220
 4161TIP3    H133974   6.245   4.284   6.491  1.8103  0.4812 -1.6420
 4161TIP3    H233975   6.242   4.435   6.502  1.2098  0.4738 -1.6510
 4162TIP3   OH233976   1.871   0.706  14.470 -0.0526 -0.1177 -0.3929
 4162TIP3    H133977   1.870   0.698  14.375  1.1923  2.1547 -0.6342
 4162TIP3    H233978   1.864   0.617  14.502 -3.2192 -0.7356 -2.5902
 4163TIP3   OH233979   3.867   3.669   6.422  0.1342  0.0474  0.3510
 4163TIP3    H133980   3.810   3.615   6.367 -0.3828  0.9291  0.0098
 4163TIP3    H233981   3.836   3.652   6.511  0.5628 -0.8991  0.3238
 4164TIP3   OH233982   6.032   4.422   1.698 -0.5168  0.5293  0.0323
 4164TIP3    H133983   5.991   4.366   1.764  0.5978  1.1517  1.2908
 4164TIP3    H233984   6.088   4.362   1.648  1.2245  0.5742  1.8295
 4165TIP3   OH233985   3.801   0.221   4.811  0.0876  0.8305 -0.4257
 4165TIP3    H133986   3.794   0.311   4.777 -0.2129  1.0517  0.2187
 4165TIP3    H233987   3.737   0.172   4.760 -0.8824  1.3159  0.3072
 4166TIP3   OH233988   3.476   0.388  12.966  0.0144  0.0748 -0.2029
 4166TIP3    H133989   3.513   0.329  13.031  0.1298  0.0521 -0.2874
 4166TIP3    H233990   3.520   0.472  12.983  0.0398  0.0705 -0.2462
 4167TIP3   OH233991   4.227   5.468   0.854 -0.1939  0.6366  0.2385
 4167TIP3    H133992   4.252   5.454   0.945 -0.0584 -0.3614  0.0583
 4167TIP3    H233993   4.248   5.560   0.837  0.1264  0.7289  1.1024
 4168TIP3   OH233994   4.015   3.645   0.735  0.1287 -0.0832  0.1947
 4168TIP3    H133995   3.954   3.679   0.670 -0.1055 -0.3710  0.2578
 4168TIP3    H233996   4.026   3.717   0.798 -0.4159 -0.1405  0.3664
 4169TIP3   OH233997   4.115   5.777   4.163 -0.2066 -0.2946  0.0527
 4169TIP3    H133998   4.083   5.707   4.220 -0.7368 -0.5937 -0.6010
 4169TIP3    H233999   4.088   5.750   4.076  0.9323 -0.0218 -0.3884
 4170TIP3   OH234000   3.359   5.980  14.044 -0.5838  0.1174  0.4724
 4170TIP3    H134001   3.368   6.030  13.964 -0.3820 -0.6116  0.0355
 4170TIP3    H234002   3.280   6.014  14.086 -0.9583  0.1590 -0.2742
 4171TIP3   OH234003   0.086   4.443   0.877  0.1597  0.2616 -0.1767
 4171TIP3    H134004   0.069   4.402   0.962 -2.6299 -1.0181 -1.3213
 4171TIP3    H234005   0.087   4.370   0.815  2.0326  1.2008 -1.2962
 4172TIP3   OH234006   3.566   2.220   5.695 -0.0003  0.3499 -0.0247
 4172TIP3    H134007   3.522   2.294   5.653 -0.0261  0.1259 -0.3903
 4172TIP3    H234008   3.601   2.168   5.623  2.2175  1.3472  0.3016
 4173TIP3   OH234009   4.158   2.906  11.150  0.4892 -0.0883 -0.2428
 4173TIP3    H134010   4.250   2.928  11.164 -0.1436  3.0969 -0.7313
 4173TIP3    H234011   4.152   2.884  11.057  0.7708 -0.3346 -0.2023
 4174TIP3   OH234012   2.467   5.447  15.487  0.0871  0.0541  0.4864
 4174TIP3    H134013   2.387   5.499  15.476  0.5497  0.4709 -0.9789
 4174TIP3    H234014   2.534   5.495  15.439  0.5916 -1.7262 -0.6154
 4175TIP3   OH234015   0.908   3.866  11.767  0.1720 -0.7976  0.3944
 4175TIP3    H134016   0.901   3.773  11.786 -0.4635 -0.9228 -0.4806
 4175TIP3    H234017   0.828   3.904  11.803  0.4920 -0.5577  0.8706
 4176TIP3   OH234018   1.358   6.796  13.171 -0.8159 -0.2016  0.1561
 4176TIP3    H134019   1.395   6.870  13.123 -2.2765 -0.1108 -0.8617
 4176TIP3    H234020   1.421   6.779  13.241  0.3572  0.9364 -0.6001
 4177TIP3   OH234021   0.534   6.207   6.197  0.1307  0.0822  0.1586
 4177TIP3    H134022   0.539   6.223   6.102 -0.5967  1.1237  0.2903
 4177TIP3    H234023   0.619   6.234   6.230 -0.1190  1.1033 -0.0076
 4178TIP3   OH234024   1.962   6.283  16.776 -0.0028  0.5123 -0.1616
 4178TIP3    H134025   2.055   6.268  16.758 -0.0639  0.1333 -0.1624
 4178TIP3    H234026   1.927   6.196  16.793  0.1949  0.9072  2.4381
 4179TIP3   OH234027   5.553   0.362  12.659  0.1234  0.1881  0.3014
 4179TIP3    H134028   5.559   0.337  12.752  1.6390 -0.2544  0.1008
 4179TIP3    H234029   5.583   0.284  12.612  0.4632  0.8133 -0.5228
 4180TIP3   OH234030   1.872   3.794  16.578 -0.3811 -0.4961 -0.2112
 4180TIP3    H134031   1.867   3.841  16.661  0.1010 -0.2627 -0.3167
 4180TIP3    H234032   1.963   3.803  16.550 -0.3276 -1.3197 -0.3317
 4181TIP3   OH234033   0.813   1.988  17.102  0.2388  0.3907 -0.4082
 4181TIP3    H134034   0.829   1.894  17.114  0.0444  0.4073 -0.0231
 4181TIP3    H234035   0.721   1.994  17.076  0.0658  0.5267  0.2261
 4182TIP3   OH234036   6.293   3.965  13.553  0.5780 -0.1466 -0.4328
 4182TIP3    H134037   6.251   3.930  13.632 -0.4287  2.6904  0.3425
 4182TIP3    H234038   6.228   3.953  13.484  1.3729 -2.4218 -0.8575
 4183TIP3   OH234039   4.873   6.560   6.172 -0.4954  0.1134 -0.1015
 4183TIP3    H134040   4.814   6.494   6.135  1.4411 -1.8768  0.2546
 4183TIP3    H234041   4.877   6.539   6.265  0.8876  0.1012 -0.1523
 4184TIP3   OH234042   2.370   5.391   2.797  1.0290  0.2876  0.4538
 4184TIP3    H134043   2.292   5.447   2.798  1.4710  0.9170 -0.0637
 4184TIP3    H234044   2.369   5.350   2.710  0.8251 -0.3557  0.7503
 4185TIP3   OH234045   5.044   4.888   2.016 -0.3763  0.0737  0.2878
 4185TIP3    H134046   5.013   4.954   2.079  0.7598  0.8573  0.0283
 4185TIP3    H234047   5.123   4.852   2.056 -0.9401 -1.0803  0.3855
 4186TIP3   OH234048   2.470   1.947  10.969  0.3005 -0.0704  0.9434
 4186TIP3    H134049   2.535   2.018  10.971  0.5332 -0.2717  0.6344
 4186TIP3    H234050   2.468   1.914  11.059  1.8386 -1.1475  0.5992
 4187TIP3   OH234051   4.146   4.381   4.561 -0.0132  0.1767  0.4701
 4187TIP3    H134052   4.201   4.440   4.613 -0.2125  0.8637 -0.1060
 4187TIP3    H234053   4.056   4.407   4.582 -0.1114  2.6330 -2.6693
 4188TIP3   OH234054   0.534   0.245   4.413 -0.0691 -0.0976 -0.6383
 4188TIP3    H134055   0.574   0.227   4.498 -0.3514 -0.0151 -0.4886
 4188TIP3    H234056   0.449   0.201   4.416  0.0485 -0.3517 -0.9917
 4189TIP3   OH234057   0.282   5.069   4.049 -0.2184  0.0850  0.4340
 4189TIP3    H134058   0.346   4.998   4.041 -1.7332 -1.2602 -0.0020
 4189TIP3    H234059   0.263   5.073   4.143  1.0578  0.9978  0.6612
 4190TIP3   OH234060   2.628   3.420   5.425  0.3149 -0.2693  0.1226
 4190TIP3    H134061   2.689   3.389   5.358  0.3339  3.1241 -1.4979
 4190TIP3    H234062   2.682   3.477   5.481 -0.8343  0.9092  0.0438
 4191TIP3   OH234063   3.747   5.727  11.596 -0.4194  0.4655  0.2851
 4191TIP3    H134064   3.676   5.790  11.586 -0.0787  0.6635 -0.9895
 4191TIP3    H234065   3.710   5.658  11.651 -0.9731  1.4904  1.2271
 4192TIP3   OH234066   6.160   0.466   0.317 -0.6483  0.3495  0.5584
 4192TIP3    H134067   6.228   0.417   0.363 -3.5966 -3.2362  1.3936
 4192TIP3    H234068   6.120   0.520   0.384  0.0323  0.8945  0.5242
 4193TIP3   OH234069   5.499   6.221   2.456 -0.1591 -0.6872 -0.2326
 4193TIP3    H134070   5.474   6.305   2.495 -0.5418 -0.7325 -0.3841
 4193TIP3    H234071   5.589   6.234   2.427  0.4395 -0.9330  1.4657
 4194TIP3   OH234072   0.393   5.126  11.318 -0.2957  0.2705  0.4622
 4194TIP3    H134073   0.443   5.139  11.237 -0.4596 -0.5362  0.2322
 4194TIP3    H234074   0.442   5.176  11.383 -0.3833  1.2643 -0.2100
 4195TIP3   OH234075   6.087   2.636  16.456  0.2483  0.2705 -0.2310
 4195TIP3    H134076   6.009   2.625  16.402  1.2504 -1.3629 -1.3694
 4195TIP3    H234077   6.085   2.728  16.483  0.5943  1.6396 -4.4305
 4196TIP3   OH234078   0.017   4.947   1.610 -0.0768 -0.9738 -0.2495
 4196TIP3    H134079   0.109   4.951   1.635  0.3848 -2.9705 -1.5456
 4196TIP3    H234080  -0.030   4.950   1.694  1.0308  2.0018  0.3373
 4197TIP3   OH234081   2.435   0.646   1.933 -0.5768  1.1596 -0.0212
 4197TIP3    H134082   2.471   0.713   1.875  0.7532 -0.2628 -0.8769
 4197TIP3    H234083   2.379   0.695   1.994  0.5871  3.0676 -0.4338
 4198TIP3   OH234084   2.433   0.461   3.138 -0.2824  0.2875 -0.3935
 4198TIP3    H134085   2.412   0.404   3.211  1.1405 -0.2611 -0.4048
 4198TIP3    H234086   2.382   0.426   3.065 -1.2144  0.4562  0.1672
 4199TIP3   OH234087   0.368   5.421  17.256  0.4486  0.4927  0.1055
 4199TIP3    H134088   0.312   5.456  17.326 -0.9962  0.2518 -0.9011
 4199TIP3    H234089   0.370   5.327  17.271  0.9657  0.5469  0.4036
 4200TIP3   OH234090   2.666   3.500   4.839 -0.6398  0.7253 -0.5374
 4200TIP3    H134091   2.605   3.570   4.815 -0.2195  1.7381  1.2723
 4200TIP3    H234092   2.628   3.462   4.919  0.6775  0.8451  0.1541
 4201TIP3   OH234093   0.055   3.608   4.195  0.4692  0.1533  0.6346
 4201TIP3    H134094   0.127   3.575   4.141  0.5300  2.5949 -0.8744
 4201TIP3    H234095   0.065   3.703   4.191 -3.4405  0.5710 -0.4383
 4202TIP3   OH234096   2.423   6.588   0.661  0.1092  0.0092 -0.7217
 4202TIP3    H134097   2.431   6.497   0.632  0.4066  0.0827 -0.8716
 4202TIP3    H234098   2.436   6.639   0.581  0.8628  0.2120 -0.4680
 4203TIP3   OH234099   5.646   3.925   1.637  0.6273  0.6430 -0.3481
 4203TIP3    H134100   5.609   3.883   1.559  2.2164 -0.0173 -0.7648
 4203TIP3    H234101   5.669   4.013   1.609 -0.4969  1.0340 -0.1068
 4204TIP3   OH234102   5.193   3.396   0.240 -0.1955  0.2039  0.7528
 4204TIP3    H134103   5.153   3.367   0.322  0.5415 -1.3571  0.5621
 4204TIP3    H234104   5.266   3.337   0.226 -1.7461 -1.0875 -2.2664
 4205TIP3   OH234105   5.210   0.540   2.892 -0.0559 -0.7591 -0.0084
 4205TIP3    H134106   5.228   0.620   2.943 -1.2775 -0.8289  0.5603
 4205TIP3    H234107   5.284   0.533   2.832  1.8656 -1.1535  2.3449
 4206TIP3   OH234108   0.367   6.120  12.510 -0.5978  0.6196  0.0710
 4206TIP3    H134109   0.298   6.062  12.477 -0.3025  0.3667 -0.1088
 4206TIP3    H234110   0.441   6.062  12.526  0.6116  1.2782 -2.6940
 4207TIP3   OH234111   2.210   5.030   4.206  0.4830 -0.0573 -0.2581
 4207TIP3    H134112   2.279   5.018   4.271 -0.2437  0.5847  0.6479
 4207TIP3    H234113   2.227   4.963   4.140  0.7134 -1.2876  1.0256
 4208TIP3   OH234114   2.130   0.397  12.455  0.9020 -0.5797  0.3229
 4208TIP3    H134115   2.133   0.486  12.491  1.6368 -0.4794  0.0106
 4208TIP3    H234116   2.126   0.409  12.360 -1.6519 -0.8305  0.3550
 4209TIP3   OH234117   2.432   5.999  10.764 -0.7795 -0.0393  0.1260
 4209TIP3    H134118   2.358   6.005  10.704 -2.7451  1.1240  2.5663
 4209TIP3    H234119   2.507   5.983  10.708 -2.6136  0.4964 -2.5749
 4210TIP3   OH234120   0.498   4.914  16.165  0.2190  0.3208 -0.0800
 4210TIP3    H134121   0.457   4.907  16.078  0.0455  3.1045 -0.2563
 4210TIP3    H234122   0.438   4.967  16.216  1.2658  0.3457  1.1521
 4211TIP3   OH234123   2.501   3.202  15.668 -0.4216 -0.5859 -0.3045
 4211TIP3    H134124   2.539   3.290  15.678 -1.5198  0.1235 -2.1591
 4211TIP3    H234125   2.413   3.209  15.705 -0.4499 -0.9611 -0.2963
 4212TIP3   OH234126   1.255   0.731  13.095 -0.1254  0.0454  0.0485
 4212TIP3    H134127   1.169   0.772  13.104 -0.5797 -0.8919  0.0068
 4212TIP3    H234128   1.294   0.775  13.019 -0.2275  1.0512  0.5696
 4213TIP3   OH234129   2.982   6.369   1.098  0.4542 -0.5298 -0.1622
 4213TIP3    H134130   2.908   6.317   1.129 -0.7922  0.1181 -1.9889
 4213TIP3    H234131   3.038   6.306   1.053 -0.6913 -0.4689 -1.7317
 4214TIP3   OH234132   4.542   1.421  15.648  0.4003 -0.1438  0.0090
 4214TIP3    H134133   4.575   1.509  15.634  1.0618 -0.3755  0.0917
 4214TIP3    H234134   4.450   1.433  15.672  0.1730  0.4531 -1.1231
 4215TIP3   OH234135   3.168   4.912   4.581  0.0381 -0.2097  0.0190
 4215TIP3    H134136   3.082   4.940   4.551 -0.2811 -1.4082 -0.2375
 4215TIP3    H234137   3.193   4.843   4.520  1.4670  0.5577 -0.2892
 4216TIP3   OH234138   6.284   2.183   0.802 -0.1571 -0.6225  0.3566
 4216TIP3    H134139   6.320   2.193   0.890  1.5655  2.3056 -0.5971
 4216TIP3    H234140   6.205   2.238   0.801  1.0202  1.1258 -0.4935
 4217TIP3   OH234141   5.586   2.167   3.402 -0.4060  0.0630  0.7105
 4217TIP3    H134142   5.608   2.076   3.386  0.7104  0.3948  0.2773
 4217TIP3    H234143   5.641   2.192   3.477  0.3171  0.7474 -0.0321
 4218TIP3   OH234144   3.890   0.300  14.376 -0.6969  0.1614 -0.4989
 4218TIP3    H134145   3.944   0.259  14.443 -0.9066  0.7559  0.0331
 4218TIP3    H234146   3.944   0.299  14.297 -0.5007 -0.6544 -0.3610
 4219TIP3   OH234147   6.457   1.449   4.591 -0.0275  0.1274  0.3800
 4219TIP3    H134148   6.375   1.399   4.587 -0.3023  0.6499 -0.7502
 4219TIP3    H234149   6.525   1.384   4.576 -0.2983 -0.1690  0.4143
 4220TIP3   OH234150   4.898   2.753   4.246  0.0380 -0.2110  0.4539
 4220TIP3    H134151   4.902   2.658   4.254 -0.2012 -0.3256 -0.7082
 4220TIP3    H234152   4.815   2.770   4.201 -1.3186  0.7323  3.1864
 4221TIP3   OH234153   2.394   5.482  11.209  0.3090  0.1364  0.0462
 4221TIP3    H134154   2.410   5.515  11.121  0.8826  0.5905  0.3165
 4221TIP3    H234155   2.308   5.517  11.232 -0.0194 -0.3101 -0.4796
 4222TIP3   OH234156   2.621   1.011  15.133  0.0793 -0.4326 -0.0361
 4222TIP3    H134157   2.531   0.999  15.102 -0.3091  2.4405 -0.1356
 4222TIP3    H234158   2.675   1.000  15.054 -0.2819 -0.8314 -0.2309
 4223TIP3   OH234159   2.616   5.950  11.198  0.0559  0.3661 -0.1338
 4223TIP3    H134160   2.643   5.929  11.287  1.6549  0.9089 -0.4774
 4223TIP3    H234161   2.633   6.043  11.189  1.3322  0.0244 -1.4885
 4224TIP3   OH234162   1.489   0.864  13.327  0.3993 -0.1132 -0.5048
 4224TIP3    H134163   1.438   0.878  13.247 -0.5515 -0.8663 -0.0505
 4224TIP3    H234164   1.431   0.892  13.397  1.2938  0.7008 -0.0823
 4225TIP3   OH234165   6.533   2.196  10.659  0.3107 -0.2426 -0.1656
 4225TIP3    H134166   6.547   2.199  10.565 -0.0588 -1.1886 -0.2642
 4225TIP3    H234167   6.586   2.267  10.694  1.3774 -0.6195 -0.9817
 4226TIP3   OH234168   2.713   0.133  14.166  0.9177  0.5248  0.1108
 4226TIP3    H134169   2.796   0.149  14.211 -0.0177  0.4359  1.9207
 4226TIP3    H234170   2.696   0.040  14.180  0.7468  0.4352 -0.6764
 4227TIP3   OH234171   1.918   0.238   6.366 -0.1793 -0.2811  0.0092
 4227TIP3    H134172   1.989   0.174   6.358  0.3206  0.4410 -1.7944
 4227TIP3    H234173   1.923   0.288   6.284  0.6650  3.3159  2.1316
 4228TIP3   OH234174   4.510   6.222  14.052  0.3318 -0.6579 -0.3800
 4228TIP3    H134175   4.543   6.140  14.090  1.1834  0.1247  0.5995
 4228TIP3    H234176   4.564   6.290  14.091 -2.3053  0.6601  1.0907
 4229TIP3   OH234177   5.884   2.974  14.818  0.3131  0.3640  0.0652
 4229TIP3    H134178   5.899   2.887  14.781 -1.6201  0.1863 -0.3232
 4229TIP3    H234179   5.924   2.970  14.905  0.8926 -0.6602 -0.2382
 4230TIP3   OH234180   6.499   5.080   6.200 -0.4665 -0.4098  0.0663
 4230TIP3    H134181   6.503   5.039   6.113 -0.6644 -0.2862  0.0001
 4230TIP3    H234182   6.406   5.081   6.222 -0.3978 -0.6444  0.3784
 4231TIP3   OH234183   5.735   6.436  15.435  0.0437  0.1575  0.5140
 4231TIP3    H134184   5.688   6.519  15.425 -1.0451 -0.5018  0.0201
 4231TIP3    H234185   5.745   6.427  15.530 -0.4498  0.5189  0.6072
 4232TIP3   OH234186   0.572   5.927   6.055 -0.1246  0.3294  0.7362
 4232TIP3    H134187   0.584   5.978   6.135  0.6688  0.5189  0.4954
 4232TIP3    H234188   0.651   5.875   6.047 -0.6578 -0.4790  0.6377
 4233TIP3   OH234189   2.205   1.187   3.165 -0.1730  0.4036  0.5601
 4233TIP3    H134190   2.240   1.228   3.086 -1.9641 -0.1829 -0.5758
 4233TIP3    H234191   2.278   1.138   3.201  1.0189  1.7020 -0.0178
 4234TIP3   OH234192   4.791   5.369  11.839 -0.2573 -0.1539  0.1913
 4234TIP3    H134193   4.713   5.386  11.892 -0.6365 -1.7076  0.1756
 4234TIP3    H234194   4.781   5.277  11.812  0.4337  0.3089 -1.7117
 4235TIP3   OH234195   0.223   6.569  12.502 -0.2662 -0.3605 -0.3366
 4235TIP3    H134196   0.227   6.613  12.417 -2.4683  0.5202 -0.0215
 4235TIP3    H234197   0.172   6.489  12.484  1.2121 -1.3405 -0.2922
 4236TIP3   OH234198   3.644   0.270  13.167 -0.6656  0.7488 -0.4099
 4236TIP3    H134199   3.613   0.208  13.233 -0.2165 -0.4079 -1.2634
 4236TIP3    H234200   3.725   0.304  13.203  0.3650 -0.9960 -0.9836
 4237TIP3   OH234201   5.136   5.719   2.222  0.0433 -0.2573  0.4233
 4237TIP3    H134202   5.097   5.805   2.239 -2.7424 -1.0736 -1.5232
 4237TIP3    H234203   5.190   5.732   2.144 -1.3949 -0.5358 -0.6337
 4238TIP3   OH234204   3.295   4.353  10.975  0.0057  0.1865  0.3158
 4238TIP3    H134205   3.205   4.322  10.968 -0.0470  0.3311  0.3415
 4238TIP3    H234206   3.349   4.274  10.971 -0.0346  0.2374 -1.3040
 4239TIP3   OH234207   2.776   2.466   5.652  1.2261 -0.3008  0.5773
 4239TIP3    H134208   2.701   2.526   5.650  0.9259 -0.4472  3.9855
 4239TIP3    H234209   2.852   2.522   5.644  0.8292  0.1883  0.2310
 4240TIP3   OH234210   3.200   4.528  11.578  0.2971  0.3062  0.3773
 4240TIP3    H134211   3.149   4.519  11.498  0.0539 -0.2861  0.5952
 4240TIP3    H234212   3.229   4.439  11.598 -1.2255  0.1421  1.9792
 4241TIP3   OH234213   5.895   4.708  15.178  0.1232  0.3106 -0.6978
 4241TIP3    H134214   5.947   4.653  15.237 -0.8440  1.4230  1.2728
 4241TIP3    H234215   5.959   4.769  15.141  0.2631  1.9446  2.0387
 4242TIP3   OH234216   4.095   4.919  13.761 -0.2962 -0.5202  0.1110
 4242TIP3    H134217   4.116   4.995  13.815 -1.8064 -0.5923  0.8047
 4242TIP3    H234218   4.035   4.952  13.695 -1.2923 -1.1859  0.6732
 4243TIP3   OH234219   0.562   5.204  13.076 -0.0430  0.0578 -0.3275
 4243TIP3    H134220   0.576   5.117  13.040  0.8801  1.2676 -2.9512
 4243TIP3    H234221   0.650   5.235  13.100 -0.4721 -0.0982  1.5636
 4244TIP3   OH234222   2.659   0.507  12.071  0.0518 -0.3938 -0.1581
 4244TIP3    H134223   2.731   0.567  12.091  0.4378 -0.9370  0.0755
 4244TIP3    H234224   2.601   0.514  12.147  0.4996 -0.9208  0.2350
 4245TIP3   OH234225   0.612   0.081  15.964  0.1841  0.6838 -0.6653
 4245TIP3    H134226   0.551   0.050  16.032  1.1452 -2.7541 -1.2990
 4245TIP3    H234227   0.699   0.068  16.002  0.7206 -0.9851 -2.3804
 4246TIP3   OH234228   1.899   5.213  15.479  0.1623 -0.2196 -0.4621
 4246TIP3    H134229   1.830   5.155  15.511  1.6906 -0.8836  1.7585
 4246TIP3    H234230   1.951   5.158  15.420  0.0570 -0.3353 -0.4463
 4247TIP3   OH234231   2.373   6.596  16.469  0.0832 -0.5710  0.1270
 4247TIP3    H134232   2.367   6.647  16.388 -3.1125  1.5664  1.6219
 4247TIP3    H234233   2.298   6.537  16.466  1.1532 -1.9859  0.5820
 4248TIP3   OH234234   2.386   5.286   3.973 -0.1251  0.0985 -0.4029
 4248TIP3    H134235   2.324   5.286   4.045 -1.4064 -0.6496 -1.4790
 4248TIP3    H234236   2.435   5.204   3.984  1.8286  1.4517  1.3781
 4249TIP3   OH234237   3.564   4.288  17.121 -0.3653  0.4316 -0.2968
 4249TIP3    H134238   3.592   4.336  17.198 -0.9371 -0.8649  0.7429
 4249TIP3    H234239   3.646   4.257  17.082 -0.1471 -0.3956  0.7877
 4250TIP3   OH234240   6.521   1.851   2.525 -0.1546 -0.6057 -0.3309
 4250TIP3    H134241   6.591   1.909   2.555 -0.5276 -0.3159 -0.0061
 4250TIP3    H234242   6.539   1.767   2.567 -0.4612 -0.3057  0.3944
 4251TIP3   OH234243   4.731   3.036  15.004 -0.6981  0.4640  0.6887
 4251TIP3    H134244   4.639   3.030  15.029 -0.5869  1.0106  1.2444
 4251TIP3    H234245   4.730   3.069  14.914 -1.0495  0.3287  0.6443
 4252TIP3   OH234246   0.917   6.703  15.886 -0.1347 -0.1739 -0.0577
 4252TIP3    H134247   0.834   6.699  15.838  1.1762 -1.2196 -2.3439
 4252TIP3    H234248   0.951   6.790  15.868 -0.9527  0.4342  1.2875
 4253TIP3   OH234249   0.814   1.657  12.764  0.0271  0.5828  0.4838
 4253TIP3    H134250   0.821   1.562  12.749 -1.0603  0.2370  2.0799
 4253TIP3    H234251   0.735   1.682  12.717 -0.1795  0.5317  0.8020
 4254TIP3   OH234252   6.648   1.742  15.937  0.0899  0.5346 -0.2711
 4254TIP3    H134253   6.712   1.702  15.996  1.3425  1.6303 -0.8844
 4254TIP3    H234254   6.609   1.813  15.988  0.5374  0.9187 -0.4679
 4255TIP3   OH234255   1.815   3.186  10.778  0.1865  0.0560 -0.1587
 4255TIP3    H134256   1.776   3.151  10.859  1.2052 -1.1014 -0.1608
 4255TIP3    H234257   1.742   3.230  10.734 -0.3386  0.8861  1.4807
 4256TIP3   OH234258   1.259   1.256  13.248  0.1058 -0.6363 -0.2774
 4256TIP3    H134259   1.317   1.219  13.315  0.2250  0.5330  0.2695
 4256TIP3    H234260   1.319   1.281  13.177  0.0914 -0.9465 -0.3990
 4257TIP3   OH234261   0.496   5.862   4.050  0.4112  0.1779  0.2707
 4257TIP3    H134262   0.581   5.818   4.044  0.7492  0.7374  0.8589
 4257TIP3    H234263   0.434   5.801   4.011  1.2771  0.2897 -1.3413
 4258TIP3   OH234264   4.746   3.210  11.233  0.1464  0.1179 -0.2007
 4258TIP3    H134265   4.694   3.280  11.272  3.6274  2.0131  1.3111
 4258TIP3    H234266   4.739   3.226  11.138  1.3450  2.9494  0.1290
 4259TIP3   OH234267   3.311   6.050  17.119 -0.2257 -0.3152  0.0858
 4259TIP3    H134268   3.331   6.110  17.191 -0.8466  0.3594 -0.2895
 4259TIP3    H234269   3.350   6.091  17.042 -1.6611  0.2120 -0.3763
 4260TIP3   OH234270   2.879   2.600   3.371  0.1946 -0.0379  0.0073
 4260TIP3    H134271   2.917   2.523   3.414  0.0951 -0.5389 -0.7837
 4260TIP3    H234272   2.788   2.602   3.401  0.2355 -0.1493  0.1394
 4261TIP3   OH234273   2.947   6.432   4.981  0.3871 -0.2316 -0.4705
 4261TIP3    H134274   2.932   6.527   4.987  2.6177  0.0234  1.8675
 4261TIP3    H234275   2.950   6.414   4.887 -0.3517  1.9537 -0.9420
 4262TIP3   OH234276   3.143   6.048  14.756 -0.4667  0.5863 -0.1984
 4262TIP3    H134277   3.201   6.107  14.708 -0.3950  1.5938  1.1173
 4262TIP3    H234278   3.111   6.099  14.830 -1.8997 -0.4250 -0.0905
 4263TIP3   OH234279   1.903   6.514  13.166 -0.2833 -0.1956 -0.9043
 4263TIP3    H134280   1.815   6.544  13.144 -0.3746  0.1542 -0.0734
 4263TIP3    H234281   1.959   6.555  13.100 -0.8401 -1.1420 -1.9854
 4264TIP3   OH234282   1.009   1.543  16.527  0.3588 -0.5274 -0.2952
 4264TIP3    H134283   0.957   1.577  16.453 -1.6395 -0.8795  0.9280
 4264TIP3    H234284   0.958   1.470  16.561  1.4625 -0.6083  1.2193
 4265TIP3   OH234285   5.284   5.617  16.029  0.3654  0.2616  0.6044
 4265TIP3    H134286   5.366   5.664  16.047  0.4693 -0.5076  2.2169
 4265TIP3    H234287   5.310   5.525  16.023 -0.2523  0.1070  0.2633
 4266TIP3   OH234288   5.289   1.552   1.573 -0.2865 -0.0274  0.0431
 4266TIP3    H134289   5.247   1.606   1.506  0.7641  2.1242  1.0740
 4266TIP3    H234290   5.218   1.530   1.634 -0.7069  0.2794 -0.3298
 4267TIP3   OH234291   3.780   0.983   1.893 -0.1719 -0.7841 -0.3485
 4267TIP3    H134292   3.727   0.904   1.897 -0.0390 -0.7977  1.4616
 4267TIP3    H234293   3.735   1.045   1.952  0.9761 -0.2852  0.0166
 4268TIP3   OH234294   0.414   5.370   0.439  0.4186 -0.4202  0.0485
 4268TIP3    H134295   0.384   5.459   0.421 -0.8012 -0.7883  0.1608
 4268TIP3    H234296   0.347   5.334   0.497  2.1948 -0.6073  2.0317
 4269TIP3   OH234297   6.649   0.262   4.494 -0.1819 -0.0230 -0.5729
 4269TIP3    H134298   6.648   0.217   4.578  0.0786  0.9960 -0.0198
 4269TIP3    H234299   6.597   0.206   4.436 -0.4832 -0.6504  0.3039
 4270TIP3   OH234300   4.150   6.414  15.045  0.1149  0.2175 -0.3010
 4270TIP3    H134301   4.208   6.490  15.040 -0.0142  0.2718 -0.9107
 4270TIP3    H234302   4.207   6.339  15.028  0.6552 -0.0072  2.2719
 4271TIP3   OH234303   5.133   4.526  11.875  0.7062 -0.4186 -0.3821
 4271TIP3    H134304   5.185   4.456  11.916  0.7537 -0.4419 -0.4820
 4271TIP3    H234305   5.147   4.514  11.781 -0.5858 -1.2823 -0.4758
 4272TIP3   OH234306   6.156   5.387   5.474 -0.5389  0.4651  0.1345
 4272TIP3    H134307   6.105   5.438   5.411 -0.6187  2.1240  1.5177
 4272TIP3    H234308   6.235   5.362   5.425 -2.0754 -1.0785 -1.6291
 4273TIP3   OH234309   2.655   5.724   1.753 -0.3155  0.2907 -0.2755
 4273TIP3    H134310   2.658   5.636   1.715 -0.0689 -0.0800  0.5705
 4273TIP3    H234311   2.684   5.711   1.844 -1.4484  1.0625  0.1985
 4274TIP3   OH234312   3.956   2.548   3.387  0.2323 -0.2893 -0.3109
 4274TIP3    H134313   4.035   2.532   3.335  0.8973 -0.5223  0.7556
 4274TIP3    H234314   3.899   2.474   3.367  0.1436  0.0566 -1.3448
 4275TIP3   OH234315   4.700   3.038  13.827  0.1654  0.1700  0.2086
 4275TIP3    H134316   4.775   3.004  13.778 -0.5604 -0.0566 -0.7431
 4275TIP3    H234317   4.688   2.976  13.899  0.4735 -0.1500 -0.0171
 4276TIP3   OH234318   6.730   4.460   3.236  0.3971  0.1060  0.3052
 4276TIP3    H134319   6.725   4.443   3.330 -0.5442  0.1288  0.2652
 4276TIP3    H234320   6.639   4.468   3.209  0.5567 -2.0454 -1.0032
 4277TIP3   OH234321   3.145   5.481   4.708  0.3467  0.4112  0.0455
 4277TIP3    H134322   3.201   5.517   4.776 -0.1323 -0.0231  0.6700
 4277TIP3    H234323   3.117   5.396   4.741 -0.8168  0.6871 -0.1795
 4278TIP3   OH234324   0.683   4.148  17.196 -0.2428  0.3068 -0.1015
 4278TIP3    H134325   0.743   4.125  17.126  0.5693  0.1146  0.6422
 4278TIP3    H234326   0.699   4.082  17.264 -2.8170 -1.0643 -0.7510
 4279TIP3   OH234327   1.759   5.750  15.502  0.5012  0.3689  0.0486
 4279TIP3    H134328   1.759   5.658  15.477  1.6917  0.4049 -0.0843
 4279TIP3    H234329   1.835   5.788  15.457  0.9200  1.0790  1.3382
 4280TIP3   OH234330   4.622   3.701  13.080 -0.3600  0.5561  0.2818
 4280TIP3    H134331   4.649   3.679  13.169 -1.5675 -1.8558  0.0918
 4280TIP3    H234332   4.618   3.797  13.079  0.6591  0.6572  2.5032
 4281TIP3   OH234333   4.943   3.306   6.307 -0.2375  0.5354  0.0453
 4281TIP3    H134334   4.918   3.384   6.356 -0.8620 -0.6689  1.7161
 4281TIP3    H234335   5.038   3.306   6.308 -0.2379  0.2506  1.7637
 4282TIP3   OH234336   0.091   5.442  16.333  0.2914 -0.2548 -0.1969
 4282TIP3    H134337   0.039   5.376  16.378 -0.2700 -0.8160 -1.6447
 4282TIP3    H234338   0.107   5.406  16.245  0.2319  1.3837 -0.9093
 4283TIP3   OH234339   1.425   6.065  14.732  0.2895 -0.2500 -0.1115
 4283TIP3    H134340   1.359   6.025  14.788 -0.9408 -0.5352 -1.7060
 4283TIP3    H234341   1.389   6.152  14.713  1.3909  0.3900  0.7109
 4284TIP3   OH234342   4.995   4.766   2.406 -0.2847 -0.4179 -0.0309
 4284TIP3    H134343   5.031   4.852   2.382 -0.5517 -0.5895 -1.0731
 4284TIP3    H234344   5.053   4.735   2.476  0.1597  0.3518 -0.0443
 4285TIP3   OH234345   0.186   0.670   1.727  0.2629 -0.2652  0.4930
 4285TIP3    H134346   0.228   0.651   1.810 -0.0532 -0.4817  0.6047
 4285TIP3    H234347   0.096   0.692   1.751  0.8790  2.4442  0.4893
 4286TIP3   OH234348   4.803   6.041  17.015 -0.3860  0.3320  0.2755
 4286TIP3    H134349   4.792   5.956  16.973 -0.4107  0.5019 -0.0604
 4286TIP3    H234350   4.715   6.065  17.044 -0.6827  1.0283 -1.1414
 4287TIP3   OH234351   5.619   1.155   4.677  0.6195  0.1770  0.0609
 4287TIP3    H134352   5.711   1.178   4.662  1.0334 -1.5796 -0.2379
 4287TIP3    H234353   5.622   1.078   4.734 -0.6352 -0.1593 -0.2984
 4288TIP3   OH234354   6.407   3.460   0.454 -0.0648 -0.6923 -0.4061
 4288TIP3    H134355   6.415   3.514   0.375  0.9973 -1.7097 -0.9928
 4288TIP3    H234356   6.473   3.496   0.514 -0.8816  0.0903  0.0465
 4289TIP3   OH234357   2.933   6.795  12.271 -0.1474  0.4256 -0.4128
 4289TIP3    H134358   2.967   6.884  12.259  0.9274  0.0865  0.0490
 4289TIP3    H234359   2.933   6.758  12.182 -0.0596  0.6962 -0.5281
 4290TIP3   OH234360   3.902   0.933   4.881 -0.2236  0.4713  0.1663
 4290TIP3    H134361   3.982   0.888   4.855  0.1715  1.3618 -0.2028
 4290TIP3    H234362   3.869   0.884   4.956  0.8362  0.2711  0.5035
 4291TIP3   OH234363   0.050   2.808  13.995  0.6282  0.3458 -0.6840
 4291TIP3    H134364   0.064   2.748  13.922 -2.0525  0.5529 -1.4477
 4291TIP3    H234365  -0.045   2.808  14.007  1.0224 -0.0521  3.1264
 4292TIP3   OH234366   4.574   2.532  13.520 -0.0135 -0.1558 -0.2739
 4292TIP3    H134367   4.618   2.559  13.439  0.4048 -0.2275 -0.0744
 4292TIP3    H234368   4.529   2.610  13.550 -0.4584 -0.2201 -0.7557
 4293TIP3   OH234369   1.204   5.311  13.544 -0.2582 -0.0112  0.2640
 4293TIP3    H134370   1.180   5.311  13.452  1.4862  0.3938 -0.2081
 4293TIP3    H234371   1.153   5.239  13.582  0.5578 -1.5302 -1.4443
 4294TIP3   OH234372   6.155   0.316  11.713 -0.1626 -0.1931  0.0212
 4294TIP3    H134373   6.110   0.326  11.629  0.8576  1.2847 -0.3744
 4294TIP3    H234374   6.102   0.253  11.762 -0.5440 -1.3790 -1.8858
 4295TIP3   OH234375   2.275   5.977  12.377  0.3688  0.4618 -0.1192
 4295TIP3    H134376   2.221   5.899  12.372  1.5398 -0.3452 -0.3003
 4295TIP3    H234377   2.296   5.986  12.470  0.9832  0.0475 -0.2184
 4296TIP3   OH234378   5.345   1.256   1.474  0.3264 -0.6331  0.1517
 4296TIP3    H134379   5.419   1.266   1.413  0.5581 -0.3968  0.4698
 4296TIP3    H234380   5.343   1.339   1.523 -1.6320  0.3603 -1.5060
 4297TIP3   OH234381   4.869   5.249  13.338  0.3473  0.6672 -0.6411
 4297TIP3    H134382   4.828   5.335  13.333 -1.4067 -0.0790  0.4851
 4297TIP3    H234383   4.958   5.267  13.370 -0.4276  1.9604  0.8791
 4298TIP3   OH234384   0.406   1.768   3.988  0.5443  0.6099 -0.8266
 4298TIP3    H134385   0.498   1.790   4.004  0.4712 -1.0606  2.3664
 4298TIP3    H234386   0.379   1.720   4.067 -3.3942  2.0217 -1.2060
 4299TIP3   OH234387   5.273   6.332  12.919 -0.1029  0.3025  0.1140
 4299TIP3    H134388   5.200   6.281  12.954 -0.4276 -0.7486 -2.0048
 4299TIP3    H234389   5.339   6.331  12.988 -0.4727 -2.2357  0.4780
 4300TIP3   OH234390   5.097   6.765  14.569 -0.6880  0.3284  0.0482
 4300TIP3    H134391   5.170   6.815  14.606 -1.1490 -0.3037  1.8773
 4300TIP3    H234392   5.053   6.827  14.511  0.4191  1.1774  0.0855
 4301TIP3   OH234393   5.395   6.490  17.037 -0.6001 -0.1550 -0.4078
 4301TIP3    H134394   5.462   6.462  16.974 -1.0815 -1.8699 -0.1868
 4301TIP3    H234395   5.313   6.455  17.002 -0.9607 -0.6085  0.8554
 4302TIP3   OH234396   4.961   0.858  15.078 -0.5428 -0.2126  0.0906
 4302TIP3    H134397   5.010   0.920  15.132 -0.2679 -0.0269 -0.3639
 4302TIP3    H234398   4.960   0.898  14.991 -0.6607 -0.6814 -0.1255
 4303TIP3   OH234399   0.470   6.445  14.149  0.3136  0.7865  0.2831
 4303TIP3    H134400   0.422   6.369  14.115 -1.1303  1.8583 -0.1189
 4303TIP3    H234401   0.402   6.502  14.186  1.1901  2.5532 -0.7285
 4304TIP3   OH234402   6.790   5.734   5.505 -0.1930 -0.1135 -0.2371
 4304TIP3    H134403   6.703   5.772   5.517  1.0432  2.9186 -0.5312
 4304TIP3    H234404   6.774   5.640   5.499 -3.3956  0.3442  0.1762
 4305TIP3   OH234405   3.831   0.519  13.554  0.3921  0.2143  0.1520
 4305TIP3    H134406   3.751   0.524  13.502  0.2832  0.6074  0.3555
 4305TIP3    H234407   3.868   0.433  13.533 -1.1688 -0.8624  1.6043
 4306TIP3   OH234408   1.833   4.211   3.623 -0.1019 -0.3793 -0.5926
 4306TIP3    H134409   1.901   4.204   3.691  0.5579  0.6700 -1.1312
 4306TIP3    H234410   1.770   4.143   3.646 -0.0932  0.2164  1.3003
 4307TIP3   OH234411   1.961   5.424   0.373  0.0541 -0.1089 -0.0369
 4307TIP3    H134412   1.875   5.403   0.408 -0.2008  0.5753 -0.2384
 4307TIP3    H234413   1.945   5.497   0.313  1.1737  2.0776  2.2343
 4308TIP3   OH234414   4.603   0.652  13.114  0.3784 -0.4475  0.4609
 4308TIP3    H134415   4.687   0.612  13.135  1.6946  0.6108 -2.5302
 4308TIP3    H234416   4.593   0.637  13.020 -1.4957  1.8034  0.2796
 4309TIP3   OH234417   1.398   0.148  15.802 -0.1861 -0.4561  0.6852
 4309TIP3    H134418   1.397   0.098  15.884 -0.8934  1.6135  1.9608
 4309TIP3    H234419   1.484   0.190  15.801 -0.0665 -0.7095  0.2114
 4310TIP3   OH234420   1.006   5.623   2.496 -1.0031 -0.1498  0.5667
 4310TIP3    H134421   1.071   5.557   2.522  0.9135  1.1099 -0.8324
 4310TIP3    H234422   0.943   5.625   2.568 -1.0704 -3.4278  0.6778
 4311TIP3   OH234423   4.637   2.929   4.940  0.0647 -0.8194 -0.1254
 4311TIP3    H134424   4.674   2.891   5.019 -0.3042 -0.9740 -0.0270
 4311TIP3    H234425   4.586   2.859   4.901 -0.4719 -0.4807 -0.0358
 4312TIP3   OH234426   3.954   2.683   4.365  0.4789  0.1599  0.3982
 4312TIP3    H134427   3.927   2.616   4.302  1.8831 -1.6285  1.6351
 4312TIP3    H234428   4.000   2.749   4.312 -0.1263 -0.3109 -0.7179
 4313TIP3   OH234429   6.515   4.268  13.138  0.5413  0.1727 -0.2161
 4313TIP3    H134430   6.486   4.352  13.103  2.3978  1.0520  0.3439
 4313TIP3    H234431   6.437   4.234  13.184 -1.2547 -0.0188 -3.2536
 4314TIP3   OH234432   0.034   0.415  14.063 -0.9669 -0.2893 -0.1762
 4314TIP3    H134433   0.108   0.472  14.080 -2.4331  1.8797 -0.9070
 4314TIP3    H234434   0.055   0.373  13.979 -0.1190 -0.4643  0.1205
 4315TIP3   OH234435   4.062   6.103   1.857  0.1451 -0.0852 -0.0823
 4315TIP3    H134436   4.096   6.190   1.836  0.1619  0.4381  1.9417
 4315TIP3    H234437   4.136   6.044   1.846  1.0947  0.6919  1.9310
 4316TIP3   OH234438   3.179   4.702  15.012 -0.7771  0.5254  0.3153
 4316TIP3    H134439   3.254   4.752  15.045  0.2558  0.9024 -2.4414
 4316TIP3    H234440   3.116   4.768  14.986  0.6508  0.5186 -3.4782
 4317TIP3   OH234441   6.585   5.646   0.640  0.1330 -0.0714 -0.3088
 4317TIP3    H134442   6.547   5.559   0.630 -1.6910  0.6760 -0.0859
 4317TIP3    H234443   6.605   5.674   0.551  1.1155 -0.8784 -0.3464
 4318TIP3   OH234444   3.541   4.302   2.503 -0.4531 -0.0902  0.0919
 4318TIP3    H134445   3.572   4.319   2.414 -0.0424 -2.7631 -0.3167
 4318TIP3    H234446   3.455   4.261   2.490 -0.4575 -0.3440  0.9366
 4319TIP3   OH234447   5.989   3.201  13.016 -0.4408 -0.4627  0.1539
 4319TIP3    H134448   6.020   3.289  12.993  0.4858 -0.7498  0.2870
 4319TIP3    H234449   6.027   3.144  12.949  2.6219 -1.3728  2.5589
 4320TIP3   OH234450   3.468   1.968  11.713  0.9336 -0.2150  0.0553
 4320TIP3    H134451   3.448   1.971  11.807  2.3981  1.8261  0.3505
 4320TIP3    H234452   3.454   2.058  11.684 -0.1829 -0.9783 -1.8674
 4321TIP3   OH234453   4.294   6.063  12.237 -0.2608  0.2983 -0.2020
 4321TIP3    H134454   4.235   5.995  12.207  0.2663 -0.8259  1.2619
 4321TIP3    H234455   4.362   6.068  12.169 -1.4727  0.8983 -1.3816
 4322TIP3   OH234456   0.066   1.213   0.220  0.5598  0.8155  0.2145
 4322TIP3    H134457   0.017   1.179   0.295  1.4714  0.1368  0.5158
 4322TIP3    H234458   0.009   1.280   0.182 -0.8814 -0.4029  0.1614
 4323TIP3   OH234459   3.308   3.262   1.766  0.2630 -0.8751  0.3352
 4323TIP3    H134460   3.259   3.196   1.817  1.9485 -2.4093  0.0216
 4323TIP3    H234461   3.393   3.266   1.809  0.8920 -0.4641 -0.9579
 4324TIP3   OH234462   3.689   1.414   1.916 -0.3462 -0.2012  0.6236
 4324TIP3    H134463   3.681   1.500   1.956 -0.1860  0.2499 -0.2902
 4324TIP3    H234464   3.613   1.407   1.858  1.4303  0.7500 -1.9030
 4325TIP3   OH234465   1.147   3.191  11.019  0.2500 -0.0438  0.1704
 4325TIP3    H134466   1.079   3.154  10.962 -0.0806  0.9973 -0.1267
 4325TIP3    H234467   1.107   3.193  11.106 -0.6066  1.8283 -0.2505
 4326TIP3   OH234468   5.219   5.656  13.885  0.0409  0.0693  0.0252
 4326TIP3    H134469   5.311   5.651  13.907  0.4705  1.7594 -1.2186
 4326TIP3    H234470   5.215   5.638  13.791 -0.6681  1.5109 -0.2539
 4327TIP3   OH234471   5.559   1.220   5.992  0.2445 -0.2796  0.2421
 4327TIP3    H134472   5.565   1.292   6.055  0.3427 -0.4997  0.4892
 4327TIP3    H234473   5.524   1.147   6.043  1.7845 -0.9060  0.4327
 4328TIP3   OH234474   3.025   3.123  13.424 -0.3629 -0.3198 -1.0686
 4328TIP3    H134475   3.035   3.187  13.495  0.4270 -0.7173 -0.8193
 4328TIP3    H234476   3.054   3.171  13.346  0.6408 -0.4997 -0.8150
 4329TIP3   OH234477   6.290   3.067  15.087 -0.7534  0.0938  1.2441
 4329TIP3    H134478   6.255   3.068  14.998  1.3688 -2.0140  0.3249
 4329TIP3    H234479   6.343   3.147  15.093  1.5810 -1.2612 -0.4963
 4330TIP3   OH234480   4.911   5.882   6.921 -0.4612 -0.1578  0.0987
 4330TIP3    H134481   4.939   5.834   6.843 -0.3648  1.0012 -0.5904
 4330TIP3    H234482   4.870   5.961   6.887  2.1099  1.7327  1.2878
 4331TIP3   OH234483   0.455   5.542  16.338  0.1121 -0.0378 -0.0216
 4331TIP3    H134484   0.464   5.548  16.243 -0.5536 -0.6773 -0.1354
 4331TIP3    H234485   0.365   5.511  16.351  0.5190 -0.9024  0.7843
 4332TIP3   OH234486   2.564   0.928   2.576  0.8108 -0.3088  0.1101
 4332TIP3    H134487   2.632   0.944   2.510 -1.9596  1.0396 -2.5200
 4332TIP3    H234488   2.530   0.841   2.554  0.3641 -0.1520  0.1800
 4333TIP3   OH234489   0.955   0.651  11.221 -0.2655  0.1795 -0.1082
 4333TIP3    H134490   0.986   0.565  11.192 -1.0592  0.3248 -1.4161
 4333TIP3    H234491   0.865   0.656  11.190 -1.4613  0.0268  3.1328
 4334TIP3   OH234492   3.392   2.181   0.717  0.5676 -0.3036 -0.3843
 4334TIP3    H134493   3.460   2.247   0.730 -0.5091  1.1446 -1.8564
 4334TIP3    H234494   3.385   2.171   0.622 -0.6234 -1.1037 -0.2284
 4335TIP3   OH234495   4.337   0.580  10.971 -0.5566  0.0390  0.3732
 4335TIP3    H134496   4.422   0.586  11.016 -0.9961 -1.7197  1.4736
 4335TIP3    H234497   4.277   0.629  11.027 -0.7067 -0.5183  0.7003
 4336TIP3   OH234498   0.734   3.889  12.822 -0.0267 -0.6443 -0.0020
 4336TIP3    H134499   0.674   3.825  12.860 -0.9187 -0.1085 -0.4987
 4336TIP3    H234500   0.747   3.954  12.891 -0.9514 -0.1355 -0.3081
 4337TIP3   OH234501   5.110   0.388  13.755  0.6633 -0.0063  0.2004
 4337TIP3    H134502   5.165   0.326  13.707 -1.1212 -2.4095  1.1559
 4337TIP3    H234503   5.067   0.439  13.687  0.3916 -1.3909 -0.7036
 4338TIP3   OH234504   2.648   1.769   0.349  0.0686 -0.5322 -0.7341
 4338TIP3    H134505   2.688   1.830   0.288  2.7684  0.1968  1.6503
 4338TIP3    H234506   2.702   1.690   0.344 -0.4748 -0.9457 -0.2653
 4339TIP3   OH234507   0.584   1.958   6.219  0.3900 -0.3465  0.4611
 4339TIP3    H134508   0.680   1.955   6.213  0.4456  0.4954  0.8429
 4339TIP3    H234509   0.567   2.004   6.301 -0.3409  0.1800  0.0181
 4340TIP3   OH234510   5.701   6.039   2.246  0.2708 -0.0504 -0.0432
 4340TIP3    H134511   5.747   5.957   2.227  1.4010  0.1693  1.6102
 4340TIP3    H234512   5.741   6.071   2.327  0.1736  2.3978 -0.9228
 4341TIP3   OH234513   5.494   3.666  15.835 -0.8237 -0.3052  0.2753
 4341TIP3    H134514   5.573   3.642  15.883 -1.7485 -3.3620  0.3444
 4341TIP3    H234515   5.424   3.657  15.900 -1.4920  0.3318 -0.3508
 4342TIP3   OH234516   4.308   6.230   5.117 -0.1828 -0.2359 -0.2985
 4342TIP3    H134517   4.291   6.321   5.094 -1.7020 -0.0717  1.4210
 4342TIP3    H234518   4.224   6.186   5.105 -0.0538 -0.9203  1.2003
 4343TIP3   OH234519   1.224   4.023   3.246 -0.2818  0.3382  1.0066
 4343TIP3    H134520   1.130   4.042   3.249  0.3311  3.7063  0.9173
 4343TIP3    H234521   1.258   4.080   3.177  1.7872 -1.0390  0.8639
 4344TIP3   OH234522   4.497   5.821   2.796  0.4855 -0.5206  0.4782
 4344TIP3    H134523   4.462   5.821   2.885  0.6738  0.0121  0.5516
 4344TIP3    H234524   4.576   5.767   2.801  0.2558 -0.8495  0.5404
 4345TIP3   OH234525   4.180   1.258  14.259  0.1309  0.2962  0.0774
 4345TIP3    H134526   4.183   1.314  14.182  0.2842  1.5521  0.9814
 4345TIP3    H234527   4.101   1.204  14.247  0.4879  0.0441 -1.2327
 4346TIP3   OH234528   0.966   5.426   3.128  0.3336  0.2556 -0.5378
 4346TIP3    H134529   0.951   5.369   3.204  0.9426 -0.2567 -0.7892
 4346TIP3    H234530   0.906   5.499   3.141 -0.7614 -0.6354 -0.4057
 4347TIP3   OH234531   4.229   5.000   2.757  0.0833 -0.7503  0.0394
 4347TIP3    H134532   4.265   5.025   2.671 -0.7036 -0.4918 -0.2169
 4347TIP3    H234533   4.162   5.065   2.775  0.8578 -0.2755  1.2755
 4348TIP3   OH234534   2.304   3.101  16.173  0.1375  0.8754 -0.1397
 4348TIP3    H134535   2.342   3.067  16.254 -1.7908  1.1104  0.9011
 4348TIP3    H234536   2.237   3.036  16.149  1.0621  0.5185 -1.8654
 4349TIP3   OH234537   0.089   1.076  12.132  0.0776  0.4080  0.5634
 4349TIP3    H134538   0.163   1.078  12.072  1.1956  1.7740  1.9637
 4349TIP3    H234539   0.027   1.140  12.096 -1.5588 -2.4511 -1.9589
 4350TIP3   OH234540   3.703   5.028  10.808 -0.8179  1.2677 -0.5556
 4350TIP3    H134541   3.785   5.068  10.835 -0.9428  1.5849 -0.6488
 4350TIP3    H234542   3.725   4.974  10.732 -0.2554 -0.4646  0.7926
 4351TIP3   OH234543   5.604   5.914   6.680 -0.3285 -0.2439  0.0538
 4351TIP3    H134544   5.530   5.860   6.707 -0.1545 -0.7258 -0.4234
 4351TIP3    H234545   5.568   6.002   6.670 -1.1606 -0.7462 -1.5764
 4352TIP3   OH234546   4.003   1.742   5.080 -0.2709  0.0245  0.0106
 4352TIP3    H134547   4.011   1.697   4.996 -2.6489 -1.3371  0.4664
 4352TIP3    H234548   4.064   1.816   5.073  1.9797 -1.8947 -1.6471
 4353TIP3   OH234549   2.045   1.364   0.129  0.1927  0.3216  0.0155
 4353TIP3    H134550   2.138   1.344   0.129  0.1124 -0.0531  0.3566
 4353TIP3    H234551   2.040   1.456   0.155  0.5093  0.5574 -0.7429
 4354TIP3   OH234552   6.475   0.367   0.111 -0.5605  0.4311  0.2018
 4354TIP3    H134553   6.404   0.307   0.137 -0.2917  0.7442  1.7273
 4354TIP3    H234554   6.480   0.430   0.183  0.9401  0.7007 -0.1220
 4355TIP3   OH234555   5.893   0.875   2.276  0.0604 -0.2635 -0.0732
 4355TIP3    H134556   5.819   0.934   2.286  0.3201  0.0574 -0.0225
 4355TIP3    H234557   5.952   0.921   2.216 -0.0026 -0.7307 -0.5010
 4356TIP3   OH234558   1.349   0.095   1.092  0.0739  0.3385 -0.0606
 4356TIP3    H134559   1.313   0.182   1.076 -0.0451  0.5947  1.5349
 4356TIP3    H234560   1.420   0.086   1.028 -0.6918  1.1220 -1.0376
 4357TIP3   OH234561   3.017   3.806  17.233 -0.1264  0.0506  1.0416
 4357TIP3    H134562   3.110   3.832  17.236  0.5064 -1.8094 -0.8688
 4357TIP3    H234563   2.989   3.806  17.324  0.8182  3.8408  1.4058
 4358TIP3   OH234564   0.712   2.774  13.780 -0.1315 -0.2451 -0.0680
 4358TIP3    H134565   0.655   2.797  13.853 -0.7649  1.9902 -1.2351
 4358TIP3    H234566   0.653   2.750  13.709  0.4494 -0.8119 -0.3713
 4359TIP3   OH234567   1.426   3.240   0.497 -0.6614  0.1846 -0.2473
 4359TIP3    H134568   1.438   3.280   0.583  1.0368 -1.6218  0.4023
 4359TIP3    H234569   1.502   3.269   0.446 -1.7695  1.4288 -1.2370
 4360TIP3   OH234570   5.959   3.737  12.291 -0.5925  0.8475  0.3330
 4360TIP3    H134571   5.889   3.721  12.228  0.9887  2.5544 -1.9441
 4360TIP3    H234572   5.998   3.651  12.307 -2.0292  0.1684  0.2013
 4361TIP3   OH234573   5.013   4.860  13.872  0.3154 -0.3275 -0.1691
 4361TIP3    H134574   4.980   4.926  13.933 -3.0452 -0.3798 -1.8421
 4361TIP3    H234575   4.958   4.784  13.888  1.6736 -1.4889 -0.9286
 4362TIP3   OH234576   0.723   1.742   6.403  0.0428 -0.1423 -0.2337
 4362TIP3    H134577   0.759   1.802   6.336  1.4145  1.9943  2.3106
 4362TIP3    H234578   0.673   1.799   6.461 -4.3580 -2.5353 -1.4724
 4363TIP3   OH234579   4.203   2.266   1.430 -0.0841 -0.0189 -0.6941
 4363TIP3    H134580   4.283   2.291   1.385  1.7756 -0.1962  2.3551
 4363TIP3    H234581   4.213   2.303   1.518 -1.7195 -3.0585  0.8507
 4364TIP3   OH234582   3.676   3.693  10.312 -0.0400 -0.3994 -0.4862
 4364TIP3    H134583   3.710   3.650  10.390  2.2699  0.4326 -1.0025
 4364TIP3    H234584   3.637   3.623  10.261 -0.8833 -1.0648  1.0288
 4365TIP3   OH234585   0.980   0.861  15.380 -0.2514 -0.2052  0.1250
 4365TIP3    H134586   1.013   0.950  15.372 -0.7569 -0.1184 -1.1273
 4365TIP3    H234587   0.887   0.868  15.358 -0.0779 -1.1962 -0.9611
 4366TIP3   OH234588   5.411   4.332   1.296 -0.3526  0.4173 -0.1625
 4366TIP3    H134589   5.335   4.390   1.302 -0.0984  0.5618  2.0065
 4366TIP3    H234590   5.375   4.244   1.305 -0.4711  0.3659 -1.0833
 4367TIP3   OH234591   3.247   0.595   2.371  0.2264 -0.3706  0.2488
 4367TIP3    H134592   3.198   0.534   2.428  1.3750 -0.9116  0.6749
 4367TIP3    H234593   3.184   0.665   2.352 -0.3213 -0.3877  1.8533
 4368TIP3   OH234594   5.995   4.637   1.852 -0.8987 -0.0487  0.3182
 4368TIP3    H134595   6.088   4.647   1.869 -0.6563 -1.7742  0.1748
 4368TIP3    H234596   5.988   4.552   1.808 -2.4264  0.5248 -0.5915
 4369TIP3   OH234597   0.445   4.404   4.628 -0.7752  0.2047 -0.2806
 4369TIP3    H134598   0.501   4.327   4.626 -1.6242 -0.4560  0.3773
 4369TIP3    H234599   0.489   4.469   4.573  1.5406  0.3423  1.6545
 4370TIP3   OH234600   5.553   3.204   2.948  0.0002  0.6074 -0.3377
 4370TIP3    H134601   5.517   3.197   2.860  0.5459  1.2955 -0.6157
 4370TIP3    H234602   5.528   3.122   2.991 -0.9361  0.6026 -0.8831
 4371TIP3   OH234603   3.994   3.034  15.301 -0.1817 -0.7224  0.1201
 4371TIP3    H134604   3.957   2.946  15.308  0.2390 -0.8438  0.8727
 4371TIP3    H234605   3.985   3.071  15.389 -1.3189  0.3815 -0.4449
 4372TIP3   OH234606   6.517   1.211  12.096 -0.0850  0.5829 -0.0210
 4372TIP3    H134607   6.505   1.167  12.180  1.9631  0.4958  0.2302
 4372TIP3    H234608   6.530   1.303  12.118  0.9760  0.4785 -0.2124
 4373TIP3   OH234609   4.037   4.580  13.874 -0.0733  0.2974  0.3583
 4373TIP3    H134610   4.029   4.676  13.870  0.0519  0.2263 -2.2091
 4373TIP3    H234611   4.061   4.554  13.785 -1.8957 -2.2855  0.5702
 4374TIP3   OH234612   3.084   1.434  12.493 -0.4126  0.1782 -0.3306
 4374TIP3    H134613   3.025   1.395  12.428 -1.9885  0.6412  0.7863
 4374TIP3    H234614   3.119   1.359  12.541 -0.4380 -0.0736 -0.6990
 4375TIP3   OH234615   5.216   2.794   4.845 -0.3409 -0.9372 -0.3631
 4375TIP3    H134616   5.248   2.774   4.933 -0.1960 -1.2922 -0.4988
 4375TIP3    H234617   5.225   2.889   4.837 -0.1071 -0.9377 -0.0936
 4376TIP3   OH234618   2.511   6.240  13.235 -0.4110  0.3413 -0.3312
 4376TIP3    H134619   2.517   6.322  13.185  1.2876  1.4638  1.6645
 4376TIP3    H234620   2.431   6.249  13.286  0.1266  1.0559  0.3919
 4377TIP3   OH234621   1.895   6.070   0.688 -0.7354 -0.3789 -0.2774
 4377TIP3    H134622   1.965   6.135   0.685 -1.5455  0.5118 -0.0522
 4377TIP3    H234623   1.818   6.119   0.718 -1.2215 -1.5530  0.4138
 4378TIP3   OH234624   3.945   1.720   1.622 -0.1069  0.2476 -0.0304
 4378TIP3    H134625   4.030   1.694   1.586  0.0062 -0.2361  0.5748
 4378TIP3    H234626   3.963   1.742   1.714 -0.5208  0.7696 -0.0705
 4379TIP3   OH234627   6.679   0.070  12.745  0.3675 -0.2788  0.4279
 4379TIP3    H134628   6.615   0.083  12.815 -0.4216 -2.2868  0.1110
 4379TIP3    H234629   6.672   0.149  12.691  1.0033  1.2930  2.6105
 4380TIP3   OH234630   5.929   0.593   1.044  0.0132 -0.5825 -0.1882
 4380TIP3    H134631   5.848   0.639   1.066  1.2735  0.7841  1.6763
 4380TIP3    H234632   5.932   0.594   0.948 -0.9577  1.4725 -0.2104
 4381TIP3   OH234633   3.381   0.276   5.378  0.6130 -0.5703  0.3902
 4381TIP3    H134634   3.446   0.305   5.442  0.2403  4.0736 -1.1089
 4381TIP3    H234635   3.299   0.274   5.427  0.6308  1.1634  0.5206
 4382TIP3   OH234636   0.486   3.188  13.187  0.0690 -0.3426  0.3583
 4382TIP3    H134637   0.417   3.121  13.179  0.2918 -0.3198 -1.8857
 4382TIP3    H234638   0.567   3.138  13.181  0.2401 -0.0591  0.3426
 4383TIP3   OH234639   5.210   2.476   5.734  0.3203 -0.1272  0.0008
 4383TIP3    H134640   5.182   2.536   5.804  1.8055  1.7362 -0.9420
 4383TIP3    H234641   5.304   2.467   5.747  0.3892 -0.8027 -0.9721
 4384TIP3   OH234642   1.176   4.995   0.175  0.0989 -0.5893  0.0445
 4384TIP3    H134643   1.205   4.967   0.262 -0.3287  1.9294  1.0300
 4384TIP3    H234644   1.255   4.990   0.121  1.1745  1.0857  1.4189
 4385TIP3   OH234645   1.689   4.523  13.353 -0.2048  0.1182  0.0150
 4385TIP3    H134646   1.685   4.533  13.258 -0.4192  0.7464  0.0871
 4385TIP3    H234647   1.778   4.493  13.370 -0.6420 -1.5702 -0.5137
 4386TIP3   OH234648   0.072   6.641  15.513 -0.6893 -0.4624  0.3408
 4386TIP3    H134649   0.129   6.590  15.570 -0.6181 -0.4187  0.3083
 4386TIP3    H234650   0.070   6.729  15.552  0.1515 -0.1598 -0.2776
 4387TIP3   OH234651   6.650   2.822  14.599 -0.1821  0.1981 -0.1034
 4387TIP3    H134652   6.584   2.759  14.568  0.7654 -1.3163  0.8692
 4387TIP3    H234653   6.634   2.901  14.547 -0.2613 -1.4130 -2.6313
 4388TIP3   OH234654   0.498   4.006  16.724 -0.0552  0.5275 -0.0634
 4388TIP3    H134655   0.403   4.010  16.717 -0.1355  1.4429  1.3484
 4388TIP3    H234656   0.514   3.948  16.798  0.4392  1.6239  0.7069
 4389TIP3   OH234657   3.338   3.088  15.442  0.3854 -0.1566  0.0535
 4389TIP3    H134658   3.345   3.067  15.535  2.2980 -1.0376 -0.2627
 4389TIP3    H234659   3.301   3.010  15.402  0.3665 -0.0958 -0.0479
 4390TIP3   OH234660   2.769   4.462  17.271  0.1626  0.0383 -0.0176
 4390TIP3    H134661   2.768   4.391  17.334 -1.9797 -2.1930 -2.4238
 4390TIP3    H234662   2.677   4.486  17.260  0.5569  0.9162 -1.6893
 4391TIP3   OH234663   3.243   6.155   2.306  0.0363 -0.4195  0.6473
 4391TIP3    H134664   3.268   6.084   2.246 -0.1660  0.7818 -0.8847
 4391TIP3    H234665   3.265   6.235   2.258 -2.1731  0.5960  1.2674
 4392TIP3   OH234666   4.614   3.084   4.728  1.0482 -0.1638 -0.5302
 4392TIP3    H134667   4.646   3.034   4.804 -1.0726  1.5135  1.5201
 4392TIP3    H234668   4.637   3.175   4.748  2.0314  0.1072 -2.7514
 4393TIP3   OH234669   0.733   0.652  16.492  0.1569 -0.1911 -0.2378
 4393TIP3    H134670   0.694   0.733  16.526  0.5600  0.0169 -0.2641
 4393TIP3    H234671   0.683   0.582  16.533 -0.1229  0.0717 -0.1285
 4394TIP3   OH234672   0.671   5.618   2.207 -0.0600  0.0703  0.0053
 4394TIP3    H134673   0.681   5.574   2.291 -0.2930  0.7628  0.3918
 4394TIP3    H234674   0.656   5.710   2.229  0.3483  0.3344 -0.8020
 4395TIP3   OH234675   5.467   0.921   1.651  0.9054 -0.4708 -0.2386
 4395TIP3    H134676   5.541   0.906   1.710  1.5235  1.2700 -0.5299
 4395TIP3    H234677   5.503   0.975   1.581 -0.4765 -0.1875 -0.7443
 4396TIP3   OH234678   0.042   4.051  13.923  0.0899 -0.1510 -0.9337
 4396TIP3    H134679  -0.021   4.123  13.915 -0.9840 -1.2055 -2.1716
 4396TIP3    H234680  -0.011   3.972  13.913  1.2640 -1.1206  0.4168
 4397TIP3   OH234681   0.820   6.102  16.130 -0.5227  0.5571 -0.2526
 4397TIP3    H134682   0.871   6.025  16.155  1.6264  2.0934  0.2414
 4397TIP3    H234683   0.739   6.094  16.180  0.1592 -0.7916  0.6818
 4398TIP3   OH234684   2.645   4.503   5.168  0.2296 -0.2295  0.8229
 4398TIP3    H134685   2.730   4.540   5.142  0.0432 -0.5047 -0.1998
 4398TIP3    H234686   2.641   4.516   5.263  1.3176 -0.0105  0.8431
 4399TIP3   OH234687   1.225   6.715   5.150  0.1240  0.2207 -0.3699
 4399TIP3    H134688   1.244   6.699   5.058  1.1224  0.4423 -0.2077
 4399TIP3    H234689   1.144   6.766   5.150  0.4020  0.6635 -1.1435
 4400TIP3   OH234690   1.464   0.697  10.879 -0.4117 -0.5330 -0.4030
 4400TIP3    H134691   1.502   0.611  10.899  0.1030 -0.8660 -2.6663
 4400TIP3    H234692   1.375   0.678  10.850 -0.6691 -0.1835  0.1373
 4401TIP3   OH234693   0.177   5.939   1.171  0.0089 -0.8536 -0.4294
 4401TIP3    H134694   0.175   5.897   1.257  0.2350  0.5313  0.2693
 4401TIP3    H234695   0.201   6.030   1.189 -2.7008  0.1674 -1.6488
 4402TIP3   OH234696   3.505   1.615   3.045 -0.1536  0.1009  0.5605
 4402TIP3    H134697   3.593   1.605   3.007 -0.5249  1.0221 -0.5610
 4402TIP3    H234698   3.459   1.535   3.021  1.1469 -1.5300  3.3030
 4403TIP3   OH234699   0.749   4.073  14.016 -0.0587 -0.0048  0.0414
 4403TIP3    H134700   0.780   4.061  13.926  1.0342  1.1746  0.2598
 4403TIP3    H234701   0.701   3.992  14.035 -1.7880  0.4331 -2.1918
 4404TIP3   OH234702   1.937   2.792  11.775  0.2572  0.2110  0.1678
 4404TIP3    H134703   1.893   2.869  11.810  0.5156 -0.6736  2.4938
 4404TIP3    H234704   2.030   2.813  11.780  0.2273  1.1268 -2.5122
 4405TIP3   OH234705   3.123   1.030  16.281  0.1076 -0.0097 -0.0773
 4405TIP3    H134706   3.097   1.122  16.293 -0.6154 -0.2331  0.0545
 4405TIP3    H234707   3.124   1.018  16.186  5.1447  1.5597 -0.4086
 4406TIP3   OH234708   6.148   5.681  12.980 -0.2424  0.6153 -0.2734
 4406TIP3    H134709   6.205   5.665  12.905 -1.2224 -0.9654 -0.7001
 4406TIP3    H234710   6.156   5.602  13.034 -0.5691  1.1781  0.6181
 4407TIP3   OH234711   5.281   0.466   5.423  0.3279  0.1195  0.6640
 4407TIP3    H134712   5.343   0.410   5.470 -0.8078 -0.6302  1.2955
 4407TIP3    H234713   5.215   0.489   5.488 -0.3073  0.5337 -0.1172
 4408TIP3   OH234714   2.672   3.383   0.119  0.5639  0.2870 -0.3602
 4408TIP3    H134715   2.711   3.436   0.050  1.9181  0.5469  0.5730
 4408TIP3    H234716   2.724   3.404   0.197  2.0165 -3.3279 -0.2435
 4409TIP3   OH234717   0.290   2.517   3.042  0.1513 -0.6501 -0.2082
 4409TIP3    H134718   0.320   2.549   3.127 -2.5758  0.2742  0.4564
 4409TIP3    H234719   0.234   2.586   3.008  0.2698 -1.5103 -2.2616
 4410TIP3   OH234720   4.158   3.510   4.029 -0.3133  0.9927 -0.5527
 4410TIP3    H134721   4.069   3.505   3.996 -0.3472 -0.7437 -0.2365
 4410TIP3    H234722   4.153   3.474   4.118 -0.0852  4.9172  1.1466
 4411TIP3   OH234723   3.831   0.598  12.429 -0.0619 -0.5541  0.6186
 4411TIP3    H134724   3.795   0.660  12.492 -0.2406  0.2535 -0.2510
 4411TIP3    H234725   3.926   0.603  12.442  0.0994  1.7400 -1.0633
 4412TIP3   OH234726   1.237   4.095  14.572  0.2740  0.0935 -0.1484
 4412TIP3    H134727   1.183   4.060  14.501  0.9120  0.6029 -0.8922
 4412TIP3    H234728   1.175   4.118  14.641 -0.1479 -2.6769  0.4450
 4413TIP3   OH234729   5.877   2.007   5.839  0.2846 -0.1547  0.8664
 4413TIP3    H134730   5.851   2.098   5.821 -0.8188 -0.8320 -1.0666
 4413TIP3    H234731   5.952   1.992   5.782  0.5523 -0.4369  1.2887
 4414TIP3   OH234732   2.220   4.153   1.174 -0.5161 -0.0657  0.1604
 4414TIP3    H134733   2.207   4.141   1.080  0.5913 -0.4300  0.0465
 4414TIP3    H234734   2.132   4.168   1.208 -0.7921  1.4130 -1.1213
 4415TIP3   OH234735   5.607   0.655  16.981 -0.8689  0.4519  0.0475
 4415TIP3    H134736   5.599   0.560  16.986  0.3447  0.3118 -0.4480
 4415TIP3    H234737   5.598   0.675  16.888 -0.6373  0.7778  0.0957
 4416TIP3   OH234738   2.394   1.357   0.845 -0.1703 -0.1050  0.7436
 4416TIP3    H134739   2.357   1.434   0.801  0.3952 -0.0888  0.2884
 4416TIP3    H234740   2.428   1.303   0.774  0.6724 -0.1186  1.1483
 4417TIP3   OH234741   1.083   2.113   1.789  0.3306 -0.1912 -0.5973
 4417TIP3    H134742   1.128   2.087   1.708  0.8423 -0.6486 -0.1648
 4417TIP3    H234743   1.148   2.102   1.858 -0.5500 -1.2485  0.0961
 4418TIP3   OH234744   5.105   5.213   4.859 -0.0088  0.1009  0.7093
 4418TIP3    H134745   5.061   5.183   4.938 -0.4560 -0.8481  0.1026
 4418TIP3    H234746   5.052   5.178   4.787  1.3444 -0.4538 -0.0249
 4419TIP3   OH234747   3.564   0.641  14.751 -0.4624 -0.3722 -0.2612
 4419TIP3    H134748   3.486   0.690  14.726 -0.9640 -0.6460  0.7395
 4419TIP3    H234749   3.580   0.581  14.678 -0.2796  0.7644 -1.1506
 4420TIP3   OH234750   3.600   6.463   6.198 -0.2888  0.2610  0.4201
 4420TIP3    H134751   3.526   6.416   6.237 -1.3305  1.7573  0.2810
 4420TIP3    H234752   3.568   6.489   6.111  2.0861 -3.2563 -1.6445
 4421TIP3   OH234753   6.668   5.993   0.302 -0.5649  0.7142 -0.0046
 4421TIP3    H134754   6.616   6.065   0.266  0.1555  0.2460 -2.0034
 4421TIP3    H234755   6.743   6.037   0.342  0.2045  1.0498 -1.7868
 4422TIP3   OH234756   4.523   3.198  13.255  0.0616 -0.6167  0.6986
 4422TIP3    H134757   4.562   3.281  13.228  1.2111 -1.8857 -1.7035
 4422TIP3    H234758   4.592   3.133  13.243 -0.9134 -2.0039  2.2342
 4423TIP3   OH234759   2.848   1.325   2.533 -0.4291 -0.1394  0.4389
 4423TIP3    H134760   2.867   1.312   2.440  2.0780  0.3092  0.8385
 4423TIP3    H234761   2.922   1.376   2.565 -1.8181  0.6661  2.4619
 4424TIP3   OH234762   0.965   6.165   5.550 -0.6058 -0.5779 -0.2143
 4424TIP3    H134763   0.921   6.081   5.535 -1.4628 -0.0388 -0.7585
 4424TIP3    H234764   0.976   6.202   5.463 -0.4982  0.0146  0.0517
 4425TIP3   OH234765   0.082   0.358   5.265 -1.0582 -0.0735  0.6270
 4425TIP3    H134766   0.131   0.314   5.335  1.1112  0.5589 -0.4636
 4425TIP3    H234767   0.006   0.302   5.251  1.2824 -3.2048 -0.2467
 4426TIP3   OH234768   2.964   3.930  12.476  0.2215 -0.4241 -0.4419
 4426TIP3    H134769   2.963   3.925  12.572  1.4085  0.7668 -0.3496
 4426TIP3    H234770   2.999   3.845  12.448  1.1167 -0.2978  0.2441
 4427TIP3   OH234771   1.262   3.334   5.747  0.0544 -0.0074 -0.1074
 4427TIP3    H134772   1.339   3.279   5.761 -0.8852 -1.3739 -0.2296
 4427TIP3    H234773   1.285   3.388   5.671  1.5707  0.8773  0.9425
 4428TIP3   OH234774   1.088   2.157  11.545  0.2233 -0.4489  0.1527
 4428TIP3    H134775   1.066   2.211  11.469 -0.4633 -0.0769  0.6087
 4428TIP3    H234776   1.175   2.188  11.572 -0.6721  1.3162  1.1606
 4429TIP3   OH234777   3.916   3.879  13.428  0.2151  0.3593  0.0976
 4429TIP3    H134778   3.973   3.894  13.352  0.1369  0.2123  0.0105
 4429TIP3    H234779   3.841   3.831  13.393  0.0962  0.4433  0.2373
 4430TIP3   OH234780   6.376   3.031   1.138 -0.7724  0.1190  0.0628
 4430TIP3    H134781   6.309   3.087   1.176  1.1005  0.4039  3.1934
 4430TIP3    H234782   6.458   3.080   1.151  0.4143 -1.5549 -0.8746
 4431TIP3   OH234783   6.707   0.603  11.742  0.0756  0.4071 -0.2723
 4431TIP3    H134784   6.686   0.576  11.831  2.8873  1.8186  0.8652
 4431TIP3    H234785   6.698   0.698  11.743  4.4370  0.9033 -0.2150
 4432TIP3   OH234786   6.219   5.365  17.197 -0.5981  0.4913  0.1789
 4432TIP3    H134787   6.266   5.343  17.116 -2.8006 -0.5107 -0.8865
 4432TIP3    H234788   6.165   5.440  17.173 -1.3864  0.0847  0.6464
 4433TIP3   OH234789   0.524   5.052  15.853  0.2892  0.2481  0.1502
 4433TIP3    H134790   0.574   5.113  15.799 -1.8795  0.3706 -1.7886
 4433TIP3    H234791   0.553   4.965  15.824 -0.9489  0.3117 -1.3390
 4434TIP3   OH234792   1.697   1.497   4.424 -0.6525  0.3605  0.4409
 4434TIP3    H134793   1.604   1.496   4.446 -0.9520  1.6935 -0.6550
 4434TIP3    H234794   1.706   1.570   4.363  1.2605  0.7143  1.1270
 4435TIP3   OH234795   6.075   2.653  13.661  0.3454  0.2003 -0.7451
 4435TIP3    H134796   6.108   2.635  13.749 -1.3560 -0.9329 -0.3133
 4435TIP3    H234797   6.105   2.742  13.642  0.2483  0.6745  1.2313
 4436TIP3   OH234798   6.158   5.951   4.420  0.5950 -0.2763 -0.2509
 4436TIP3    H134799   6.192   5.901   4.494 -0.8360  0.2645  0.7883
 4436TIP3    H234800   6.114   6.026   4.459  0.4123  0.3875 -1.6859
 4437TIP3   OH234801   4.347   2.152  11.556  0.1173  0.2559 -0.2503
 4437TIP3    H134802   4.255   2.129  11.548 -0.0554  0.6367  0.5793
 4437TIP3    H234803   4.351   2.246  11.536  0.4390  0.0780 -1.0483
 4438TIP3   OH234804   0.032   2.476   1.467  0.4128  0.1163  0.6905
 4438TIP3    H134805  -0.006   2.504   1.551 -0.4239  0.5847  0.1568
 4438TIP3    H234806  -0.007   2.534   1.402 -1.3812 -2.2625 -0.4582
 4439TIP3   OH234807   1.813   4.598   2.510 -0.4925  0.2410 -0.0042
 4439TIP3    H134808   1.740   4.559   2.558 -1.1614  0.4382 -0.8577
 4439TIP3    H234809   1.774   4.668   2.458 -0.0585 -0.9899 -2.0777
 4440TIP3   OH234810   2.950   5.974  13.875  0.3725  0.2475  0.2015
 4440TIP3    H134811   3.015   6.025  13.827  0.2347  0.2727  0.0417
 4440TIP3    H234812   2.996   5.947  13.955  0.0372  1.7697  0.9385
 4441TIP3   OH234813   2.680   1.142  12.669 -0.0161  0.1384  0.3551
 4441TIP3    H134814   2.740   1.080  12.711  0.6987 -1.0087 -2.3207
 4441TIP3    H234815   2.724   1.227  12.678  0.6939 -0.2738  0.8615
 4442TIP3   OH234816   5.693   4.892  14.126 -0.7203 -0.8047  0.2593
 4442TIP3    H134817   5.645   4.809  14.135 -0.9635 -0.5495  1.4010
 4442TIP3    H234818   5.634   4.957  14.164 -0.0412 -0.2855  0.4273
 4443TIP3   OH234819   0.283   5.530   2.747 -0.3372  0.6728  0.2964
 4443TIP3    H134820   0.344   5.604   2.756 -0.0439  0.3711  0.7974
 4443TIP3    H234821   0.205   5.557   2.794 -0.8716  1.3559 -0.9460
 4444TIP3   OH234822   0.727   4.823  14.099  0.2401  0.3960  0.1714
 4444TIP3    H134823   0.703   4.915  14.087  0.2124  0.5430  1.2846
 4444TIP3    H234824   0.643   4.778  14.110  0.3730  0.7082  2.7084
 4445TIP3   OH234825   5.933   3.843   5.926  0.0924 -0.7033 -0.5204
 4445TIP3    H134826   5.888   3.767   5.888  1.4538 -1.8818  0.1952
 4445TIP3    H234827   5.972   3.810   6.006  0.6370  0.7921 -0.1612
 4446TIP3   OH234828   3.698   2.143   1.142 -0.5126  0.1977 -0.0224
 4446TIP3    H134829   3.658   2.214   1.092  2.0792  1.0823 -0.9604
 4446TIP3    H234830   3.693   2.172   1.233 -2.4424  0.0279 -0.0622
 4447TIP3   OH234831   4.550   4.975  15.370  0.5855  0.1212  0.6175
 4447TIP3    H134832   4.538   5.032  15.295 -0.1665  0.0850  0.7097
 4447TIP3    H234833   4.470   4.985  15.421  0.4402 -1.0354  0.6213
 4448TIP3   OH234834   6.080   3.126  17.064  0.3212 -0.6278 -0.0574
 4448TIP3    H134835   6.013   3.064  17.035 -1.2511  0.7877  0.4822
 4448TIP3    H234836   6.122   3.082  17.138 -1.3882 -0.6984  0.9111
 4449TIP3   OH234837   4.288   5.323  16.319 -0.2872 -0.0411 -0.5165
 4449TIP3    H134838   4.200   5.326  16.356  0.1151 -1.6995  0.6772
 4449TIP3    H234839   4.342   5.287  16.390  1.2152  0.2759 -1.4728
 4450TIP3   OH234840   6.291   3.333  11.859 -0.2424  0.2893  0.3445
 4450TIP3    H134841   6.274   3.415  11.905 -1.3453  1.2084 -1.6734
 4450TIP3    H234842   6.205   3.304  11.830  0.4402 -0.3019 -1.1128
 4451TIP3   OH234843   5.187   6.625   5.022 -0.4826 -0.1037  0.3427
 4451TIP3    H134844   5.185   6.680   4.944 -0.3546 -0.7837 -0.1458
 4451TIP3    H234845   5.138   6.674   5.088 -1.9340 -0.2242 -0.6341
 4452TIP3   OH234846   4.874   5.196   1.594 -0.0170  0.5542 -0.1385
 4452TIP3    H134847   4.835   5.185   1.681  0.5242  1.6069  0.2484
 4452TIP3    H234848   4.821   5.265   1.552  1.8201  2.4972  0.6550
 4453TIP3   OH234849   2.823   3.820  14.153  0.7254 -0.5942  0.3243
 4453TIP3    H134850   2.768   3.897  14.172  1.5272  0.2382 -0.6915
 4453TIP3    H234851   2.770   3.767  14.094  0.4769 -0.4561  0.4188
 4454TIP3   OH234852   2.093   0.756  17.062  0.3067 -0.3260  0.2606
 4454TIP3    H134853   2.140   0.727  17.140  0.5460  0.1939  0.3054
 4454TIP3    H234854   2.155   0.810  17.014 -0.6444  1.4446  0.9703
 4455TIP3   OH234855   5.604   0.194   4.648 -0.1577  0.3477  0.6595
 4455TIP3    H134856   5.590   0.099   4.653 -0.7594  0.3200 -1.2508
 4455TIP3    H234857   5.588   0.216   4.556  3.1397  1.8085  0.3785
 4456TIP3   OH234858   0.950   5.598  14.828  0.4916 -0.5926 -0.8041
 4456TIP3    H134859   0.934   5.687  14.857  0.3795 -1.0870  0.7145
 4456TIP3    H234860   0.862   5.559  14.820  0.6108 -1.2932  0.9754
 4457TIP3   OH234861   4.450   4.364  14.656  0.0406  0.0478  0.3999
 4457TIP3    H134862   4.455   4.459  14.672  1.1620  0.0360  0.1625
 4457TIP3    H234863   4.357   4.347  14.644 -0.2060  1.0714  0.7637
 4458TIP3   OH234864   0.457   4.416  14.685  0.4062  0.5809 -0.4396
 4458TIP3    H134865   0.520   4.488  14.674  2.2131 -1.0459 -0.9446
 4458TIP3    H234866   0.455   4.372  14.600  0.1750 -0.6522  0.1885
 4459TIP3   OH234867   5.949   5.577   3.984  0.2112 -0.3268  0.4457
 4459TIP3    H134868   5.910   5.524   4.053  1.3157 -1.0294  0.5477
 4459TIP3    H234869   5.972   5.515   3.915 -0.4297  0.3043 -0.3609
 4460TIP3   OH234870   3.741   2.957  12.194 -0.5061 -0.3955 -0.9942
 4460TIP3    H134871   3.650   2.981  12.177 -0.4096 -0.2349 -1.2833
 4460TIP3    H234872   3.743   2.862  12.182 -0.9284 -0.5824  0.3436
 4461TIP3   OH234873   5.078   5.354   5.892 -0.2059 -0.0469  0.1128
 4461TIP3    H134874   5.048   5.431   5.940  1.2223 -0.1289  1.1938
 4461TIP3    H234875   5.130   5.389   5.820 -1.2000  0.0437 -0.5624
 4462TIP3   OH234876   1.795   2.291  16.925  0.2427  0.5268 -0.2770
 4462TIP3    H134877   1.714   2.296  16.976  1.3162  1.6602  1.3973
 4462TIP3    H234878   1.790   2.207  16.879 -1.6250  0.3406  0.2284
 4463TIP3   OH234879   2.282   1.435   1.207 -0.2184 -0.1458 -0.1376
 4463TIP3    H134880   2.358   1.391   1.244 -1.0426 -1.2830  0.1996
 4463TIP3    H234881   2.215   1.367   1.198 -1.2160  0.8421 -0.4063
 4464TIP3   OH234882   2.085   0.643   2.964 -0.2114  0.0538  0.4703
 4464TIP3    H134883   2.000   0.604   2.943 -0.3644  0.0350  1.1007
 4464TIP3    H234884   2.088   0.642   3.060  0.2838  0.5224  0.4603
 4465TIP3   OH234885   1.312   0.384  14.479 -0.2609 -0.1277 -0.3204
 4465TIP3    H134886   1.341   0.294  14.497 -0.9207 -0.6576 -1.8009
 4465TIP3    H234887   1.234   0.373  14.424 -2.3621  1.2693  2.2682
 4466TIP3   OH234888   4.148   1.594   6.145  0.4462  0.1795 -0.3641
 4466TIP3    H134889   4.113   1.516   6.188  1.0593 -0.8976 -1.7851
 4466TIP3    H234890   4.170   1.653   6.217 -3.0138  0.3626  0.6376
 4467TIP3   OH234891   2.497   0.409   4.599  0.0609 -0.2439  0.8085
 4467TIP3    H134892   2.501   0.354   4.677 -1.8903  0.7941  1.7049
 4467TIP3    H234893   2.546   0.361   4.532 -0.4096 -2.3744  1.9511
 4468TIP3   OH234894   2.738   5.214   3.444  0.4557  0.2666  0.0236
 4468TIP3    H134895   2.679   5.279   3.404  0.6699 -0.3818 -1.3881
 4468TIP3    H234896   2.719   5.219   3.538 -1.4720  0.4506 -0.3498
 4469TIP3   OH234897   0.764   4.298  10.260 -0.5444 -0.3428  0.2471
 4469TIP3    H134898   0.781   4.382  10.218  0.9096 -1.4116 -1.3643
 4469TIP3    H234899   0.676   4.274  10.230 -1.5734  1.2204  1.8530
 4470TIP3   OH234900   3.564   2.780   4.863  0.0889  0.5844  0.0202
 4470TIP3    H134901   3.484   2.820   4.828 -0.1162 -0.1739 -0.4064
 4470TIP3    H234902   3.635   2.829   4.823 -0.1578  1.3027  0.4464
 4471TIP3   OH234903   3.345   2.868  13.644 -0.0821  0.2705 -0.0409
 4471TIP3    H134904   3.320   2.949  13.601 -1.3645 -0.7391 -1.2499
 4471TIP3    H234905   3.291   2.865  13.724 -0.3497  0.4027 -0.2169
 4472TIP3   OH234906   3.592   4.695  13.504  0.0004 -0.4178  0.2851
 4472TIP3    H134907   3.568   4.667  13.593  0.3673 -0.8778  0.2402
 4472TIP3    H234908   3.521   4.753  13.478 -0.3075 -0.5851  0.7334
 4473TIP3   OH234909   6.753   2.162   2.065 -0.0410 -0.6015  0.0563
 4473TIP3    H134910   6.692   2.234   2.085  1.0770  0.4338 -0.2083
 4473TIP3    H234911   6.794   2.189   1.982  2.6578 -0.0266  1.5422
 4474TIP3   OH234912   6.694   2.336  15.739 -0.4034  0.2858  0.0158
 4474TIP3    H134913   6.707   2.265  15.676 -2.5714 -0.9248  0.8792
 4474TIP3    H234914   6.625   2.390  15.701 -0.8015  0.2889  0.7240
 4475TIP3   OH234915   4.535   1.389  14.018 -0.3315  0.6715 -0.2325
 4475TIP3    H134916   4.444   1.414  14.033 -1.4536 -3.0508 -0.1798
 4475TIP3    H234917   4.540   1.367  13.925  0.3750  0.4616 -0.1519
 4476TIP3   OH234918   6.452   1.924  11.737 -0.3483  0.3588 -0.8305
 4476TIP3    H134919   6.373   1.959  11.697  0.6560  2.8760 -0.6685
 4476TIP3    H234920   6.520   1.935  11.670  0.5111  1.0777  0.1409
 4477TIP3   OH234921   0.346   3.636  15.135 -0.2936 -0.2086  0.5267
 4477TIP3    H134922   0.423   3.637  15.078  0.3729 -0.2032  1.4325
 4477TIP3    H234923   0.274   3.613  15.076 -0.0850  2.5969 -0.9227
 4478TIP3   OH234924   1.718   0.561   4.506  0.0751 -0.5669  0.3261
 4478TIP3    H134925   1.743   0.653   4.516  1.3216 -0.7554 -0.9522
 4478TIP3    H234926   1.690   0.534   4.594 -0.9317  1.2040  0.5774
 4479TIP3   OH234927   3.621   0.265   4.318  0.2362 -0.0896 -0.1099
 4479TIP3    H134928   3.580   0.180   4.337  0.0959 -0.1909 -0.8453
 4479TIP3    H234929   3.573   0.298   4.242 -1.2656  1.7287  1.5832
 4480TIP3   OH234930   5.661   0.965   4.871 -0.3351  0.2723 -0.0158
 4480TIP3    H134931   5.744   0.974   4.918 -0.3974  0.7856  0.0007
 4480TIP3    H234932   5.597   0.944   4.939 -0.0907 -0.8181 -0.1257
 4481TIP3   OH234933   2.187   5.029  15.222 -0.1461 -0.6890 -0.0117
 4481TIP3    H134934   2.118   5.024  15.288 -0.0422 -1.2289  0.0558
 4481TIP3    H234935   2.249   5.093  15.256 -0.7328 -0.0267 -0.1820
 4482TIP3   OH234936   5.346   2.291  15.484  0.1294 -0.1440 -0.1634
 4482TIP3    H134937   5.398   2.329  15.555  0.3574 -0.4280 -0.1808
 4482TIP3    H234938   5.398   2.308  15.405  0.3633 -0.7359 -0.1381
 4483TIP3   OH234939   0.489   5.223   3.490  0.3976 -0.0205 -0.1935
 4483TIP3    H134940   0.521   5.144   3.446 -0.2634 -0.3701 -0.0511
 4483TIP3    H234941   0.394   5.218   3.482  0.2068 -0.5181  1.9597
 4484TIP3   OH234942   2.275   0.413   5.041  0.0054 -0.3996  0.0511
 4484TIP3    H134943   2.288   0.378   5.129  0.6013 -0.3617 -0.0200
 4484TIP3    H234944   2.358   0.455   5.019 -0.0192 -0.7158 -0.6704
 4485TIP3   OH234945   5.191   4.531   5.145  0.0671 -0.0045 -0.5192
 4485TIP3    H134946   5.214   4.621   5.168  1.8084 -0.3128 -0.9760
 4485TIP3    H234947   5.210   4.525   5.051  0.3473 -0.9666 -0.4040
 4486TIP3   OH234948   1.282   5.369  15.625  0.0460  0.1743  0.1037
 4486TIP3    H134949   1.355   5.359  15.687 -1.1768 -2.6545  1.1935
 4486TIP3    H234950   1.323   5.377  15.539  1.6604 -3.5376  0.4568
 4487TIP3   OH234951   1.237   1.237   1.626 -0.7202  0.1836 -0.1044
 4487TIP3    H134952   1.325   1.200   1.636 -1.4678 -1.8973 -0.9686
 4487TIP3    H234953   1.192   1.211   1.707 -0.3946  1.7624  0.6108
 4488TIP3   OH234954   2.348   5.965   3.056  0.5134 -0.2536  0.2014
 4488TIP3    H134955   2.257   5.991   3.044  0.4796  0.5266  1.9061
 4488TIP3    H234956   2.371   5.918   2.976 -0.7412  1.3878 -1.1578
 4489TIP3   OH234957   5.396   6.747   4.210 -0.1920 -0.7670  0.0905
 4489TIP3    H134958   5.470   6.769   4.265  0.6268  0.1643 -1.3560
 4489TIP3    H234959   5.341   6.691   4.265  1.3145 -1.0435  1.3452
 4490TIP3   OH234960   3.357   0.035   0.261 -0.0545 -0.3971 -0.6931
 4490TIP3    H134961   3.421   0.098   0.229 -1.2803  1.0900 -0.2997
 4490TIP3    H234962   3.331  -0.014   0.183 -0.1332  0.5471 -1.2643
 4491TIP3   OH234963   2.301   6.304  15.600  0.1915 -0.2063 -0.3396
 4491TIP3    H134964   2.307   6.389  15.643 -0.0687  0.7456 -2.1579
 4491TIP3    H234965   2.327   6.320  15.509 -0.1490 -2.0068 -0.7872
 4492TIP3   OH234966   5.249   0.219  10.451  0.6659  0.3204  0.6455
 4492TIP3    H134967   5.194   0.167  10.393  1.5673  1.7376 -1.5242
 4492TIP3    H234968   5.304   0.154  10.496  1.2505 -0.6620 -1.4461
 4493TIP3   OH234969   6.101   6.704  16.069 -0.5652  0.5693  0.1312
 4493TIP3    H134970   6.091   6.774  16.132  0.1119 -1.0304  2.0619
 4493TIP3    H234971   6.067   6.626  16.113  1.4379 -0.9095 -0.8073
 4494TIP3   OH234972   3.547   4.311  12.615 -0.0010 -0.5256 -0.2349
 4494TIP3    H134973   3.580   4.254  12.546 -0.4028  0.9206 -1.6747
 4494TIP3    H234974   3.602   4.389  12.609 -0.6082 -0.0396  0.5005
 4495TIP3   OH234975   6.514   0.247   0.858 -0.1618  0.3163 -0.2434
 4495TIP3    H134976   6.527   0.232   0.951 -0.7593 -0.8568 -0.3471
 4495TIP3    H234977   6.558   0.174   0.815 -0.4151  0.5223 -0.8596
 4496TIP3   OH234978   3.877   5.230  13.046  0.2511 -0.0592 -0.3140
 4496TIP3    H134979   3.804   5.256  13.101  0.9187  2.0475 -0.3685
 4496TIP3    H234980   3.863   5.275  12.963  1.7878  0.6831 -0.1998
 4497TIP3   OH234981   2.137   5.311   6.298  0.2852 -0.1735 -0.3123
 4497TIP3    H134982   2.202   5.355   6.243 -0.1185 -1.1579 -1.5910
 4497TIP3    H234983   2.151   5.218   6.282 -1.2146 -0.4072 -0.3201
 4498TIP3   OH234984   6.315   2.773   3.080 -0.4007 -0.1665 -0.0074
 4498TIP3    H134985   6.365   2.801   3.004  1.3257 -1.7067  0.5364
 4498TIP3    H234986   6.224   2.775   3.051  0.1481  0.5457 -1.6876
 4499TIP3   OH234987   2.462   1.816   2.468  0.2137 -0.1149  0.2942
 4499TIP3    H134988   2.512   1.830   2.548  0.3314 -1.2600  0.4283
 4499TIP3    H234989   2.493   1.885   2.408  1.6556 -0.5660  0.5089
 4500TIP3   OH234990   6.152   1.214   3.729  0.7592  0.0500  0.6473
 4500TIP3    H134991   6.077   1.257   3.768 -0.3560 -0.6338 -0.6827
 4500TIP3    H234992   6.118   1.130   3.697  1.7349  0.3449 -1.2506
 4501TIP3   OH234993   5.385   3.795  15.619  0.2967 -0.9410  0.3740
 4501TIP3    H134994   5.413   3.755  15.702  0.4193 -1.6399 -0.0004
 4501TIP3    H234995   5.296   3.764  15.606 -0.0881  0.0060  0.7652
 4502TIP3   OH234996   4.225   0.648   3.574 -0.6214 -0.5099 -0.5955
 4502TIP3    H134997   4.205   0.701   3.497 -0.4623  0.2656 -0.1076
 4502TIP3    H234998   4.319   0.663   3.589 -0.9307  0.4230  0.5471
 4503TIP3   OH234999   4.929   5.351   3.431 -0.2445  0.1461 -0.9487
 4503TIP3    H135000   4.957   5.413   3.497  0.9850  0.4501 -1.7451
 4503TIP3    H235001   4.846   5.387   3.399 -0.7860  0.0554  0.3209
 4504TIP3   OH235002   4.644   0.668  14.509  0.0718 -0.0482  0.2752
 4504TIP3    H135003   4.724   0.690  14.462 -1.3954  0.7643 -1.9156
 4504TIP3    H235004   4.672   0.650  14.598  2.5679  1.0838 -0.2666
 4505TIP3   OH235005   4.960   1.739   5.590  0.5552  0.1935  0.7334
 4505TIP3    H135006   4.996   1.650   5.593  0.7836  0.2836  0.6988
 4505TIP3    H235007   5.023   1.788   5.537 -0.0848  0.1468 -0.0790
 4506TIP3   OH235008   4.862   4.330   1.998  0.2185  0.1477  0.6333
 4506TIP3    H135009   4.928   4.273   1.959 -0.3463 -0.7415  0.9530
 4506TIP3    H235010   4.779   4.298   1.961 -0.0757  0.9432  0.6005
 4507TIP3   OH235011   1.190   5.080   4.895 -1.0393 -0.2156 -0.2791
 4507TIP3    H135012   1.106   5.075   4.939 -0.2055 -1.5561  1.2067
 4507TIP3    H235013   1.253   5.099   4.965  0.1602 -1.2266 -1.0553
 4508TIP3   OH235014   5.041   2.821  12.976  0.1034  0.1724 -0.0502
 4508TIP3    H135015   4.960   2.854  12.936 -0.4913 -1.4281 -0.1727
 4508TIP3    H235016   5.027   2.832  13.070  0.9004  2.5348 -0.1794
 4509TIP3   OH235017   3.114   5.961   0.902  0.5088  0.3488  0.0980
 4509TIP3    H135018   3.169   5.897   0.858  0.3847  1.0954 -1.1690
 4509TIP3    H235019   3.038   5.972   0.844  1.1229  2.5341 -0.3377
 4510TIP3   OH235020   1.836   1.020  16.901 -0.8071 -0.4078 -0.2664
 4510TIP3    H135021   1.810   1.049  16.814 -2.3349 -1.1246 -0.0543
 4510TIP3    H235022   1.899   0.949  16.884  1.8806  1.9816 -0.7730
 4511TIP3   OH235023   6.714   5.392  11.219  0.1440 -0.4087 -0.5697
 4511TIP3    H135024   6.739   5.419  11.131  1.0684  0.2747 -0.1088
 4511TIP3    H235025   6.789   5.343  11.252 -0.5312 -1.3846 -0.4639
 4512TIP3   OH235026   3.470   1.026   0.310 -0.5118  0.2822 -0.2391
 4512TIP3    H135027   3.529   0.988   0.375 -1.8510  2.7463  2.4924
 4512TIP3    H235028   3.509   1.110   0.288 -0.5873 -0.1145 -1.9467
 4513TIP3   OH235029   5.216   1.508  11.273  0.1995 -0.3680 -0.4385
 4513TIP3    H135030   5.267   1.459  11.209  1.5525 -0.7418  0.9038
 4513TIP3    H235031   5.269   1.506  11.353 -2.2093 -1.3208  1.1857
 4514TIP3   OH235032   0.054   5.641   3.520 -0.1942 -0.1776 -0.7913
 4514TIP3    H135033  -0.015   5.591   3.565  3.4074 -1.8457  3.2131
 4514TIP3    H235034   0.028   5.732   3.532 -2.1333 -0.7885 -0.0891
 4515TIP3   OH235035   3.304   1.164  12.409  0.2725  0.1716  0.1950
 4515TIP3    H135036   3.268   1.208  12.332  1.1654 -0.2230 -0.4481
 4515TIP3    H235037   3.396   1.151  12.389  1.3353  3.0671  2.6560
 4516TIP3   OH235038   4.220   5.733   0.786 -0.3040 -0.6286 -0.1231
 4516TIP3    H135039   4.160   5.803   0.762 -0.1084 -0.0715  0.9669
 4516TIP3    H235040   4.298   5.750   0.735  0.0402  0.4302  0.7241
 4517TIP3   OH235041   2.604   5.884   4.427 -0.3142 -0.2969 -0.1807
 4517TIP3    H135042   2.607   5.796   4.390 -0.2368 -0.2509 -0.2814
 4517TIP3    H235043   2.543   5.932   4.371 -0.9015 -0.4875  0.2981
 4518TIP3   OH235044   5.021   3.315  13.441  0.3183  0.3705 -0.0938
 4518TIP3    H135045   5.012   3.262  13.362  0.1015 -0.0574  0.2148
 4518TIP3    H235046   5.115   3.316  13.458  0.3803  0.6156 -0.4630
 4519TIP3   OH235047   1.693   3.042   4.258 -0.0723 -0.4818  0.1709
 4519TIP3    H135048   1.767   3.103   4.255 -0.0063 -0.4574  1.6543
 4519TIP3    H235049   1.730   2.958   4.232  0.5711 -0.5416  1.2450
 4520TIP3   OH235050   5.249   5.561   2.696 -0.4906  0.0275 -0.6736
 4520TIP3    H135051   5.217   5.483   2.651  0.3744 -1.4265  1.1390
 4520TIP3    H235052   5.284   5.616   2.626 -0.0205 -1.7551 -1.8931
 4521TIP3   OH235053   5.165   6.634   1.940  0.5270  0.3929 -0.8961
 4521TIP3    H135054   5.254   6.609   1.964 -0.1086 -1.2332 -0.0981
 4521TIP3    H235055   5.136   6.691   2.012  1.0069  1.1267 -1.2833
 4522TIP3   OH235056   6.044   3.828  11.005 -0.1586 -0.4878  0.2437
 4522TIP3    H135057   5.987   3.751  11.002  0.8065 -1.1800 -1.3289
 4522TIP3    H235058   5.985   3.902  11.008 -1.1953 -1.1569 -2.4685
 4523TIP3   OH235059   0.777   4.901   4.546  0.4238 -0.5795  0.2618
 4523TIP3    H135060   0.771   4.896   4.450  0.9034  0.9833  0.1499
 4523TIP3    H235061   0.861   4.860   4.566  0.9439  0.3181 -0.0862
 4524TIP3   OH235062   5.939   2.923  16.291 -0.0049  0.2867 -0.1109
 4524TIP3    H135063   6.007   2.939  16.356  1.1643  0.9210 -1.4568
 4524TIP3    H235064   5.902   3.009  16.273 -1.3234 -0.0796  0.7533
 4525TIP3   OH235065   2.514   1.385  15.031 -0.1150 -0.1924  0.3714
 4525TIP3    H135066   2.572   1.368  14.957 -2.1662  2.2183 -1.9011
 4525TIP3    H235067   2.437   1.332  15.014 -1.3348  1.7207 -0.1947
 4526TIP3   OH235068   3.965   5.790   0.699  0.0674 -0.2885 -0.0906
 4526TIP3    H135069   3.930   5.823   0.781 -0.1479  1.9931 -1.0584
 4526TIP3    H235070   3.966   5.695   0.709 -1.9208 -0.1398  1.7414
 4527TIP3   OH235071   1.242   5.886  15.235  0.4276  0.0274  0.7759
 4527TIP3    H135072   1.151   5.875  15.209  0.5178 -1.2913  0.9735
 4527TIP3    H235073   1.268   5.799  15.266  2.2539 -0.0539 -0.8797
 4528TIP3   OH235074   3.403   1.762  12.700  0.5971  0.0600  0.1448
 4528TIP3    H135075   3.418   1.843  12.747 -2.1728  0.0954  1.0903
 4528TIP3    H235076   3.401   1.787  12.608  0.4840  0.9311  0.3855
 4529TIP3   OH235077   0.776   2.317  15.242 -0.3099 -0.0098 -0.0515
 4529TIP3    H135078   0.712   2.382  15.213 -4.1983 -3.0190  1.3225
 4529TIP3    H235079   0.808   2.277  15.161 -1.2304  0.5867 -0.7157
 4530TIP3   OH235080   2.424   0.776   3.131 -0.0525  0.5055 -0.2198
 4530TIP3    H135081   2.385   0.862   3.116  0.2772  0.7714  0.4342
 4530TIP3    H235082   2.354   0.725   3.171 -0.1911  0.5187 -0.4393
 4531TIP3   OH235083   3.942   0.879  15.859 -0.1959 -0.4658  0.9888
 4531TIP3    H135084   3.992   0.923  15.927  2.0583 -1.1432 -0.1602
 4531TIP3    H235085   4.008   0.833  15.807 -1.7332  0.7467 -2.1844
 4532TIP3   OH235086   2.257   5.683   3.185 -0.0902 -0.4349 -0.6851
 4532TIP3    H135087   2.269   5.749   3.254 -2.0311  0.3573 -1.0797
 4532TIP3    H235088   2.341   5.680   3.140  0.2791  1.1619 -0.1273
 4533TIP3   OH235089   5.896   6.545   5.907  0.4137  0.0005  0.3118
 4533TIP3    H135090   5.874   6.515   5.995  1.4845  1.9192  1.2501
 4533TIP3    H235091   5.991   6.539   5.902  0.4886  1.3858 -0.1573
 4534TIP3   OH235092   6.399   4.449  11.040  0.5150  0.1761 -0.0123
 4534TIP3    H135093   6.456   4.408  10.975 -0.2399 -0.8019 -0.0609
 4534TIP3    H235094   6.392   4.385  11.110 -1.9841 -0.4728 -0.8234
 4535TIP3   OH235095   1.725   2.470  14.110 -0.3162 -0.3977 -0.2969
 4535TIP3    H135096   1.782   2.397  14.134 -1.1270 -1.0230 -0.2347
 4535TIP3    H235097   1.729   2.474  14.015 -0.1682 -0.4434 -0.2921
 4536TIP3   OH235098   4.308   3.462  11.600 -0.2150 -0.1479 -0.4952
 4536TIP3    H135099   4.326   3.394  11.664 -0.9210 -0.3165 -0.4696
 4536TIP3    H235100   4.263   3.417  11.529  0.6616  0.0134 -1.1719
 4537TIP3   OH235101   6.769   2.273   6.286 -0.2401  0.1415 -0.5016
 4537TIP3    H135102   6.739   2.199   6.338  0.8760  0.8361  1.1844
 4537TIP3    H235103   6.780   2.344   6.349  1.7611  0.8313 -1.5691
 4538TIP3   OH235104   5.486   5.498  11.667  0.0075 -0.2602  0.0319
 4538TIP3    H135105   5.500   5.433  11.599  0.6915 -1.3533  1.1955
 4538TIP3    H235106   5.574   5.522  11.696 -0.3115 -1.2224  1.8476
 4539TIP3   OH235107   0.375   6.155   4.798  0.8993  0.0460  0.1365
 4539TIP3    H135108   0.348   6.242   4.770  0.3481 -0.3229 -0.5086
 4539TIP3    H235109   0.402   6.166   4.889 -0.1427  0.7042  0.3813
 4540TIP3   OH235110   5.993   4.764   3.938  0.0345  0.0748  0.2744
 4540TIP3    H135111   6.011   4.820   3.863 -1.3698 -0.0573 -0.1863
 4540TIP3    H235112   5.976   4.826   4.010  1.2718  0.2015  0.4601
 4541TIP3   OH235113   2.771   2.645   4.039 -0.0534 -0.1452  0.5123
 4541TIP3    H135114   2.857   2.627   4.001  0.2272 -2.8930  2.3259
 4541TIP3    H235115   2.709   2.619   3.971  0.4967 -1.3059  0.4411
 4542TIP3   OH235116   2.082   5.317   5.074 -0.2697  0.0179  0.3770
 4542TIP3    H135117   2.152   5.335   5.012  0.4623 -1.1857  0.8390
 4542TIP3    H235118   2.084   5.391   5.135 -2.0698  2.0749 -1.9319
 4543TIP3   OH235119   1.090   1.674   1.479  0.4416 -0.3487  0.0411
 4543TIP3    H135120   1.052   1.646   1.562  0.1030 -0.4020 -0.1311
 4543TIP3    H235121   1.184   1.657   1.489  0.4551  0.0088  0.5558
 4544TIP3   OH235122   2.281   2.299   4.648  0.7615 -0.2289 -0.3104
 4544TIP3    H135123   2.276   2.304   4.743  1.0114 -0.7577 -0.2667
 4544TIP3    H235124   2.308   2.209   4.630  1.0751 -0.0275 -0.8641
 4545TIP3   OH235125   0.184   2.148  14.416  0.0714 -0.0726  0.1710
 4545TIP3    H135126   0.213   2.210  14.349  0.1177 -0.5316 -0.2375
 4545TIP3    H235127   0.114   2.098  14.373 -0.7791  0.4915  0.8895
 4546TIP3   OH235128   6.110   2.069  11.796  0.3256  0.1789  0.3242
 4546TIP3    H135129   6.108   2.146  11.739 -0.2683 -0.7165 -0.8922
 4546TIP3    H235130   6.019   2.057  11.823  0.9191  1.8650  3.2456
 4547TIP3   OH235131   2.782   6.282  15.967 -0.3577 -0.0743 -0.3551
 4547TIP3    H135132   2.839   6.287  15.890 -1.2673 -2.9336 -1.2703
 4547TIP3    H235133   2.706   6.336  15.944 -0.1773 -0.1106 -1.0385
 4548TIP3   OH235134   5.578   6.249  12.597  0.1132  0.1873 -0.4336
 4548TIP3    H135135   5.491   6.261  12.633  0.5079 -1.0583  0.9644
 4548TIP3    H235136   5.624   6.194  12.661  1.1239 -1.2695 -2.3612
 4549TIP3   OH235137   6.723   3.623  16.113 -0.5350 -0.0293 -0.7905
 4549TIP3    H135138   6.795   3.577  16.071 -0.9829 -3.8557  2.3105
 4549TIP3    H235139   6.766   3.690  16.167  0.7151 -1.6438  0.2878
 4550TIP3   OH235140   2.171   0.156  12.592 -0.2846 -0.7816  0.0931
 4550TIP3    H135141   2.141   0.239  12.556  1.7268  0.2664  0.7518
 4550TIP3    H235142   2.114   0.140  12.668  0.3030  0.7870  0.8807
 4551TIP3   OH235143   1.149   0.421   5.858 -0.0610 -0.3555 -0.0142
 4551TIP3    H135144   1.177   0.397   5.947  0.6051 -1.7536 -0.5948
 4551TIP3    H235145   1.229   0.426   5.807 -0.5451 -0.7250 -0.8245
 4552TIP3   OH235146   4.582   6.143   1.285  0.6030  0.3965 -0.1986
 4552TIP3    H135147   4.554   6.226   1.246  1.4567  0.9409  0.3285
 4552TIP3    H235148   4.568   6.079   1.216 -1.4133  0.7223 -0.1440
 4553TIP3   OH235149   4.105   2.086  16.540 -0.6287  0.1451  0.4191
 4553TIP3    H135150   4.089   2.167  16.492  2.7200  1.3548  1.1958
 4553TIP3    H235151   4.198   2.090  16.564 -1.1193 -2.4977  3.1092
 4554TIP3   OH235152   4.094   1.015   3.460 -0.2298  0.1195  0.2214
 4554TIP3    H135153   4.039   1.091   3.440 -1.0870 -0.3983  0.5957
 4554TIP3    H235154   4.099   1.014   3.556 -0.4575 -0.4684  0.2255
 4555TIP3   OH235155   5.315   6.812  15.684  0.5538 -0.4246  0.3514
 4555TIP3    H135156   5.286   6.889  15.734  0.1675  1.6243 -2.8725
 4555TIP3    H235157   5.409   6.808  15.698  0.5977  0.7349  0.4240
 4556TIP3   OH235158   1.550   5.347   5.514  0.0382  0.0425  0.9425
 4556TIP3    H135159   1.553   5.388   5.601  2.1636  0.1673  0.8275
 4556TIP3    H235160   1.557   5.420   5.452 -2.3213  0.0344  0.6110
 4557TIP3   OH235161   0.256   0.932   3.790  0.4838  0.2362 -0.8605
 4557TIP3    H135162   0.257   0.928   3.694  1.1326 -1.9420 -0.7766
 4557TIP3    H235163   0.207   0.854   3.816  0.4725  0.7300  0.6004
 4558TIP3   OH235164   6.078   1.892  12.500 -0.1513  0.1688  0.0652
 4558TIP3    H135165   6.011   1.902  12.569 -0.4070  0.9671 -0.2868
 4558TIP3    H235166   6.062   1.806  12.463 -1.3375  0.5615 -0.3678
 4559TIP3   OH235167   4.929   4.019  10.608 -0.0118 -0.0374 -0.0699
 4559TIP3    H135168   4.954   3.983  10.523  1.3349  0.1225  0.2370
 4559TIP3    H235169   5.002   3.996  10.665 -1.0419 -0.4007  1.1171
 4560TIP3   OH235170   3.027   3.202   6.323  0.2457  0.7114  0.1826
 4560TIP3    H135171   2.978   3.252   6.388 -1.5733  0.9749 -1.3509
 4560TIP3    H235172   2.999   3.111   6.335  0.9436  0.5593  0.6739
 4561TIP3   OH235173   1.914   0.143  10.392  0.3683  0.1735 -0.1234
 4561TIP3    H135174   1.956   0.057  10.387 -1.3920 -0.7098  0.0940
 4561TIP3    H235175   1.950   0.182  10.472  1.7672 -0.0180 -0.6460
 4562TIP3   OH235176   0.881   2.518   3.274 -0.0597 -0.0989  0.3609
 4562TIP3    H135177   0.890   2.517   3.179 -0.9511  1.7686  0.2365
 4562TIP3    H235178   0.786   2.522   3.289  0.0377 -1.2367  1.3499
 4563TIP3   OH235179   4.283   0.358   4.624 -0.7237  0.4638 -0.4124
 4563TIP3    H135180   4.205   0.306   4.603  0.5814 -1.3434 -0.9783
 4563TIP3    H235181   4.338   0.298   4.675 -0.8366  2.5761  2.2781
 4564TIP3   OH235182   2.187   5.636   6.574  0.0926  0.0086 -0.0709
 4564TIP3    H135183   2.189   5.560   6.633  1.0026 -1.4821 -1.9718
 4564TIP3    H235184   2.195   5.711   6.633  0.4040 -1.4026  1.7689
 4565TIP3   OH235185   2.162   6.786  12.393  0.4800 -0.1492 -0.0869
 4565TIP3    H135186   2.075   6.750  12.407 -0.3643  0.8100 -2.6998
 4565TIP3    H235187   2.165   6.865  12.448 -0.5840  0.2568 -0.6155
 4566TIP3   OH235188   5.018   6.518  12.846 -0.5262 -0.1641  0.6168
 4566TIP3    H135189   5.018   6.528  12.751 -1.6596  0.0269  0.6280
 4566TIP3    H235190   5.008   6.607  12.880 -0.8259 -0.3024  0.8971
 4567TIP3   OH235191   1.324   6.592  11.027  0.2867  0.2049  0.3813
 4567TIP3    H135192   1.266   6.523  10.995 -0.6665  0.8069  0.8062
 4567TIP3    H235193   1.272   6.672  11.023  0.4935  0.4679  2.4598
 4568TIP3   OH235194   0.050   1.960  16.019  0.0946  0.6673 -0.0871
 4568TIP3    H135195  -0.042   1.945  16.039 -0.0531  1.9171  0.1926
 4568TIP3    H235196   0.052   1.969  15.923 -0.0446  0.5107 -0.1054
 4569TIP3   OH235197   4.041   4.243  12.013 -0.5001  0.5464  0.0879
 4569TIP3    H135198   4.006   4.326  12.046 -1.1574  0.1542  0.3898
 4569TIP3    H235199   4.127   4.235  12.054 -1.1138  0.2870  1.3348
 4570TIP3   OH235200   0.199   2.490   3.774 -0.0987  0.0111 -0.9901
 4570TIP3    H135201   0.228   2.489   3.682 -0.3220  1.1890 -1.0867
 4570TIP3    H235202   0.156   2.575   3.784 -0.0163 -0.0853  0.2308
 4571TIP3   OH235203   1.857   4.557   5.309 -1.3111 -0.9708  0.1205
 4571TIP3    H135204   1.921   4.596   5.249 -1.0887  0.1542  1.0764
 4571TIP3    H235205   1.790   4.520   5.251 -1.0355  0.0003 -0.8406
 4572TIP3   OH235206   4.558   0.264   0.073 -0.4137 -0.8227 -0.4332
 4572TIP3    H135207   4.629   0.326   0.088  0.7247 -1.8357 -1.4994
 4572TIP3    H235208   4.485   0.317   0.042  0.4623  0.0269 -1.0576
 4573TIP3   OH235209   2.340   1.572  17.146  0.5825  0.2112  0.1905
 4573TIP3    H135210   2.425   1.615  17.155  1.3421 -1.2913  0.4832
 4573TIP3    H235211   2.327   1.566  17.052  0.1908  1.5927  0.1478
 4574TIP3   OH235212   2.829   3.007   6.528 -0.4246  0.1313  0.1624
 4574TIP3    H135213   2.804   3.099   6.536 -2.7213 -0.5871  1.5254
 4574TIP3    H235214   2.896   2.995   6.596 -0.0408  0.8079 -0.0886
 4575TIP3   OH235215   0.765   1.927   1.677 -0.3614 -0.1005  0.2579
 4575TIP3    H135216   0.700   1.914   1.746 -0.2503  0.1238  0.4045
 4575TIP3    H235217   0.844   1.884   1.710  0.3045  1.7967  1.1888
 4576TIP3   OH235218   6.513   6.074  15.823 -0.3059  0.4159 -0.5860
 4576TIP3    H135219   6.601   6.039  15.828 -0.4717  0.1634  0.8264
 4576TIP3    H235220   6.517   6.157  15.870 -1.0265 -0.0483  0.3253
 4577TIP3   OH235221   6.051   5.517   5.254 -0.0696 -0.2385 -0.0119
 4577TIP3    H135222   6.106   5.547   5.181  0.2826 -1.2253 -0.1641
 4577TIP3    H235223   5.986   5.586   5.265  0.0540  0.0599 -1.0736
 4578TIP3   OH235224   3.736   5.775  13.993 -0.0268  0.1918 -0.1019
 4578TIP3    H135225   3.827   5.789  14.018  0.0946 -0.8152  0.0139
 4578TIP3    H235226   3.691   5.760  14.077  0.2313 -2.3312 -0.3866
 4579TIP3   OH235227   4.812   2.281   0.897 -0.1530  0.0234  0.4437
 4579TIP3    H135228   4.887   2.341   0.900  1.9673 -2.1036 -4.4685
 4579TIP3    H235229   4.754   2.318   0.831 -1.3836 -0.6532  1.1293
 4580TIP3   OH235230   2.062   0.399   0.298 -0.0394  0.1747  0.0562
 4580TIP3    H135231   2.091   0.406   0.207  1.2017 -2.8818  0.1701
 4580TIP3    H235232   2.007   0.320   0.300 -2.0193  1.5414  1.4872
 4581TIP3   OH235233   6.761   0.065   5.642  0.4102 -0.6800 -0.2252
 4581TIP3    H135234   6.795   0.011   5.570  0.2075 -0.6924 -0.3134
 4581TIP3    H235235   6.720   0.140   5.598  1.0369 -0.2561 -0.0815
 4582TIP3   OH235236   4.574   2.215   5.102 -0.0410 -0.0542  0.5435
 4582TIP3    H135237   4.494   2.224   5.155 -0.0097 -1.0996  0.7788
 4582TIP3    H235238   4.585   2.120   5.092  0.8936  0.1041  0.0835
 4583TIP3   OH235239   4.606   3.514   2.285  0.0404 -0.1820  0.0278
 4583TIP3    H135240   4.644   3.494   2.370  0.2766  0.5129  0.0935
 4583TIP3    H235241   4.679   3.545   2.232 -0.0158 -1.1143 -0.5950
 4584TIP3   OH235242   6.805   6.329  14.019 -0.0822 -0.0354 -0.1801
 4584TIP3    H135243   6.717   6.348  13.987 -0.0383 -1.6941 -1.2791
 4584TIP3    H235244   6.807   6.368  14.107 -1.7397  0.4101 -0.3298
 4585TIP3   OH235245   3.759   1.474  11.594  0.3658 -0.2676 -0.2498
 4585TIP3    H135246   3.727   1.562  11.578  0.1705  0.2526  2.7526
 4585TIP3    H235247   3.688   1.431  11.643  1.0663 -1.6000 -0.3714
 4586TIP3   OH235248   3.507   6.124   0.611 -0.1215  0.0262  0.0112
 4586TIP3    H135249   3.454   6.050   0.580 -0.1295  0.0512 -0.0358
 4586TIP3    H235250   3.591   6.114   0.565  0.4170 -0.8278  1.1447
 4587TIP3   OH235251   5.704   6.810  10.880 -0.0927 -0.7912 -0.2513
 4587TIP3    H135252   5.757   6.804  10.800 -1.6701  2.5713 -1.6298
 4587TIP3    H235253   5.755   6.867  10.938 -0.3751 -0.7718 -0.0198
 4588TIP3   OH235254   2.772   0.745   1.844 -0.7441  0.1667 -0.1603
 4588TIP3    H135255   2.843   0.738   1.908 -2.3328  2.4931  1.9234
 4588TIP3    H235256   2.748   0.654   1.825  0.2483 -0.5806  1.9561
 4589TIP3   OH235257   3.517   3.861  11.557 -0.0056  0.0447 -0.4507
 4589TIP3    H135258   3.422   3.872  11.558  0.0338  0.4086  0.5072
 4589TIP3    H235259   3.534   3.795  11.490 -0.7811  1.4238 -2.0416
 4590TIP3   OH235260   2.768   3.146  17.078  0.4593 -0.1469  0.4351
 4590TIP3    H135261   2.738   3.055  17.081  1.3251 -0.4798 -0.3957
 4590TIP3    H235262   2.797   3.158  16.987 -1.9739  1.7250 -0.1266
 4591TIP3   OH235263   1.332   5.018  13.395 -0.2547  0.0192 -0.0780
 4591TIP3    H135264   1.373   5.104  13.395 -0.1770 -0.0073  1.2809
 4591TIP3    H235265   1.398   4.959  13.358  0.3716  0.2463  0.6491
 4592TIP3   OH235266   2.864   0.939   0.023  0.2742 -0.0267 -0.1769
 4592TIP3    H135267   2.780   0.985   0.026 -0.0633 -0.6424 -0.0752
 4592TIP3    H235268   2.928   1.008   0.008  0.0128  0.7621  2.1058
 4593TIP3   OH235269   3.410   5.385  15.266  0.1212  0.2261 -0.5767
 4593TIP3    H135270   3.465   5.385  15.345 -1.8269 -2.1915  0.8892
 4593TIP3    H235271   3.321   5.397  15.299 -0.7387 -0.9135 -2.3940
 4594TIP3   OH235272   1.926   3.528   2.922  0.3157  0.5766  0.3084
 4594TIP3    H135273   1.989   3.543   2.993 -0.4503 -2.1277  1.6206
 4594TIP3    H235274   1.965   3.459   2.869  0.7775  2.4403 -1.8199
 4595TIP3   OH235275   5.514   4.809   2.477 -0.3618  0.2411  0.5239
 4595TIP3    H135276   5.486   4.878   2.418 -0.1094  0.1180  0.2594
 4595TIP3    H235277   5.553   4.742   2.420  0.0334  0.1962  0.8400
 4596TIP3   OH235278   3.802   4.946  15.762 -0.1682 -0.0798 -0.4938
 4596TIP3    H135279   3.755   4.872  15.722  1.0033 -0.9972 -0.2175
 4596TIP3    H235280   3.853   4.984  15.691  0.3437 -0.4427 -0.3228
 4597TIP3   OH235281   0.377   3.934   1.988  0.2339  0.0197  0.0886
 4597TIP3    H135282   0.294   3.913   2.031 -0.0911  1.2718  0.0976
 4597TIP3    H235283   0.432   3.968   2.058  0.3720  0.2311 -0.1226
 4598TIP3   OH235284   5.829   6.230  16.079  0.0400  0.2781 -0.1667
 4598TIP3    H135285   5.782   6.179  16.146  0.8614  1.5129  1.3886
 4598TIP3    H235286   5.832   6.172  16.003  0.8589 -1.9837  1.5374
 4599TIP3   OH235287   4.680   3.989  11.926  0.5132 -0.2453  0.4862
 4599TIP3    H135288   4.731   3.947  11.995 -1.2482 -0.8739  1.4426
 4599TIP3    H235289   4.601   3.935  11.918 -1.9728  2.9775  1.9844
 4600TIP3   OH235290   2.326   6.228   0.534  0.2294  0.1302 -0.9968
 4600TIP3    H135291   2.415   6.257   0.551 -0.0862  0.5154  0.0456
 4600TIP3    H235292   2.335   6.160   0.467  1.1423  1.3164 -2.0926
 4601TIP3   OH235293   1.492   1.874  11.479 -0.4045 -0.0536  0.4216
 4601TIP3    H135294   1.453   1.802  11.430  0.6217  0.3187 -1.0048
 4601TIP3    H235295   1.581   1.881  11.444 -0.2802  1.4796  0.9876
 4602TIP3   OH235296   0.660   2.277  14.015 -0.1486  0.4658 -0.0275
 4602TIP3    H135297   0.716   2.290  14.091  0.2085 -0.9750 -0.0364
 4602TIP3    H235298   0.583   2.331  14.032  0.3070  0.8086  0.9606
 4603TIP3   OH235299   0.750   3.217  12.251  0.3420  0.0293  0.1895
 4603TIP3    H135300   0.782   3.293  12.300 -3.3560  1.1681  1.0258
 4603TIP3    H235301   0.726   3.153  12.317 -0.8818 -0.0424 -0.3187
 4604TIP3   OH235302   4.962   2.711   3.844  0.0136 -0.4755 -0.0912
 4604TIP3    H135303   4.883   2.711   3.789  0.5314  1.0130 -0.8590
 4604TIP3    H235304   4.987   2.619   3.850 -2.3026 -1.0646  0.9020
 4605TIP3   OH235305   5.557   2.802   4.178  0.1487 -0.2298  0.5161
 4605TIP3    H135306   5.488   2.853   4.137  0.5982 -0.7149 -0.8468
 4605TIP3    H235307   5.579   2.735   4.114  0.3490 -1.4402  1.8371
 4606TIP3   OH235308   1.471   6.021  16.543 -0.2261 -0.4507 -0.1252
 4606TIP3    H135309   1.500   6.112  16.536 -1.0347 -0.1407  0.4353
 4606TIP3    H235310   1.524   5.986  16.615  0.4365 -0.5750 -0.6605
 4607TIP3   OH235311   1.295   2.786   2.673  0.0466 -0.1361 -0.4365
 4607TIP3    H135312   1.280   2.724   2.744  0.3053 -0.8766 -1.0092
 4607TIP3    H235313   1.208   2.807   2.639 -0.0099 -0.5759 -0.5620
 4608TIP3   OH235314   0.225   1.823  13.541 -0.8842  0.1708  0.0860
 4608TIP3    H135315   0.237   1.784  13.455  1.2253 -0.5023  0.6532
 4608TIP3    H235316   0.205   1.915  13.522  1.5943  0.5240 -1.1323
 4609TIP3   OH235317   1.485   1.933  13.618 -0.0552  0.0124 -0.0100
 4609TIP3    H135318   1.417   1.965  13.559  0.6501  1.7039  0.0718
 4609TIP3    H235319   1.553   1.899  13.559  0.7513  1.9095 -0.2125
 4610TIP3   OH235320   1.944   1.921   5.977  0.6423 -0.3395 -0.2789
 4610TIP3    H135321   2.035   1.913   6.004  0.6752  0.7752 -0.0199
 4610TIP3    H235322   1.900   1.962   6.051  0.0266 -0.4473 -0.5800
 4611TIP3   OH235323   1.544   1.529   2.399 -0.0940  0.1312 -0.0786
 4611TIP3    H135324   1.620   1.473   2.415 -1.6216 -2.2466 -0.9472
 4611TIP3    H235325   1.500   1.534   2.484  0.7112  1.0439  0.2901
 4612TIP3   OH235326   1.264   3.054  14.527  0.4980  0.0187  0.3650
 4612TIP3    H135327   1.345   3.076  14.481 -0.6553  1.5482 -0.9994
 4612TIP3    H235328   1.235   3.137  14.565 -0.7480 -0.4063  0.3476
 4613TIP3   OH235329   4.076   1.648  10.760  0.1582 -0.1666  0.2022
 4613TIP3    H135330   4.007   1.661  10.694  0.3936 -0.4589 -0.0999
 4613TIP3    H235331   4.113   1.562  10.739  0.2417 -0.2523  0.7074
 4614TIP3   OH235332   2.289   2.433  13.260  0.7492  0.0851 -0.2958
 4614TIP3    H135333   2.264   2.355  13.211  2.1812 -0.5571 -0.0477
 4614TIP3    H235334   2.259   2.416  13.349 -0.8288  0.7532 -0.6875
 4615TIP3   OH235335   0.092   4.521   6.306 -0.1668 -0.0003  0.6558
 4615TIP3    H135336   0.068   4.612   6.320 -0.3758  0.3961 -1.9971
 4615TIP3    H235337   0.187   4.519   6.310 -0.0256  0.7941 -1.5641
 4616TIP3   OH235338   4.595   3.460  16.290  0.7602  0.2291 -0.6270
 4616TIP3    H135339   4.538   3.536  16.282  0.1486 -0.1854 -0.2396
 4616TIP3    H235340   4.538   3.385  16.274  1.0547 -0.2145  0.3568
 4617TIP3   OH235341   1.189   1.362  11.469  0.0025 -0.0433 -0.3273
 4617TIP3    H135342   1.142   1.394  11.393 -0.4543 -0.9346 -0.4199
 4617TIP3    H235343   1.152   1.276  11.487  0.5044 -0.0904  0.5520
 4618TIP3   OH235344   2.522   3.275  10.817 -0.5651  0.0444  0.1106
 4618TIP3    H135345   2.468   3.256  10.741 -0.2711 -0.2464 -0.0304
 4618TIP3    H235346   2.530   3.370  10.819  1.7752 -0.0675 -1.8867
 4619TIP3   OH235347   5.871   0.311  14.204 -0.6891 -0.1803 -0.0266
 4619TIP3    H135348   5.911   0.226  14.187 -1.7756 -0.8531  0.7065
 4619TIP3    H235349   5.938   0.375  14.179  0.1489 -1.2499 -0.5335
 4620TIP3   OH235350   6.504   4.212   2.527 -0.4005  0.5772  0.0312
 4620TIP3    H135351   6.599   4.207   2.538 -0.3302  1.9148  0.1825
 4620TIP3    H235352   6.479   4.129   2.488  0.9354  0.5127 -0.7102
 4621TIP3   OH235353   3.282   1.501   2.818  0.0722 -0.2627 -0.6006
 4621TIP3    H135354   3.296   1.439   2.889  1.3414 -0.2137 -0.8015
 4621TIP3    H235355   3.369   1.523   2.787 -0.4477  0.1730 -1.7915
 4622TIP3   OH235356   1.868   1.167   2.819 -1.1525 -0.0177 -0.3195
 4622TIP3    H135357   1.921   1.245   2.831 -0.3565 -0.5029 -0.5772
 4622TIP3    H235358   1.778   1.199   2.810 -1.2862  0.6325  2.7887
 4623TIP3   OH235359   2.847   1.572  15.970 -0.3876  0.3291 -0.3710
 4623TIP3    H135360   2.759   1.606  15.959 -0.5888 -0.7065 -2.2943
 4623TIP3    H235361   2.877   1.553  15.881  0.2783 -3.0267  0.4769
 4624TIP3   OH235362   1.199   1.327  14.011  0.0729  0.2538 -0.1931
 4624TIP3    H135363   1.286   1.310  13.976 -0.4586 -0.1245 -1.3573
 4624TIP3    H235364   1.192   1.423  14.012  0.3215  0.2780 -0.5438
 4625TIP3   OH235365   4.645   5.632   1.756  0.8232 -0.3572 -0.1831
 4625TIP3    H135366   4.629   5.725   1.772  0.8352 -0.2772 -0.6392
 4625TIP3    H235367   4.595   5.588   1.824 -1.5024 -0.1226 -1.6823
 4626TIP3   OH235368   0.632   4.692  17.269  0.0026  0.3715 -0.2537
 4626TIP3    H135369   0.639   4.733  17.182  1.3553 -0.1521 -0.3965
 4626TIP3    H235370   0.633   4.598  17.251 -2.8784  0.2214  0.0944
 4627TIP3   OH235371   1.479   5.764   2.284 -0.4031  0.7516  0.8582
 4627TIP3    H135372   1.414   5.835   2.289 -1.0878  0.3913 -2.2132
 4627TIP3    H235373   1.561   5.805   2.312 -1.5014  1.7482  2.7558
 4628TIP3   OH235374   1.105   3.732   2.169  0.2248 -0.1868  0.1029
 4628TIP3    H135375   1.115   3.736   2.074  0.2633  0.9411  0.1498
 4628TIP3    H235376   1.120   3.821   2.199  0.7102 -0.6387  1.2273
 4629TIP3   OH235377   5.064   3.264  14.348  0.4218  0.8312 -0.5351
 4629TIP3    H135378   5.100   3.327  14.286  0.7673  0.6649 -0.5076
 4629TIP3    H235379   5.088   3.299  14.434  0.2705  0.8668 -0.5082
 4630TIP3   OH235380   1.093   4.331  15.099 -0.6450  0.2858  0.0152
 4630TIP3    H135381   1.004   4.302  15.122 -1.2864 -0.0003 -2.6891
 4630TIP3    H235382   1.079   4.402  15.036  1.0016  3.2751  2.8474
 4631TIP3   OH235383   6.756   4.689   0.024  0.1582  0.6949 -0.0325
 4631TIP3    H135384   6.768   4.699   0.118 -0.2331  2.2090 -0.1303
 4631TIP3    H235385   6.670   4.726   0.006  0.0960  0.1321 -0.9403
 4632TIP3   OH235386   3.151   0.491  14.267 -0.9581 -0.1861 -0.4169
 4632TIP3    H135387   3.129   0.517  14.178 -2.4628 -0.1316 -0.0347
 4632TIP3    H235388   3.068   0.492  14.314 -0.0728  0.6137  1.1949
 4633TIP3   OH235389   3.558   3.477  15.415  0.4053 -0.3332 -0.3330
 4633TIP3    H135390   3.583   3.517  15.332  2.0980 -2.6133 -0.9584
 4633TIP3    H235391   3.520   3.393  15.391 -0.0336 -0.5745  1.1461
 4634TIP3   OH235392   0.395   0.665   0.707 -0.2425  0.9445 -0.0045
 4634TIP3    H135393   0.463   0.639   0.769  1.3733  0.4040 -1.9351
 4634TIP3    H235394   0.349   0.583   0.687 -1.7757  1.3852  1.6360
 4635TIP3   OH235395   4.414   0.689  11.784  0.7040 -0.6464 -0.1711
 4635TIP3    H135396   4.386   0.765  11.732  1.4997 -0.8555 -0.9287
 4635TIP3    H235397   4.479   0.725  11.845  1.1307 -0.7276 -0.5759
 4636TIP3   OH235398   5.987   6.773   6.204 -0.6561 -0.0903  0.5015
 4636TIP3    H135399   5.948   6.686   6.193  0.4881 -0.6145  0.5310
 4636TIP3    H235400   6.064   6.772   6.147 -0.2000  0.6274  1.0969
 4637TIP3   OH235401   5.847   5.466  16.117 -0.1277 -0.2023 -0.0341
 4637TIP3    H135402   5.928   5.492  16.074  0.1455 -0.5015  0.3014
 4637TIP3    H235403   5.865   5.474  16.211 -0.1219 -1.3345  0.0724
 4638TIP3   OH235404   4.672   2.752   2.220 -0.0991  0.0264 -0.1181
 4638TIP3    H135405   4.709   2.836   2.192 -1.3802  0.9096  0.8188
 4638TIP3    H235406   4.736   2.688   2.190  1.1020  1.3586 -0.4889
 4639TIP3   OH235407   3.885   1.761   5.672  0.3336 -0.1520  0.3841
 4639TIP3    H135408   3.891   1.737   5.765  0.8668  0.0129  0.3960
 4639TIP3    H235409   3.855   1.682   5.628 -3.8509  0.8501  1.2137
 4640TIP3   OH235410   1.662   0.489   5.661  0.0963  0.1520 -0.1720
 4640TIP3    H135411   1.672   0.583   5.675  1.8065 -0.0571  0.1825
 4640TIP3    H235412   1.744   0.463   5.617  0.4447 -1.4693  1.3742
 4641TIP3   OH235413   0.866   6.429  14.254  0.4010 -0.1125 -0.4131
 4641TIP3    H135414   0.777   6.463  14.259  0.9129  1.2485 -0.3938
 4641TIP3    H235415   0.857   6.335  14.274 -0.7289  0.4300  1.7142
 4642TIP3   OH235416   1.605   4.241  11.874 -0.2318  0.1112 -0.0358
 4642TIP3    H135417   1.613   4.333  11.900 -1.6605 -0.1241  1.3669
 4642TIP3    H235418   1.511   4.223  11.882 -0.0579 -1.2570 -1.0480
 4643TIP3   OH235419   1.144   2.466   1.600 -0.2047  0.1072 -0.6507
 4643TIP3    H135420   1.183   2.438   1.683  0.3674  1.0316 -0.6045
 4643TIP3    H235421   1.112   2.555   1.617  1.6339  1.0542 -1.9602
 4644TIP3   OH235422   5.425   4.629   3.906  0.8286 -0.1734 -0.2379
 4644TIP3    H135423   5.398   4.547   3.948  0.3566  1.4895  2.8147
 4644TIP3    H235424   5.504   4.656   3.953 -0.0327  2.0346  0.0055
 4645TIP3   OH235425   2.759   4.871   0.157  0.0901 -0.0515  0.8216
 4645TIP3    H135426   2.663   4.871   0.148  0.0822  1.2280  0.7354
 4645TIP3    H235427   2.779   4.959   0.190  1.2632 -0.2181  0.5621
 4646TIP3   OH235428   4.914   1.244   6.742  0.0865  0.5981 -0.1285
 4646TIP3    H135429   4.993   1.199   6.772 -0.5796  0.4148  1.4311
 4646TIP3    H235430   4.846   1.214   6.803 -0.8331  1.9899 -0.4580
 4647TIP3   OH235431   4.764   5.786   3.921 -0.1523  0.3444 -0.0217
 4647TIP3    H135432   4.853   5.808   3.893 -0.1191  1.2999  0.7992
 4647TIP3    H235433   4.763   5.690   3.924  0.7780  0.3249 -0.2653
 4648TIP3   OH235434   0.675   3.972   4.971 -0.3410 -0.2733  0.0408
 4648TIP3    H135435   0.601   3.997   4.916 -0.1069  1.7203  0.5737
 4648TIP3    H235436   0.644   3.896   5.019 -2.4878  1.1749  1.0617
 4649TIP3   OH235437   5.118   5.857  16.598 -0.2683  0.0976  0.5435
 4649TIP3    H135438   5.115   5.936  16.545 -0.3188 -0.0955  0.2555
 4649TIP3    H235439   5.149   5.886  16.683 -1.7357  0.6619  0.8892
 4650TIP3   OH235440   2.730   0.274  14.740 -0.9789 -0.0599 -0.1656
 4650TIP3    H135441   2.644   0.299  14.706 -0.6196 -1.1124 -1.9434
 4650TIP3    H235442   2.725   0.179  14.750 -0.3582 -0.0067  0.7103
 4651TIP3   OH235443   4.581   5.970   3.943  0.1288  0.0417 -0.0308
 4651TIP3    H135444   4.645   5.901   3.926 -0.8039 -0.5114 -1.3374
 4651TIP3    H235445   4.559   5.960   4.036  0.4559 -1.0095 -0.0666
 4652TIP3   OH235446   5.955   5.020  13.082  0.1210 -0.6587  0.3279
 4652TIP3    H135447   5.985   4.929  13.076  0.1603 -0.5941 -0.4083
 4652TIP3    H235448   5.921   5.028  13.171  1.2590 -1.0529  0.8099
 4653TIP3   OH235449   6.437   0.948  13.399  0.1349 -0.2383  0.0091
 4653TIP3    H135450   6.357   0.915  13.440  0.3724 -1.5936 -0.6180
 4653TIP3    H235451   6.411   1.031  13.360 -1.0727 -0.8706 -0.5475
 4654TIP3   OH235452   4.135   0.784   1.915 -0.1758  0.2719 -0.0072
 4654TIP3    H135453   4.046   0.806   1.943 -0.7246 -0.0687 -1.4563
 4654TIP3    H235454   4.189   0.855   1.949 -1.1466  1.0060  0.0080
 4655TIP3   OH235455   1.374   0.982  15.531  0.0411 -0.1629 -0.2727
 4655TIP3    H135456   1.365   0.999  15.437 -1.3665  0.6404 -0.0193
 4655TIP3    H235457   1.391   1.068  15.569 -0.8566 -0.2582  0.3556
 4656TIP3   OH235458   2.623   5.808  15.173 -0.0481 -0.7932  0.1373
 4656TIP3    H135459   2.550   5.847  15.125  0.0536  0.9675  1.3611
 4656TIP3    H235460   2.654   5.737  15.116 -1.6607 -0.5235 -1.1238
 4657TIP3   OH235461   3.488   6.624  16.534 -0.0266  0.3351 -0.3910
 4657TIP3    H135462   3.467   6.717  16.543 -0.2966  0.1807  0.6401
 4657TIP3    H235463   3.540   6.603  16.612 -0.2775 -0.4611 -0.4251
 4658TIP3   OH235464   1.574   1.852  15.108 -0.3310  0.3477 -0.2388
 4658TIP3    H135465   1.540   1.764  15.088  1.0276 -0.3532  0.4760
 4658TIP3    H235466   1.553   1.904  15.031 -3.3927  0.0643  0.3097
 4659TIP3   OH235467   1.761   0.725  13.746 -0.5325 -0.1418  0.8992
 4659TIP3    H135468   1.826   0.790  13.721 -0.5162  0.4810  2.5016
 4659TIP3    H235469   1.752   0.668  13.669  1.6464 -0.0391  0.5554
 4660TIP3   OH235470   1.967   4.889   4.601  0.5541 -0.3682 -0.0528
 4660TIP3    H135471   1.954   4.926   4.514  0.6707  0.2384  0.1905
 4660TIP3    H235472   2.049   4.928   4.632 -0.2138  0.4847  0.9074
 4661TIP3   OH235473   6.321   6.575  14.105 -0.0001  0.0684  0.8039
 4661TIP3    H135474   6.355   6.498  14.151  0.1112  1.1882  2.6144
 4661TIP3    H235475   6.232   6.550  14.080  0.2066 -0.8282  0.9398
 4662TIP3   OH235476   1.836   2.845  12.425  0.6307  0.0262  0.2442
 4662TIP3    H135477   1.863   2.753  12.429  1.5748  0.3142  0.9040
 4662TIP3    H235478   1.849   2.870  12.333 -0.1278 -0.6421 -0.0457
 4663TIP3   OH235479   0.048   4.895  10.629  0.2656 -0.2609 -0.3235
 4663TIP3    H135480   0.107   4.963  10.661  1.1379 -0.3927 -1.6467
 4663TIP3    H235481   0.106   4.826  10.597 -0.6175 -1.0846 -0.1689
 4664TIP3   OH235482   3.572   1.473  14.614  0.0328 -0.2387 -0.5845
 4664TIP3    H135483   3.662   1.486  14.643  0.3480  0.3684 -1.7795
 4664TIP3    H235484   3.526   1.552  14.644 -0.1270 -0.6007  0.1239
 4665TIP3   OH235485   5.963   3.819   2.905  0.5626 -0.0311  0.6668
 4665TIP3    H135486   5.974   3.730   2.874 -1.4113 -0.7139  1.8168
 4665TIP3    H235487   5.962   3.873   2.826  1.0856 -1.1029 -0.0690
 4666TIP3   OH235488   6.300   2.207  11.392  0.5997  0.0793  0.3596
 4666TIP3    H135489   6.374   2.173  11.442  0.6981  0.5692  0.5548
 4666TIP3    H235490   6.245   2.130  11.376  1.3383 -0.3503 -0.1195
 4667TIP3   OH235491   1.862   2.927  15.056 -0.1609 -0.0284 -0.1681
 4667TIP3    H135492   1.824   3.009  15.087 -2.0385 -1.2164  0.7124
 4667TIP3    H235493   1.953   2.930  15.086 -1.2385  0.0107  3.2073
 4668TIP3   OH235494   2.842   0.521   0.306 -0.0690  0.0446  0.2665
 4668TIP3    H135495   2.880   0.604   0.332 -0.5327  0.8424 -1.5200
 4668TIP3    H235496   2.906   0.455   0.333  1.7769  1.2205 -1.1563
 4669TIP3   OH235497   4.164   2.869   4.594 -0.3488  0.1729  0.0115
 4669TIP3    H135498   4.176   2.779   4.626  0.5444  0.1737 -0.3129
 4669TIP3    H235499   4.127   2.916   4.668 -1.2726 -0.5711  0.0405
 4670TIP3   OH235500   4.671   4.882   0.718  0.1208 -0.1783 -0.0536
 4670TIP3    H135501   4.664   4.874   0.623  1.0671  0.1012 -0.1476
 4670TIP3    H235502   4.703   4.971   0.733  0.2100 -0.3036  0.5119
 4671TIP3   OH235503   5.327   5.224   6.004 -0.0322 -0.2006  0.1675
 4671TIP3    H135504   5.399   5.266   5.957 -1.0120  2.2297  0.7666
 4671TIP3    H235505   5.251   5.236   5.947 -0.6897  0.4755  1.1668
 4672TIP3   OH235506   5.073   4.997   3.507 -0.1817  0.4099  0.9020
 4672TIP3    H135507   5.027   4.913   3.499 -0.7384  0.8439 -0.5262
 4672TIP3    H235508   5.162   4.972   3.533  0.0122 -0.7312 -0.7556
 4673TIP3   OH235509   6.636   4.716  10.701 -0.3733 -0.7619 -0.3000
 4673TIP3    H135510   6.552   4.734  10.659  0.0961 -0.6885 -1.2005
 4673TIP3    H235511   6.690   4.792  10.679 -0.0532 -0.8309  0.2427
 4674TIP3   OH235512   5.584   5.610  16.224 -0.0534  0.0545 -0.0504
 4674TIP3    H135513   5.639   5.556  16.282  2.7542  0.2331 -2.4371
 4674TIP3    H235514   5.645   5.672  16.184 -2.1035  0.6886 -2.3149
 4675TIP3   OH235515   5.527   3.452  16.220  0.5335  0.1734 -0.4799
 4675TIP3    H135516   5.604   3.479  16.270  0.0978  0.3120  0.1165
 4675TIP3    H235517   5.518   3.358  16.239 -0.5641  0.5577  0.9715
 4676TIP3   OH235518   1.132   4.542   2.312 -0.0411 -0.3137 -0.5502
 4676TIP3    H135519   1.078   4.618   2.291  1.9113  0.8245 -1.6226
 4676TIP3    H235520   1.095   4.508   2.393 -2.8292 -0.0449 -1.6780
 4677TIP3   OH235521   3.760   5.205   0.846 -0.4571 -0.5782 -0.8462
 4677TIP3    H135522   3.712   5.286   0.829 -0.5221 -0.7700 -1.5833
 4677TIP3    H235523   3.848   5.221   0.813  0.4647  0.3292  1.8999
 4678TIP3   OH235524   3.094   4.132   4.697  0.7209 -0.4159 -0.1557
 4678TIP3    H135525   3.005   4.138   4.730  0.7452  0.4380 -0.2271
 4678TIP3    H235526   3.087   4.150   4.604  1.1070  0.8611  0.0495
 4679TIP3   OH235527   6.037   1.488  16.845  0.6439  0.1839 -0.8149
 4679TIP3    H135528   6.043   1.452  16.934 -1.5668  0.8535 -0.3721
 4679TIP3    H235529   6.124   1.525  16.828  0.9892  0.3306  1.1838
 4680TIP3   OH235530   1.013   6.120  11.386 -0.2657 -0.0046  0.3773
 4680TIP3    H135531   1.047   6.031  11.382 -0.5545 -0.1153  0.3825
 4680TIP3    H235532   0.923   6.113  11.355  1.0905  1.0089 -4.2479
 4681TIP3   OH235533   0.352   2.783  14.463 -0.4416 -0.1861  0.1790
 4681TIP3    H135534   0.304   2.760  14.384  1.4086 -1.2435 -0.6802
 4681TIP3    H235535   0.340   2.878  14.472  0.0624  0.0970 -1.8743
 4682TIP3   OH235536   6.275   2.459  16.208 -0.5668 -0.6588 -0.4710
 4682TIP3    H135537   6.183   2.445  16.229 -0.7465  1.2327  0.0726
 4682TIP3    H235538   6.275   2.485  16.116 -0.5690 -0.6707 -0.4759
 4683TIP3   OH235539   1.570   3.622  14.555 -0.1058  0.2461  0.0771
 4683TIP3    H135540   1.526   3.694  14.510  2.1093  0.1602 -2.3568
 4683TIP3    H235541   1.662   3.631  14.530  0.4426 -2.5911  0.9155
 4684TIP3   OH235542   6.436   1.058  15.561 -0.2713 -0.4001 -0.3907
 4684TIP3    H135543   6.352   1.032  15.599  0.6005 -0.8215  1.2858
 4684TIP3    H235544   6.436   1.018  15.474 -2.2295  0.4618 -0.8295
 4685TIP3   OH235545   0.399   6.688  13.374  0.1361 -0.1866 -0.1258
 4685TIP3    H135546   0.332   6.745  13.411  1.2081  1.1472 -0.1626
 4685TIP3    H235547   0.482   6.724  13.408  0.8199 -1.7839 -0.0919
 4686TIP3   OH235548   5.264   1.660  17.065  0.4634 -0.4129 -0.5437
 4686TIP3    H135549   5.255   1.742  17.114 -0.5627 -1.3374  0.8595
 4686TIP3    H235550   5.175   1.639  17.038  0.9288 -0.3039 -2.1876
 4687TIP3   OH235551   3.125   4.527   2.130  0.3222  0.3159 -0.0986
 4687TIP3    H135552   3.047   4.582   2.122 -0.3602 -0.8126 -1.5247
 4687TIP3    H235553   3.156   4.515   2.041  0.5315 -1.4994  0.1876
 4688TIP3   OH235554   4.559   2.560  11.992 -0.1291 -0.7963  0.2406
 4688TIP3    H135555   4.651   2.535  11.981 -0.0343 -0.1997 -0.3436
 4688TIP3    H235556   4.515   2.525  11.915 -0.5028 -1.5857  0.8061
 4689TIP3   OH235557   4.698   6.564   2.193 -0.1021  0.5251 -0.0422
 4689TIP3    H135558   4.771   6.529   2.142  0.3831 -2.0753  2.3139
 4689TIP3    H235559   4.741   6.616   2.262 -0.3359 -1.6953  1.8594
 4690TIP3   OH235560   2.054   3.272  11.689  0.4892  0.2192 -0.0166
 4690TIP3    H135561   2.136   3.322  11.689  0.8957 -0.4204 -1.7191
 4690TIP3    H235562   2.082   3.181  11.697 -0.1092  0.0696  0.3425
 4691TIP3   OH235563   1.985   0.698  12.986 -0.1957  0.1874 -0.2656
 4691TIP3    H135564   1.898   0.713  12.950 -0.5667 -0.7529  0.2358
 4691TIP3    H235565   2.036   0.774  12.956 -1.3937  1.1721  0.1334
 4692TIP3   OH235566   6.466   1.514  11.395 -0.6071  1.2015  0.1487
 4692TIP3    H135567   6.408   1.459  11.448  1.3680  0.7957  1.9379
 4692TIP3    H235568   6.476   1.594  11.446  1.1653  0.8787  0.3272
 4693TIP3   OH235569   0.186   5.238  15.280  0.1121 -0.4021  0.1561
 4693TIP3    H135570   0.267   5.188  15.289 -0.2529 -1.0356 -0.0764
 4693TIP3    H235571   0.195   5.309  15.344  0.0539 -1.5308  1.4464
 4694TIP3   OH235572   6.432   2.012   5.192  0.3038  0.3842  0.3272
 4694TIP3    H135573   6.513   2.055   5.165  0.2805  0.2025 -0.0379
 4694TIP3    H235574   6.408   1.957   5.117  0.5624 -0.5859  0.9479
 4695TIP3   OH235575   4.194   0.026  17.109  0.1675  0.3140 -0.3240
 4695TIP3    H135576   4.169  -0.037  17.041 -0.1776 -1.2344  1.1717
 4695TIP3    H235577   4.117   0.082  17.119 -0.3662 -0.4202 -0.1804
 4696TIP3   OH235578   5.255   2.033  15.419  0.4387  0.0321  0.5318
 4696TIP3    H135579   5.292   2.121  15.432  2.2208 -0.6338  0.0616
 4696TIP3    H235580   5.225   2.033  15.328  0.4832  0.1227  0.5173
 4697TIP3   OH235581   1.056   2.359  11.320  0.1258  0.3254 -0.1016
 4697TIP3    H135582   1.055   2.348  11.225  1.3521 -1.6911  0.0828
 4697TIP3    H235583   1.129   2.419  11.336 -0.3481  1.0006 -0.4527
 4698TIP3   OH235584   5.182   2.073  11.063  0.4968  0.1406 -0.4342
 4698TIP3    H135585   5.143   2.155  11.033  0.5081 -0.1571 -1.2806
 4698TIP3    H235586   5.121   2.041  11.130 -0.7355 -0.3141 -1.7349
 4699TIP3   OH235587   5.097   3.704  16.406  0.6487 -0.0909  0.5365
 4699TIP3    H135588   5.113   3.756  16.327 -3.1396  0.4530  0.0264
 4699TIP3    H235589   5.058   3.623  16.373 -1.2646  0.2718  1.8446
 4700TIP3   OH235590   5.224   0.134  12.018 -0.1216  0.4657 -0.5209
 4700TIP3    H135591   5.194   0.187  12.092  1.3746  0.6182 -0.0123
 4700TIP3    H235592   5.160   0.151  11.949 -2.2370 -0.6419  1.1211
 4701TIP3   OH235593   5.256   3.240   4.370  0.4063 -0.1732 -0.1116
 4701TIP3    H135594   5.259   3.319   4.316 -0.3311  0.3379  0.5874
 4701TIP3    H235595   5.174   3.247   4.418  1.5378 -0.0997  1.8737
 4702TIP3   OH235596   3.937   3.537   2.077  0.4143 -0.4674 -0.5353
 4702TIP3    H135597   3.959   3.617   2.028  0.2062  0.5878  1.0548
 4702TIP3    H235598   3.902   3.478   2.011  3.1622 -0.2876 -2.2371
 4703TIP3   OH235599   3.217   1.603   4.671 -0.3520 -0.0269  0.1270
 4703TIP3    H135600   3.222   1.511   4.698  1.3947 -0.0071 -0.1069
 4703TIP3    H235601   3.305   1.638   4.686 -0.6734  1.2884 -0.9431
 4704TIP3   OH235602   6.335   1.535  13.121  0.3188  0.4514  0.3547
 4704TIP3    H135603   6.416   1.498  13.085  2.0022  3.3802  1.0219
 4704TIP3    H235604   6.339   1.517  13.214 -0.9895 -1.4892  0.0728
 4705TIP3   OH235605   4.276   3.390   0.291  0.0973  0.0728 -0.5628
 4705TIP3    H135606   4.318   3.339   0.361  0.0465  0.7011 -0.0665
 4705TIP3    H235607   4.267   3.329   0.218  1.3281 -0.2301 -0.4613
 4706TIP3   OH235608   0.521   2.506  13.749 -0.6380  0.0609  0.1984
 4706TIP3    H135609   0.538   2.590  13.707  0.5793  0.2030  0.9345
 4706TIP3    H235610   0.494   2.449  13.678  1.3056  0.3185 -0.7965
 4707TIP3   OH235611   6.700   4.485  14.395 -0.4066 -0.6833  0.5779
 4707TIP3    H135612   6.701   4.498  14.490  0.2480  0.9423  0.3660
 4707TIP3    H235613   6.789   4.455  14.374 -0.2394 -0.0562  0.3638
 4708TIP3   OH235614   0.721   6.236   0.891 -0.3493 -0.3988 -0.6405
 4708TIP3    H135615   0.795   6.215   0.834  0.5107 -0.1964  0.3862
 4708TIP3    H235616   0.646   6.190   0.851  0.6632 -1.9944 -0.7385
 4709TIP3   OH235617   2.870   6.359   3.129  0.5164 -0.2048  0.3302
 4709TIP3    H135618   2.897   6.413   3.055  1.3697  1.0549  1.5356
 4709TIP3    H235619   2.910   6.401   3.205  0.8315 -2.2913  1.3492
 4710TIP3   OH235620   2.730   3.153  13.902 -0.6099  0.6264  0.4867
 4710TIP3    H135621   2.744   3.065  13.938 -3.1612 -0.0135 -0.0240
 4710TIP3    H235622   2.768   3.149  13.814  2.1111  1.0259  1.5786
 4711TIP3   OH235623   0.480   0.838  12.692 -0.2312  0.3377 -0.1072
 4711TIP3    H135624   0.558   0.831  12.638  2.3720 -0.3457  3.5635
 4711TIP3    H235625   0.409   0.809  12.635  2.3515 -0.3807 -3.1022
 4712TIP3   OH235626   3.523   2.027  15.495 -0.1673 -0.6076 -0.1001
 4712TIP3    H135627   3.547   1.941  15.529  0.8882 -1.7714 -3.5005
 4712TIP3    H235628   3.574   2.035  15.413 -2.3071  2.0849 -1.2476
 4713TIP3   OH235629   6.425   3.948   6.434 -0.1045  0.3709 -0.1119
 4713TIP3    H135630   6.410   3.960   6.340 -1.6350  1.8576  0.2957
 4713TIP3    H235631   6.372   4.016   6.475 -0.0094 -0.7227  1.8709
 4714TIP3   OH235632   6.220   6.718  12.050 -0.2709  0.6980 -0.5650
 4714TIP3    H135633   6.241   6.758  12.135 -1.7112 -0.2498  0.2669
 4714TIP3    H235634   6.305   6.688  12.017  0.2103  0.3384  0.9400
 4715TIP3   OH235635   6.201   6.009  10.976 -0.5163  0.1021  0.2735
 4715TIP3    H135636   6.155   6.057  11.045 -0.6981  0.9030 -0.4032
 4715TIP3    H235637   6.231   5.929  11.019 -0.1414  0.8513  1.4205
 4716TIP3   OH235638   0.619   4.759  16.850  0.3808  0.5439  0.3523
 4716TIP3    H135639   0.606   4.783  16.942  1.1239  0.3184  0.5223
 4716TIP3    H235640   0.692   4.814  16.821 -1.1718  2.1263 -0.6999
 4717TIP3   OH235641   4.487   3.730   6.538  0.3371  0.6980  0.1385
 4717TIP3    H135642   4.546   3.753   6.610  0.0312 -1.9675  1.3043
 4717TIP3    H235643   4.531   3.658   6.493 -1.2895 -0.2817  0.0874
 4718TIP3   OH235644   5.679   0.045   4.042 -0.1052 -0.2508  0.0806
 4718TIP3    H135645   5.642   0.015   4.125 -1.5367 -1.1120 -0.8396
 4718TIP3    H235646   5.772   0.027   4.048 -0.1098  0.1738  1.7002
 4719TIP3   OH235647   6.649   3.047   1.405  0.1005  0.2674  0.4327
 4719TIP3    H135648   6.611   3.087   1.327 -0.3326  0.5008  0.7568
 4719TIP3    H235649   6.575   3.039   1.466 -0.2222 -2.7308 -0.2916
 4720TIP3   OH235650   5.874   1.117  15.746  0.2697 -0.8198 -0.2422
 4720TIP3    H135651   5.779   1.117  15.750  0.1657  1.7841 -1.7991
 4720TIP3    H235652   5.896   1.031  15.709 -1.6215 -0.4920 -2.2619
 4721TIP3   OH235653   1.157   0.552   6.321  0.6065  0.1417 -0.0879
 4721TIP3    H135654   1.062   0.553   6.328  0.6383 -0.2916  0.4056
 4721TIP3    H235655   1.185   0.634   6.362  0.3634  0.9638 -1.5401
 4722TIP3   OH235656   0.039   2.861   0.385 -0.2321 -0.4238 -0.3520
 4722TIP3    H135657   0.078   2.784   0.344 -0.6617 -0.2599 -1.0748
 4722TIP3    H235658  -0.054   2.839   0.395 -0.1334 -0.4704  0.5560
 4723TIP3   OH235659   4.063   4.170  11.036  0.2095 -0.2598 -0.0611
 4723TIP3    H135660   4.041   4.219  11.115 -1.3013 -1.1029  0.0451
 4723TIP3    H235661   4.127   4.226  10.990  1.4789  0.0090  1.9757
 4724TIP3   OH235662   3.411   2.730  11.947 -0.1600 -0.1500 -0.8909
 4724TIP3    H135663   3.474   2.667  11.980  0.8844  2.3465  2.0536
 4724TIP3    H235664   3.385   2.695  11.861  1.7441 -3.5613 -0.1571
 4725TIP3   OH235665   5.074   4.334  10.506  0.0683 -0.3542 -0.0759
 4725TIP3    H135666   5.140   4.400  10.528  1.0849 -1.9390  1.8034
 4725TIP3    H235667   5.096   4.258  10.561 -1.6041 -1.9453 -1.5218
 4726TIP3   OH235668   0.547   2.157  11.670 -0.1426  0.3801 -0.2897
 4726TIP3    H135669   0.452   2.147  11.676 -0.2194  1.9939  1.4145
 4726TIP3    H235670   0.561   2.217  11.597 -0.5089  1.1949  0.3052
 4727TIP3   OH235671   2.939   1.712  16.742  0.4759 -0.8501  0.1242
 4727TIP3    H135672   2.906   1.781  16.799 -1.5747 -1.1486 -0.6269
 4727TIP3    H235673   2.983   1.758  16.671 -2.0624 -0.2113 -1.0923
 4728TIP3   OH235674   0.554   0.661  14.066 -0.3528  0.4361  0.3077
 4728TIP3    H135675   0.537   0.700  13.980  0.2283 -0.1843 -0.0871
 4728TIP3    H235676   0.503   0.715  14.126  0.3122  1.7322 -0.2480
 4729TIP3   OH235677   1.980   2.221  15.575 -0.2235  0.3350 -0.1741
 4729TIP3    H135678   2.026   2.147  15.613  2.5191  1.8567 -0.4392
 4729TIP3    H235679   1.970   2.284  15.647 -0.4854  0.6756 -0.5028
 4730TIP3   OH235680   3.199   6.763  11.408  0.4177  0.3418  0.3822
 4730TIP3    H135681   3.244   6.704  11.348 -0.9889  0.7802 -1.1379
 4730TIP3    H235682   3.125   6.797  11.358 -1.6484 -0.3810  2.8199
 4731TIP3   OH235683   0.732   3.074   1.162 -0.3936  0.8800  0.5726
 4731TIP3    H135684   0.753   3.154   1.210  1.4002  1.2366 -0.7511
 4731TIP3    H235685   0.682   3.103   1.086  1.4659  0.9080 -0.6544
 4732TIP3   OH235686   5.359   5.054   1.064 -0.8320 -0.0918  0.1397
 4732TIP3    H135687   5.299   5.087   1.131 -0.7776  0.0154  0.1348
 4732TIP3    H235688   5.355   5.118   0.994  0.6789  0.8693  0.9106
 4733TIP3   OH235689   0.265   1.346   4.716  0.6577 -0.1255  0.1611
 4733TIP3    H135690   0.349   1.392   4.717  1.5623 -1.5236 -3.4218
 4733TIP3    H235691   0.276   1.273   4.776  1.3878  0.6546  0.9968
 4734TIP3   OH235692   2.342   2.839   0.813 -0.2322  0.3830  0.0013
 4734TIP3    H135693   2.321   2.840   0.906 -0.8697  1.1251 -0.1393
 4734TIP3    H235694   2.265   2.878   0.771  0.2676  0.5321 -0.7871
 4735TIP3   OH235695   2.156   5.610   5.687 -0.2713 -0.5928  0.2325
 4735TIP3    H135696   2.250   5.592   5.693 -0.3102 -1.5154 -1.7005
 4735TIP3    H235697   2.145   5.694   5.731  1.6531  0.0885 -0.5509
 4736TIP3   OH235698   4.492   5.016  10.883  0.1535 -0.4303  0.0134
 4736TIP3    H135699   4.403   5.027  10.917 -0.6434  1.0121 -2.4543
 4736TIP3    H235700   4.505   4.921  10.881 -0.7145 -0.6102  1.8872
 4737TIP3   OH235701   4.432   0.989   5.871  0.2023 -0.1823  0.2101
 4737TIP3    H135702   4.379   1.015   5.946  1.0187 -1.0914  1.1261
 4737TIP3    H235703   4.460   0.900   5.891  1.9489  0.2203 -0.2955
 4738TIP3   OH235704   1.718   4.517   2.885  0.6723  0.6786  0.2510
 4738TIP3    H135705   1.704   4.480   2.798  0.3043  3.2199 -0.7902
 4738TIP3    H235706   1.631   4.544   2.914  0.9396  0.7590  0.9859
 4739TIP3   OH235707   0.289   2.012   4.221 -0.0920  0.0937 -0.5055
 4739TIP3    H135708   0.333   1.933   4.252 -0.6528  0.5024  1.4187
 4739TIP3    H235709   0.197   1.989   4.215 -0.7212  1.3755  2.9609
 4740TIP3   OH235710   0.276   4.296   1.348  0.0415  0.3011 -0.0703
 4740TIP3    H135711   0.362   4.253   1.347  0.0383  0.3200 -1.2525
 4740TIP3    H235712   0.297   4.388   1.366  0.2483  0.2662 -0.1254
 4741TIP3   OH235713   1.465   0.905  11.893  0.3615 -0.0137 -0.5551
 4741TIP3    H135714   1.407   0.900  11.968 -0.1283  0.9979 -0.8558
 4741TIP3    H235715   1.407   0.907  11.817  0.6845  2.7648 -0.7810
 4742TIP3   OH235716   6.690   0.813  12.353  0.0059 -0.0867  0.0492
 4742TIP3    H135717   6.776   0.849  12.376  1.4948 -1.5050 -2.9674
 4742TIP3    H235718   6.651   0.878  12.295  0.6009 -1.0634 -1.4648
 4743TIP3   OH235719   5.629   3.648  11.426 -0.0266  0.2261 -0.0128
 4743TIP3    H135720   5.629   3.713  11.356 -0.0686 -1.4214 -1.5873
 4743TIP3    H235721   5.721   3.627  11.440 -0.0599  0.0439 -0.0650
 4744TIP3   OH235722   1.038   5.874  17.001 -0.6572 -0.1826 -0.3299
 4744TIP3    H135723   0.981   5.939  16.959  0.1706  0.0224 -1.1486
 4744TIP3    H235724   1.051   5.807  16.934  0.9824  0.3388 -0.5639
 4745TIP3   OH235725   3.933   5.448  10.658 -0.6779 -0.4507  0.1042
 4745TIP3    H135726   3.952   5.403  10.740 -0.7770 -1.5759 -0.4825
 4745TIP3    H235727   3.838   5.447  10.651 -0.6110 -3.6683 -1.7889
 4746TIP3   OH235728   2.637   1.476  12.388 -0.0357  0.1774  0.1050
 4746TIP3    H135729   2.582   1.551  12.368 -2.4522 -1.4492  0.3886
 4746TIP3    H235730   2.648   1.478  12.483  1.3527  1.1055 -0.0546
 4747TIP3   OH235731   0.279   3.923   1.587 -0.2950 -0.9174 -0.1691
 4747TIP3    H135732   0.292   3.933   1.493  0.8258 -0.2257  0.0454
 4747TIP3    H235733   0.218   3.993   1.611  2.2921  1.2882  0.2097
 4748TIP3   OH235734   0.248   5.810  10.711 -0.3776  0.7283  0.3040
 4748TIP3    H135735   0.337   5.791  10.739 -0.7873 -0.1660  1.0081
 4748TIP3    H235736   0.252   5.804  10.615 -0.2604 -2.0180  0.4223
 4749TIP3   OH235737   3.672   5.419  14.139  0.0339  0.1520 -0.2984
 4749TIP3    H135738   3.735   5.432  14.068 -0.2179  2.3681 -0.1635
 4749TIP3    H235739   3.722   5.432  14.219 -0.1404 -0.1909 -0.1336
 4750TIP3   OH235740   0.346   0.526  15.550  0.3044 -0.0932  0.1290
 4750TIP3    H135741   0.357   0.539  15.644  1.2537  1.6393 -0.1941
 4750TIP3    H235742   0.417   0.468  15.525  0.0920 -0.4994  0.4751
 4751TIP3   OH235743   4.409   3.603   1.268  0.4804  0.3517  0.5349
 4751TIP3    H135744   4.419   3.572   1.358  1.1433 -1.2819 -0.0932
 4751TIP3    H235745   4.400   3.524   1.216 -0.3507  1.3074 -0.7927
 4752TIP3   OH235746   3.462   3.853   3.254  0.0147 -0.2548 -0.7538
 4752TIP3    H135747   3.547   3.884   3.224  0.4333  0.6983  1.3428
 4752TIP3    H235748   3.477   3.762   3.280  0.4757 -0.0105 -0.1393
 4753TIP3   OH235749   4.776   0.230  10.686  0.7057 -0.1923  1.0455
 4753TIP3    H135750   4.706   0.171  10.657  1.2533 -0.0306 -0.6633
 4753TIP3    H235751   4.734   0.316  10.693  1.1953  0.3617 -2.1719
 4754TIP3   OH235752   3.540   0.967   4.990 -0.0627 -0.3439  0.1532
 4754TIP3    H135753   3.552   0.912   4.912  0.4376 -0.5291  0.3602
 4754TIP3    H235754   3.497   0.910   5.054  1.4602 -0.8341  0.7564
 4755TIP3   OH235755   4.129   6.471  14.363 -0.1649  0.0779 -0.1194
 4755TIP3    H135756   4.158   6.387  14.327  0.0753  1.4212 -3.1805
 4755TIP3    H235757   4.162   6.536  14.302 -1.6998  2.3153  1.3655
 4756TIP3   OH235758   3.577   3.420   2.417 -0.1527  0.6752  0.6258
 4756TIP3    H135759   3.508   3.397   2.479 -1.5556  0.6229 -0.8941
 4756TIP3    H235760   3.656   3.429   2.470 -1.0595 -0.5635  2.2279
 4757TIP3   OH235761   0.993   4.851  11.807  0.2672 -0.4810  0.1990
 4757TIP3    H135762   1.022   4.902  11.731  0.0158 -0.5353  0.0649
 4757TIP3    H235763   0.907   4.817  11.781 -0.1368  0.0858  0.7874
 4758TIP3   OH235764   3.314   4.646   4.709 -0.5723  0.5372 -0.3413
 4758TIP3    H135765   3.220   4.634   4.718 -0.3416 -0.8089  0.3886
 4758TIP3    H235766   3.348   4.632   4.798  0.2997  1.1365 -0.5756
 4759TIP3   OH235767   6.346   5.861   3.543  0.4477  0.4020  0.9381
 4759TIP3    H135768   6.408   5.867   3.470  0.5128  3.2235  1.1681
 4759TIP3    H235769   6.262   5.844   3.501  0.8088 -0.0708  0.3863
 4760TIP3   OH235770   3.154   3.364   4.526 -0.2420 -0.0561 -0.4736
 4760TIP3    H135771   3.139   3.455   4.554 -0.1681 -0.3121  0.4124
 4760TIP3    H235772   3.069   3.322   4.537 -0.2943 -0.0776 -0.9550
 4761TIP3   OH235773   2.671   4.261  15.861 -0.4685 -0.3932  0.3104
 4761TIP3    H135774   2.596   4.290  15.809  1.2909  0.9293 -1.5462
 4761TIP3    H235775   2.651   4.169  15.881 -2.5885 -0.0590 -0.0949
 4762TIP3   OH235776   2.204   6.784   1.342  0.1734  0.3448  0.1041
 4762TIP3    H135777   2.216   6.858   1.283  0.0134  0.6024  0.3948
 4762TIP3    H235778   2.158   6.718   1.289 -1.2322  1.1102  0.3358
 4763TIP3   OH235779   4.421   4.011   4.653 -0.1339 -0.2622  0.4263
 4763TIP3    H135780   4.469   4.085   4.689 -1.0929  0.3528  0.4623
 4763TIP3    H235781   4.331   4.042   4.645 -0.1229 -0.6717 -1.6339
 4764TIP3   OH235782   6.348   4.204  16.335 -0.3248 -0.1086 -0.4685
 4764TIP3    H135783   6.350   4.125  16.281  1.8229 -0.5698  0.2286
 4764TIP3    H235784   6.423   4.256  16.304  1.7105 -0.9345  2.7979
 4765TIP3   OH235785   4.590   3.307  15.530 -0.7660 -0.1873  0.1658
 4765TIP3    H135786   4.603   3.243  15.600  1.4644  0.9835  0.8466
 4765TIP3    H235787   4.510   3.278  15.486 -1.4230 -1.7369  2.3129
 4766TIP3   OH235788   4.653   0.743  12.863  0.7278 -0.2748 -0.0293
 4766TIP3    H135789   4.625   0.785  12.781 -2.4564 -0.8839  0.6643
 4766TIP3    H235790   4.723   0.798  12.896  0.0801  1.6216 -1.7170
 4767TIP3   OH235791   6.320   1.903  15.095  0.2080  0.5518 -0.3531
 4767TIP3    H135792   6.234   1.881  15.132  0.6603 -0.1757  0.2583
 4767TIP3    H235793   6.313   1.875  15.003 -0.1926  0.4474 -0.2949
 4768TIP3   OH235794   3.228   2.857   3.797 -0.2820 -0.2466  0.4007
 4768TIP3    H135795   3.297   2.816   3.850  0.2012 -0.3907 -0.3388
 4768TIP3    H235796   3.161   2.789   3.790 -0.1386 -0.3922  0.4326
 4769TIP3   OH235797   3.021   5.912   1.356 -0.6090  0.1373 -0.1782
 4769TIP3    H135798   2.950   5.970   1.329 -1.3106 -0.7040 -0.1963
 4769TIP3    H235799   3.057   5.877   1.274 -2.3645 -1.9777 -0.1071
 4770TIP3   OH235800   3.089   3.563   2.919  0.1094 -0.3134  0.1848
 4770TIP3    H135801   3.050   3.517   2.994  0.2673 -0.0841  0.4093
 4770TIP3    H235802   3.045   3.648   2.918 -0.7564 -0.7630 -0.7132
 4771TIP3   OH235803   2.550   6.698  10.939  0.1047 -0.1072  0.2832
 4771TIP3    H135804   2.626   6.748  10.967 -0.5770  0.6457  0.8238
 4771TIP3    H235805   2.556   6.695  10.844  1.5561 -1.2613  0.3920
 4772TIP3   OH235806   0.435   5.189  10.873 -0.8436 -0.0177  0.0852
 4772TIP3    H135807   0.375   5.252  10.914 -0.1837 -0.1496  1.2743
 4772TIP3    H235808   0.466   5.136  10.946  0.1264 -0.4482 -0.6460
 4773TIP3   OH235809   6.290   6.427   0.849  0.4160 -0.6030  0.0106
 4773TIP3    H135810   6.280   6.447   0.756  2.1726  1.7991  0.2922
 4773TIP3    H235811   6.246   6.499   0.895  0.4388 -1.2306  1.0475
 4774TIP3   OH235812   4.743   2.462   2.505 -0.2112  0.5721 -0.0772
 4774TIP3    H135813   4.799   2.473   2.428 -0.9071  0.3520 -0.6188
 4774TIP3    H235814   4.802   2.478   2.579  0.1206  2.3230 -0.6857
 4775TIP3   OH235815   1.469   5.104   4.158 -0.2116 -0.8036 -0.2403
 4775TIP3    H135816   1.441   5.108   4.067 -0.2891 -0.5386 -0.2046
 4775TIP3    H235817   1.415   5.035   4.196 -1.8414  0.6609  0.1747
 4776TIP3   OH235818   2.530   0.223   4.837  0.1799  0.4739 -0.1190
 4776TIP3    H135819   2.464   0.225   4.906  0.8158 -0.8899  0.5516
 4776TIP3    H235820   2.612   0.204   4.883  0.2742 -2.8157 -1.4514
 4777TIP3   OH235821   0.286   6.145   3.661 -0.2321 -0.0327  0.6425
 4777TIP3    H135822   0.302   6.080   3.729 -0.3973 -0.0866  0.6311
 4777TIP3    H235823   0.363   6.202   3.663  1.0313 -1.6359 -0.9670
 4778TIP3   OH235824   5.262   3.787  17.208 -0.6266 -0.3035  0.3157
 4778TIP3    H135825   5.352   3.807  17.183 -0.4165 -1.3721  0.2319
 4778TIP3    H235826   5.269   3.746  17.294 -1.1022  0.3409  0.6769
 4779TIP3   OH235827   2.996   4.807  16.079  0.1820  0.2527 -0.1042
 4779TIP3    H135828   2.909   4.827  16.114 -0.1086 -0.6030 -0.3333
 4779TIP3    H235829   3.047   4.782  16.156 -0.0003 -0.0387 -0.0799
 4780TIP3   OH235830   5.270   4.094  11.257  0.4481 -0.6063 -0.4757
 4780TIP3    H135831   5.354   4.067  11.221  0.1921 -1.0788 -0.7301
 4780TIP3    H235832   5.276   4.073  11.350  1.7767  2.2582  0.1205
 4781TIP3   OH235833   4.598   0.365  16.422  0.1534 -0.1876 -0.0337
 4781TIP3    H135834   4.536   0.298  16.451  0.0087 -1.0454 -2.1798
 4781TIP3    H235835   4.543   0.437  16.391  0.1799 -0.9078 -1.8431
 4782TIP3   OH235836   1.138   6.559   3.547 -0.0666 -0.6555  0.4670
 4782TIP3    H135837   1.076   6.504   3.593  0.3172 -0.6394  1.0127
 4782TIP3    H235838   1.164   6.509   3.470  1.5436 -1.9658  1.8212
 4783TIP3   OH235839   1.944   2.986  16.739  0.1065  0.3232 -0.1866
 4783TIP3    H135840   1.982   3.059  16.789 -1.9950  1.6252 -0.4546
 4783TIP3    H235841   1.933   3.021  16.651  0.3279 -0.7819 -0.6608
 4784TIP3   OH235842   6.727   5.878   1.257  0.3736  0.0118 -0.0970
 4784TIP3    H135843   6.796   5.922   1.307  0.7813 -0.3745 -0.3157
 4784TIP3    H235844   6.748   5.785   1.264 -1.2900 -0.2724  1.5816
 4785TIP3   OH235845   6.250   5.805   3.072  0.0254  0.2349  0.4923
 4785TIP3    H135846   6.229   5.729   3.018 -0.6873  0.3284  0.6412
 4785TIP3    H235847   6.345   5.816   3.061 -0.1508  0.4194 -0.9446
 4786TIP3   OH235848   2.354   0.216  12.338 -0.0884 -0.1378  0.1957
 4786TIP3    H135849   2.307   0.234  12.419  2.0441  0.4821  1.3426
 4786TIP3    H235850   2.372   0.122  12.340 -0.2985 -0.1752  0.2954
 4787TIP3   OH235851   6.582   6.676   2.532  0.2271  0.2170 -0.3703
 4787TIP3    H135852   6.676   6.682   2.518  0.2443  0.2811 -0.2268
 4787TIP3    H235853   6.553   6.767   2.538  0.4465  0.1800  1.5211
 4788TIP3   OH235854   5.695   1.701   3.922 -0.2349 -0.0847 -0.1862
 4788TIP3    H135855   5.714   1.773   3.983  2.7218 -2.1755  1.4989
 4788TIP3    H235856   5.732   1.730   3.839 -0.1575  0.8641  0.1659
 4789TIP3   OH235857   5.869   1.589   5.607  0.2138  0.0783 -0.1120
 4789TIP3    H135858   5.942   1.542   5.567 -0.5548 -0.1989 -1.2268
 4789TIP3    H235859   5.894   1.599   5.699  1.8397  0.3721 -0.5669
 4790TIP3   OH235860   6.200   3.600  16.624 -0.4949  0.1486  0.4563
 4790TIP3    H135861   6.193   3.694  16.607 -1.1978 -0.2161 -1.4476
 4790TIP3    H235862   6.110   3.571  16.638 -0.3331 -0.3234  0.5136
 4791TIP3   OH235863   2.861   0.185  14.448 -0.1857 -0.6768  0.0195
 4791TIP3    H135864   2.833   0.185  14.539  1.9434  0.3247  0.7058
 4791TIP3    H235865   2.909   0.267  14.437 -0.5298 -0.7111 -2.0489
 4792TIP3   OH235866   2.003   4.803   0.511  0.2588 -0.3203  0.1144
 4792TIP3    H135867   1.983   4.815   0.419 -1.8733 -0.1966  0.5744
 4792TIP3    H235868   2.053   4.721   0.514 -0.3403 -0.7345 -1.0515
 4793TIP3   OH235869   1.735   1.431  15.457  0.0468  0.2486  0.1984
 4793TIP3    H135870   1.672   1.504  15.461  1.3953  1.4891 -0.7077
 4793TIP3    H235871   1.688   1.362  15.411 -1.5553  0.2110  1.8058
 4794TIP3   OH235872   0.258   3.492  14.539 -0.2901  0.6108  0.1240
 4794TIP3    H135873   0.289   3.424  14.479  2.9797  0.3693  1.9656
 4794TIP3    H235874   0.317   3.565  14.525 -1.3504  1.6402  0.9697
 4795TIP3   OH235875   2.668   1.916  12.800 -0.1628  0.2360 -0.1024
 4795TIP3    H135876   2.650   1.969  12.722  0.1932  0.9400  0.2891
 4795TIP3    H235877   2.590   1.929  12.855 -0.9459 -1.2115 -0.8537
 4796TIP3   OH235878   0.605   2.022  13.186  0.1418  0.2900  0.0481
 4796TIP3    H135879   0.651   2.034  13.102 -0.5041  0.9490 -0.2112
 4796TIP3    H235880   0.625   2.101  13.236 -0.9229  0.6978 -0.1651
 4797TIP3   OH235881   0.275   5.168   1.466  0.5526  0.1695  0.4378
 4797TIP3    H135882   0.194   5.153   1.418 -0.2603  0.5192  1.6885
 4797TIP3    H235883   0.257   5.242   1.523  2.5105  1.7927 -0.9654
 4798TIP3   OH235884   0.552   0.660   1.465  0.4047 -0.2305 -0.0882
 4798TIP3    H135885   0.484   0.658   1.532  0.9928 -1.2822  0.4853
 4798TIP3    H235886   0.506   0.686   1.385 -0.3784  0.5887  0.6223
 4799TIP3   OH235887   5.819   3.755  14.157  1.0452  0.1958 -0.1745
 4799TIP3    H135888   5.784   3.688  14.097 -1.7131  2.3109 -1.0302
 4799TIP3    H235889   5.891   3.794  14.108 -0.0581  0.6981 -1.4560
 4800TIP3   OH235890   0.654   1.794  16.426  0.1222  0.4081  0.2170
 4800TIP3    H135891   0.722   1.764  16.366 -0.1914  1.6896 -0.7897
 4800TIP3    H235892   0.605   1.860  16.377 -1.6206 -0.2290  1.0663
 4801TIP3   OH235893   4.699   0.958   4.231 -0.4384  0.2161 -0.0840
 4801TIP3    H135894   4.732   1.020   4.166  1.0385 -1.2829 -0.8267
 4801TIP3    H235895   4.689   0.876   4.182  2.2262 -1.3796  1.8928
 4802TIP3   OH235896   1.350   4.520  10.692 -0.2243 -0.0425  0.0533
 4802TIP3    H135897   1.435   4.564  10.689 -1.0485  1.6599  0.7989
 4802TIP3    H235898   1.338   4.499  10.785  0.7650 -3.1243 -0.4746
 4803TIP3   OH235899   1.616   4.903  16.894 -0.8119 -0.2056  0.7389
 4803TIP3    H135900   1.683   4.868  16.952 -1.5863 -1.8222  0.6799
 4803TIP3    H235901   1.662   4.922  16.812 -0.4545 -1.4204  0.6549
 4804TIP3   OH235902   5.470   4.188   2.928 -0.0693 -0.0988  0.1395
 4804TIP3    H135903   5.493   4.274   2.962 -0.4088 -0.3377  0.9826
 4804TIP3    H235904   5.522   4.127   2.979  0.5257 -0.3718 -0.7818
 4805TIP3   OH235905   2.253   1.512  16.894  0.5601  0.5926  0.4574
 4805TIP3    H135906   2.281   1.560  16.817 -1.8458  0.4969 -0.5120
 4805TIP3    H235907   2.162   1.488  16.876  0.7037 -1.5043  2.2967
 4806TIP3   OH235908   1.304   1.077   1.399  0.1524 -0.2695  0.6105
 4806TIP3    H135909   1.381   1.134   1.395 -1.2856  1.6450 -0.2462
 4806TIP3    H235910   1.241   1.125   1.452 -1.7759 -0.2122 -1.6771
 4807TIP3   OH235911   5.172   2.786   4.173  0.2443 -0.9464 -0.4902
 4807TIP3    H135912   5.211   2.699   4.178 -0.8465 -1.4489 -0.5024
 4807TIP3    H235913   5.088   2.777   4.219  0.9518  0.5688  1.1780
 4808TIP3   OH235914   3.707   4.342   5.965  0.1558  0.0343  0.0907
 4808TIP3    H135915   3.645   4.269   5.977 -0.4221  0.7515  1.6722
 4808TIP3    H235916   3.726   4.372   6.054  1.4458  0.9522 -0.4731
 4809TIP3   OH235917   4.256   5.765  12.008  0.6915  0.1010 -0.4654
 4809TIP3    H135918   4.325   5.807  11.956  0.8058 -1.2391 -1.4127
 4809TIP3    H235919   4.224   5.694  11.953  0.9789 -1.5062  1.3854
 4810TIP3   OH235920   1.613   2.688   1.867  0.1442  0.3036 -0.4843
 4810TIP3    H135921   1.681   2.651   1.924 -1.4346 -1.2674  0.4204
 4810TIP3    H235922   1.535   2.692   1.922 -0.8333  0.8845 -1.8932
 4811TIP3   OH235923   0.688   3.001  10.884  0.3767 -0.0627  0.2659
 4811TIP3    H135924   0.663   3.032  10.797  0.2763  0.4556  0.4793
 4811TIP3    H235925   0.774   2.960  10.870 -0.0130 -0.7224 -0.2271
 4812TIP3   OH235926   3.846   1.434  15.725  0.3449 -0.6403  0.0431
 4812TIP3    H135927   3.863   1.484  15.804 -2.8741 -0.2575  0.5490
 4812TIP3    H235928   3.850   1.343  15.753  2.2985 -0.6108 -0.0536
 4813TIP3   OH235929   0.767   6.684   4.585  0.2466  0.1226  0.2889
 4813TIP3    H135930   0.812   6.600   4.598 -0.5866 -0.4683 -0.5956
 4813TIP3    H235931   0.693   6.679   4.645 -1.3567 -0.9437 -1.7167
 4814TIP3   OH235932   5.315   0.818   2.850 -0.1047 -0.3881  0.3028
 4814TIP3    H135933   5.301   0.800   2.943  0.4641 -1.9192  0.1175
 4814TIP3    H235934   5.405   0.849   2.845 -0.5194  0.8272  0.4069
 4815TIP3   OH235935   5.148   0.757   3.742  0.3854  0.0658 -0.4077
 4815TIP3    H135936   5.196   0.824   3.695  1.4806 -1.0293 -0.8890
 4815TIP3    H235937   5.202   0.739   3.819 -0.3141  0.3142  0.1472
 4816TIP3   OH235938   0.379   2.227   0.173  0.4014  0.1197 -0.0084
 4816TIP3    H135939   0.474   2.226   0.167  0.5463  3.4003  0.5616
 4816TIP3    H235940   0.360   2.204   0.263  0.6996  0.0079  0.0255
 4817TIP3   OH235941   4.204   4.237  13.996 -0.4247  0.0645 -0.2400
 4817TIP3    H135942   4.235   4.171  14.058  0.1425  0.0377 -0.5526
 4817TIP3    H235943   4.208   4.195  13.911  0.8668  0.8138 -0.5661
 4818TIP3   OH235944   3.463   5.212   3.761  0.0845  0.3146  0.4684
 4818TIP3    H135945   3.474   5.283   3.824  0.4150  1.3891 -0.7812
 4818TIP3    H235946   3.471   5.132   3.813  2.1246  1.1637  1.5034
 4819TIP3   OH235947   0.652   1.275  10.937  0.3224  0.5289 -0.7795
 4819TIP3    H135948   0.574   1.246  10.985  0.5472  1.1987 -0.0154
 4819TIP3    H235949   0.621   1.346  10.881  0.1879  0.1536 -1.1850
 4820TIP3   OH235950   6.056   1.149  12.290  0.3608 -0.7783  0.3092
 4820TIP3    H135951   6.032   1.134  12.382  1.8879 -1.2481  0.6432
 4820TIP3    H235952   6.074   1.062  12.255  0.4594 -0.5354 -0.2532
 4821TIP3   OH235953   1.561   1.017  13.635  0.1315  0.3243  0.4608
 4821TIP3    H135954   1.639   1.072  13.631 -0.3618  0.9340 -1.6283
 4821TIP3    H235955   1.581   0.942  13.578 -0.6708  0.3369  0.1472
 4822TIP3   OH235956   1.731   3.469  10.401 -0.2470  0.3607  0.4142
 4822TIP3    H135957   1.687   3.397  10.445  0.8829 -1.4927 -1.3871
 4822TIP3    H235958   1.821   3.466  10.434 -0.5266  1.8776  1.3917
 4823TIP3   OH235959   0.176   0.793   5.802 -0.3562 -0.3418  0.1405
 4823TIP3    H135960   0.113   0.731   5.841 -1.8717  1.1430  0.1015
 4823TIP3    H235961   0.143   0.807   5.713  0.0896  0.3907  0.0934
 4824TIP3   OH235962   4.555   1.604   3.468 -0.5135 -0.0348  0.4550
 4824TIP3    H135963   4.576   1.511   3.461 -0.5214 -0.1709  2.1661
 4824TIP3    H235964   4.537   1.631   3.378  1.3292 -1.2487 -0.3011
 4825TIP3   OH235965   3.459   6.386   3.366  0.2398  0.1919 -0.0739
 4825TIP3    H135966   3.539   6.340   3.339 -0.3951 -1.2736  0.5449
 4825TIP3    H235967   3.401   6.380   3.290  0.7306  1.3482 -0.5626
 4826TIP3   OH235968   1.997   4.104  16.008  0.6363 -0.5385  0.6640
 4826TIP3    H135969   1.943   4.177  16.038  4.3674  2.3658  0.6536
 4826TIP3    H235970   1.989   4.106  15.912 -1.1460 -1.7132  0.7630
 4827TIP3   OH235971   6.503   0.171  16.376 -0.4815  0.0211  0.4794
 4827TIP3    H135972   6.467   0.110  16.312 -0.3866 -2.0338  2.3245
 4827TIP3    H235973   6.587   0.199  16.339 -1.3592  0.4745 -1.2192
 4828TIP3   OH235974   2.869   3.346  11.050  0.0351  0.2367 -0.1576
 4828TIP3    H135975   2.786   3.395  11.046  0.7280  1.4954  0.4255
 4828TIP3    H235976   2.844   3.260  11.083 -1.2007  0.2402 -1.0571
 4829TIP3   OH235977   0.670   1.200   3.070  0.2358 -0.7310  0.3583
 4829TIP3    H135978   0.667   1.183   2.975  0.0883 -1.0434  0.4200
 4829TIP3    H235979   0.583   1.233   3.091  0.3145 -0.5254  0.3586
 4830TIP3   OH235980   4.256   2.339   4.992  0.4663  0.0418 -0.3994
 4830TIP3    H135981   4.204   2.411   5.029  1.1560  0.2309  0.2068
 4830TIP3    H235982   4.293   2.294   5.068  1.8187  0.3774 -0.8446
 4831TIP3   OH235983   4.208   6.434  15.579 -0.0497  0.0234 -0.0465
 4831TIP3    H135984   4.250   6.503  15.528  1.3441  0.4383  1.6353
 4831TIP3    H235985   4.279   6.396  15.631 -1.1491 -1.4763  0.3919
 4832TIP3   OH235986   3.355   2.860  14.623 -0.0980  0.0414  0.5546
 4832TIP3    H135987   3.350   2.856  14.718 -1.2566  0.6393  0.5240
 4832TIP3    H235988   3.412   2.934  14.604  0.6758 -0.4968  0.7935
 4833TIP3   OH235989   4.938   0.617  16.061  0.1119 -0.0833 -0.4388
 4833TIP3    H135990   4.884   0.674  16.116  0.4267 -1.3942  1.2917
 4833TIP3    H235991   4.883   0.540  16.044 -0.1070  0.4661 -2.2780
 4834TIP3   OH235992   1.778   4.827   2.154 -0.2825  0.2660  0.6128
 4834TIP3    H135993   1.810   4.791   2.072  1.2212 -1.1693  1.7844
 4834TIP3    H235994   1.784   4.922   2.143  0.2931  0.0792 -0.7682
 4835TIP3   OH235995   4.678   4.093   5.870  0.3278 -0.4207  0.1349
 4835TIP3    H135996   4.732   4.018   5.891 -0.3913 -1.6611 -2.2825
 4835TIP3    H235997   4.680   4.099   5.774 -0.3999  2.0524  0.2256
 4836TIP3   OH235998   4.845   6.157   6.821  0.0403  0.4576 -0.2044
 4836TIP3    H135999   4.852   6.159   6.725 -2.1070  0.8006 -0.3816
 4836TIP3    H236000   4.933   6.178   6.852  0.8256  0.0540 -2.1036
 4837TIP3   OH236001   3.912   4.900   5.430  0.6680 -0.2496 -0.1473
 4837TIP3    H136002   3.904   4.831   5.496  0.1878 -1.2831 -1.2613
 4837TIP3    H236003   3.995   4.880   5.386  0.2622 -0.4491 -0.8314
 4838TIP3   OH236004   4.694   2.188   2.892 -0.2468 -0.3209  0.2323
 4838TIP3    H136005   4.635   2.215   2.821 -1.7139 -0.1079  1.5000
 4838TIP3    H236006   4.776   2.234   2.873 -0.9014  0.4472 -0.8271
 4839TIP3   OH236007   3.827   0.225   5.313  0.2400 -0.2593  0.1938
 4839TIP3    H136008   3.863   0.314   5.314  0.5388 -0.3821  0.2917
 4839TIP3    H236009   3.807   0.209   5.221 -0.2444  0.0814  0.2328
 4840TIP3   OH236010   1.464   2.060  14.278 -0.1463 -0.2664  0.0422
 4840TIP3    H136011   1.517   2.032  14.203  1.9915 -1.3807  1.9054
 4840TIP3    H236012   1.526   2.100  14.339 -2.1335  2.3432  0.4558
 4841TIP3   OH236013   3.362   5.669   2.128 -0.2571 -0.0725  0.2991
 4841TIP3    H136014   3.318   5.585   2.124  0.4657 -0.3318 -3.4544
 4841TIP3    H236015   3.455   5.647   2.129 -0.0455  0.6717 -1.6608
 4842TIP3   OH236016   6.635   6.160  11.443 -0.5223 -0.3161  0.1433
 4842TIP3    H136017   6.588   6.111  11.376 -2.4854  0.6813  0.7590
 4842TIP3    H236018   6.628   6.252  11.415  0.4544 -0.0824  0.6273
 4843TIP3   OH236019   4.289   2.667  11.614  0.2679  0.0222  0.2943
 4843TIP3    H136020   4.360   2.729  11.633 -0.7551  0.6373  2.2667
 4843TIP3    H236021   4.214   2.723  11.594 -0.2064 -0.6089  0.3081
 4844TIP3   OH236022   3.881   3.022  15.559  0.1505 -0.3520 -0.1178
 4844TIP3    H136023   3.819   2.956  15.528  0.6753  0.1899 -2.4805
 4844TIP3    H236024   3.827   3.097  15.582 -0.2325 -0.6064 -0.1792
 4845TIP3   OH236025   1.826   2.095  16.669 -0.2225 -0.2987 -0.0547
 4845TIP3    H136026   1.811   2.010  16.627 -0.1464 -0.8850  1.1073
 4845TIP3    H236027   1.774   2.156  16.616 -0.4711 -1.0956 -0.7540
 4846TIP3   OH236028   1.428   1.569   5.429  0.2365  0.1823 -0.3919
 4846TIP3    H136029   1.400   1.535   5.344  0.1279  1.0120 -0.6873
 4846TIP3    H236030   1.431   1.664   5.418 -1.2040  0.4050  0.9738
 4847TIP3   OH236031   2.873   3.126   0.142 -0.5795  0.1891 -0.3543
 4847TIP3    H136032   2.929   3.049   0.137  1.1548  1.5581 -2.8995
 4847TIP3    H236033   2.833   3.132   0.055 -1.4087  1.6605  0.1130
 4848TIP3   OH236034   1.800   1.875  15.272 -0.0529 -0.0688 -0.8174
 4848TIP3    H136035   1.835   1.787  15.281 -1.0889 -0.5749 -1.6887
 4848TIP3    H236036   1.719   1.864  15.222 -1.1125  1.1528  0.5740
 4849TIP3   OH236037   5.234   0.836   1.525 -0.2426 -0.6351  0.2388
 4849TIP3    H136038   5.305   0.866   1.583 -1.0595  0.9302  0.4654
 4849TIP3    H236039   5.209   0.750   1.560  0.2575 -0.3521  1.3370
 4850TIP3   OH236040   0.878   0.557   1.167 -0.2550  0.2595  0.1140
 4850TIP3    H136041   0.853   0.638   1.211 -0.1494 -0.5120  1.6198
 4850TIP3    H236042   0.968   0.541   1.195 -1.0073 -1.5563  1.6792
 4851TIP3   OH236043   3.359   6.453   5.085  0.4438  1.0359  0.2626
 4851TIP3    H136044   3.438   6.403   5.065  1.6495  2.3624  1.5802
 4851TIP3    H236045   3.386   6.515   5.153 -1.4440  2.2945 -0.0850
 4852TIP3   OH236046   2.157   0.193   5.446 -0.2504  0.4519 -0.9577
 4852TIP3    H136047   2.087   0.143   5.406 -1.1988  0.3895  0.7376
 4852TIP3    H236048   2.211   0.127   5.490 -0.7121  0.7659  0.0930
 4853TIP3   OH236049   3.972   3.406   5.349  1.3459 -0.1145 -0.1173
 4853TIP3    H136050   3.891   3.379   5.393  2.2058 -0.0158  1.5540
 4853TIP3    H236051   3.947   3.416   5.257 -0.0953 -1.9533  0.0520
 4854TIP3   OH236052   4.069   3.187   5.683 -0.1585 -0.2489 -0.1399
 4854TIP3    H136053   4.107   3.241   5.753 -0.6959 -0.1628  0.0855
 4854TIP3    H236054   3.985   3.159   5.718 -0.3800 -0.2956 -0.7149
 4855TIP3   OH236055   5.448   6.518  13.333  0.3506  0.4627  0.7683
 4855TIP3    H136056   5.353   6.527  13.341  0.2502  0.6904 -0.5646
 4855TIP3    H236057   5.482   6.541  13.420 -0.7446  1.4730  0.9464
 4856TIP3   OH236058   4.048   4.925   4.053  0.4628  0.2288  0.1085
 4856TIP3    H136059   4.027   4.845   4.004  0.3244 -0.4900  1.3097
 4856TIP3    H236060   4.132   4.907   4.094  0.3083  0.5913  0.6004
 4857TIP3   OH236061   5.818   3.887  10.756 -0.2108  0.1806  0.0863
 4857TIP3    H136062   5.755   3.901  10.686 -0.8131  2.4500  1.0588
 4857TIP3    H236063   5.843   3.795  10.747 -1.6940 -0.0614 -1.9086
 4858TIP3   OH236064   0.866   0.052  16.143  0.1614 -0.0069  0.0157
 4858TIP3    H136065   0.878   0.072  16.235 -1.5441  1.6799 -0.0930
 4858TIP3    H236066   0.929   0.108  16.097 -0.9219  1.2100  0.0096
 4859TIP3   OH236067   2.574   1.894  15.651 -0.2878 -0.0109  0.9078
 4859TIP3    H136068   2.510   1.909  15.721 -1.6594 -0.7786 -0.1521
 4859TIP3    H236069   2.657   1.881  15.697 -0.6021  2.4142  2.2392
 4860TIP3   OH236070   4.718   5.990  12.306 -0.2480 -0.0714 -0.1604
 4860TIP3    H136071   4.775   6.055  12.265 -2.3282  2.3159  0.5384
 4860TIP3    H236072   4.776   5.937  12.360  1.5403  1.1725 -0.8261
 4861TIP3   OH236073   3.424   5.100  15.298  0.2196 -0.1556  0.0230
 4861TIP3    H136074   3.416   5.176  15.240  2.5440 -0.6783 -1.0218
 4861TIP3    H236075   3.382   5.128  15.380 -2.1597  0.9560 -1.5335
 4862TIP3   OH236076   2.142   0.848  16.360 -0.1229  0.1259 -0.0874
 4862TIP3    H136077   2.129   0.755  16.377  1.3703  0.1111  1.0815
 4862TIP3    H236078   2.197   0.878  16.433 -0.6110  1.9224 -0.4322
 4863TIP3   OH236079   3.600   1.348  13.802  0.1012  0.1904  0.1566
 4863TIP3    H136080   3.596   1.342  13.897 -0.6109 -1.2289  0.0589
 4863TIP3    H236081   3.509   1.336  13.774  0.0329  2.3518 -0.6292
 4864TIP3   OH236082   0.777   0.369  14.913 -0.1486  0.0509  1.0016
 4864TIP3    H136083   0.706   0.306  14.924 -0.6674  0.5518  0.5748
 4864TIP3    H236084   0.800   0.395  15.003 -1.7580  1.2588  1.0807
 4865TIP3   OH236085   6.239   0.936   5.135 -0.1288  0.0143 -0.6205
 4865TIP3    H136086   6.313   0.996   5.131  0.4708 -0.6363  0.5895
 4865TIP3    H236087   6.271   0.855   5.095 -0.7230  0.2775 -1.6372
 4866TIP3   OH236088   5.251   3.148  12.812 -0.1180  0.3538  0.0817
 4866TIP3    H136089   5.188   3.217  12.792  1.4597  1.4474 -1.2877
 4866TIP3    H236090   5.321   3.160  12.748  1.9174 -0.2721  2.1194
 4867TIP3   OH236091   3.033   5.519  11.913 -0.0448 -0.0264  0.0020
 4867TIP3    H136092   2.988   5.580  11.855 -0.9526  0.8507  1.5829
 4867TIP3    H236093   3.034   5.563  11.998  1.5901 -1.1248  0.5626
 4868TIP3   OH236094   3.556   4.524   3.376  0.3369  0.1256 -0.0299
 4868TIP3    H136095   3.588   4.483   3.295 -1.2614  0.2514 -0.7578
 4868TIP3    H236096   3.472   4.563   3.350  0.4126  1.2485  1.3948
 4869TIP3   OH236097   2.827   2.839  12.051  0.4227  0.3710 -0.4690
 4869TIP3    H136098   2.764   2.895  12.097  0.2683 -0.1989  0.0074
 4869TIP3    H236099   2.886   2.808  12.119 -0.7340 -1.7326 -0.4079
 4870TIP3   OH236100   3.919   2.274   5.488 -0.4961 -0.3410 -0.3818
 4870TIP3    H136101   3.911   2.198   5.546 -0.9402 -0.5867 -0.7578
 4870TIP3    H236102   3.845   2.329   5.511  0.5763  0.6372  0.8256
 4871TIP3   OH236103   4.503   0.619   3.574 -0.1592 -0.0563  0.1227
 4871TIP3    H136104   4.559   0.696   3.562  0.5331 -0.3000  1.6812
 4871TIP3    H236105   4.549   0.566   3.639 -0.4569 -1.9508 -1.1661
 4872TIP3   OH236106   2.470   4.149  11.001 -0.2362 -0.9453  0.0804
 4872TIP3    H136107   2.493   4.133  11.093 -3.0247  0.6366  1.1136
 4872TIP3    H236108   2.381   4.116  10.992 -0.8396  0.9733 -1.4432
 4873TIP3   OH236109   3.465   3.674  15.576  0.6714 -0.8452  0.4777
 4873TIP3    H136110   3.512   3.609  15.525  2.7195  0.4630  0.6222
 4873TIP3    H236111   3.395   3.705  15.519  0.2540 -2.4987  0.0844
 4874TIP3   OH236112   2.750   5.627  15.360  0.1502 -0.0373 -0.0628
 4874TIP3    H136113   2.691   5.682  15.309 -0.4843 -0.8903 -0.2527
 4874TIP3    H236114   2.833   5.628  15.311 -0.0788  0.1548 -0.4460
 4875TIP3   OH236115   1.526   0.894   0.519  0.6173 -0.2858 -0.4995
 4875TIP3    H136116   1.600   0.949   0.493 -0.5228  1.3689 -0.3090
 4875TIP3    H236117   1.513   0.913   0.612 -0.2627 -0.2912 -0.6151
 4876TIP3   OH236118   3.843   3.364  13.828 -0.3333 -0.7983  0.4044
 4876TIP3    H136119   3.765   3.416  13.848  0.5517 -0.0692  2.0845
 4876TIP3    H236120   3.910   3.428  13.805  0.2908 -1.3016  0.7866
 4877TIP3   OH236121   0.816   3.400  17.243  0.4620 -0.2008 -0.0020
 4877TIP3    H136122   0.767   3.317  17.239  1.9699 -1.0127 -2.8185
 4877TIP3    H236123   0.906   3.376  17.222  1.1082  2.0198  0.1069
 4878TIP3   OH236124   2.655   5.985  15.893  0.4561  0.1405 -0.4116
 4878TIP3    H136125   2.748   6.007  15.899  1.1715 -2.1211 -2.4729
 4878TIP3    H236126   2.614   6.062  15.855  1.4829  1.1640  0.5375
 4879TIP3   OH236127   6.100   1.653  10.965 -0.2997  0.5335 -0.0449
 4879TIP3    H136128   6.107   1.593  11.039  0.7722  0.3512 -0.2794
 4879TIP3    H236129   6.191   1.672  10.942 -0.6355  1.2662 -0.7629
 4880TIP3   OH236130   6.684   4.673   1.283 -0.9216 -0.0084 -0.0957
 4880TIP3    H136131   6.687   4.655   1.189 -1.7355  1.9438 -0.5378
 4880TIP3    H236132   6.764   4.633   1.318 -0.3205 -0.2623 -1.7173
 4881TIP3   OH236133   3.985   6.544  17.198 -0.3745 -0.3502 -0.3451
 4881TIP3    H136134   3.963   6.548  17.105 -1.9186  0.0668  0.0223
 4881TIP3    H236135   3.911   6.500  17.239 -0.8331  1.5867  1.0243
 4882TIP3   OH236136   1.370   2.336   3.550 -0.0756  0.2992 -0.0975
 4882TIP3    H136137   1.345   2.327   3.458  0.7505 -1.3293 -0.1923
 4882TIP3    H236138   1.414   2.420   3.555 -2.3768  1.5748 -0.6498
 4883TIP3   OH236139   4.920   0.632  12.552  0.6914 -0.0673  0.3624
 4883TIP3    H136140   4.889   0.578  12.625  1.1295 -1.4999 -0.4984
 4883TIP3    H236141   5.008   0.660  12.579  1.2310 -1.3551  0.0243
 4884TIP3   OH236142   3.072   1.598   0.467  0.6867 -0.0179  0.3663
 4884TIP3    H136143   2.985   1.565   0.444 -0.0362  0.8586  1.7748
 4884TIP3    H236144   3.120   1.521   0.495  0.9544 -0.7922 -2.0671
 4885TIP3   OH236145   2.300   2.023   0.146  0.2203  0.1869  0.1996
 4885TIP3    H136146   2.211   2.040   0.114  0.6636  0.7716 -0.7409
 4885TIP3    H236147   2.337   2.110   0.159  0.8694 -0.0535 -0.0283
 4886TIP3   OH236148   3.445   0.059   4.349 -0.1965 -0.1348 -0.0493
 4886TIP3    H136149   3.413  -0.031   4.339 -1.1483  0.0622  1.1443
 4886TIP3    H236150   3.381   0.112   4.300  0.8063 -0.1714 -1.4302
 4887TIP3   OH236151   5.276   4.300  15.193  0.4339  0.3850 -0.1800
 4887TIP3    H136152   5.184   4.281  15.175  0.1287  1.8216 -0.1979
 4887TIP3    H236153   5.274   4.354  15.272  1.2069  0.9310 -0.5251
 4888TIP3   OH236154   4.882   2.626  15.782  0.5023  0.2138  0.5609
 4888TIP3    H136155   4.843   2.551  15.827  0.9136  0.0556  0.6529
 4888TIP3    H236156   4.811   2.661  15.729  0.4048 -0.4670  0.2314
 4889TIP3   OH236157   4.381   0.963   6.178  0.1392 -0.2529  0.3516
 4889TIP3    H136158   4.409   0.873   6.162 -1.6487 -0.6054 -0.9331
 4889TIP3    H236159   4.456   1.004   6.222  0.7619 -2.5041  1.4491
 4890TIP3   OH236160   1.734   1.910   4.954 -0.0815 -0.1433 -0.5954
 4890TIP3    H136161   1.733   2.005   4.943 -1.8554  0.1326  1.6562
 4890TIP3    H236162   1.722   1.875   4.866  0.3971  1.7147 -1.4196
 4891TIP3   OH236163   4.594   2.239   1.438 -0.0947  0.3179 -0.6187
 4891TIP3    H136164   4.558   2.299   1.373 -1.1420  0.0935 -0.2736
 4891TIP3    H236165   4.673   2.204   1.399 -1.0678 -0.3229 -2.0564
 4892TIP3   OH236166   1.375   1.278  17.230 -0.1687 -0.2060  0.1070
 4892TIP3    H136167   1.398   1.187  17.213  0.9943  0.4235 -1.8744
 4892TIP3    H236168   1.454   1.316  17.269  0.0499  0.4275 -0.9217
 4893TIP3   OH236169   5.548   6.498  16.794 -0.2287  0.1518  0.2889
 4893TIP3    H136170   5.477   6.548  16.753  0.1870 -0.8316 -1.6927
 4893TIP3    H236171   5.619   6.562  16.804 -0.6781  0.6434  0.4058
 4894TIP3   OH236172   0.620   1.373  14.100  0.0107 -0.1604  0.2529
 4894TIP3    H136173   0.577   1.412  14.024 -0.5593  1.2043  1.2721
 4894TIP3    H236174   0.690   1.434  14.122 -0.9108  0.3113  1.8815
 4895TIP3   OH236175   4.142   4.650  14.807 -0.0021  0.2275  0.1232
 4895TIP3    H136176   4.178   4.577  14.857  1.4840  1.0541  0.2716
 4895TIP3    H236177   4.218   4.696  14.773 -0.9763 -0.0478 -2.5535
 4896TIP3   OH236178   0.005   4.075  12.466  0.1470  0.5968  0.2782
 4896TIP3    H136179  -0.002   4.104  12.375  0.8604 -1.9638 -0.6322
 4896TIP3    H236180  -0.084   4.084  12.501 -0.4078  0.3502 -1.0460
 4897TIP3   OH236181   4.773   0.092  15.469 -0.1475 -0.4417 -0.9794
 4897TIP3    H136182   4.719   0.171  15.460 -0.7151 -0.5173  1.5237
 4897TIP3    H236183   4.749   0.039  15.393 -0.5635  1.3017 -2.1067
 4898TIP3   OH236184   6.067   1.518   2.655  0.5981 -0.2137  0.5238
 4898TIP3    H136185   5.998   1.561   2.604 -0.8933 -4.5683 -1.3464
 4898TIP3    H236186   6.139   1.507   2.594  0.2537 -2.0009  0.4191
 4899TIP3   OH236187   2.875   1.397  12.326  0.2066 -0.1722  0.0506
 4899TIP3    H136188   2.922   1.475  12.297  0.5949 -0.3906  0.0861
 4899TIP3    H236189   2.783   1.423  12.327  0.3694  0.3919  0.4067
 4900TIP3   OH236190   3.860   5.495   1.134 -0.5663 -0.4155  0.5760
 4900TIP3    H136191   3.904   5.580   1.146 -0.2098 -0.8044  2.0726
 4900TIP3    H236192   3.787   5.515   1.074 -0.2788  0.8714  0.6258
 4901TIP3   OH236193   1.844   6.377  11.866 -0.6391 -0.1637 -0.1604
 4901TIP3    H136194   1.929   6.337  11.847 -0.6488 -0.0061 -0.5486
 4901TIP3    H236195   1.850   6.407  11.957  0.1420  0.9077 -0.5557
 4902TIP3   OH236196   2.680   6.343  16.461  0.0572  0.0385 -0.2589
 4902TIP3    H136197   2.729   6.342  16.380  0.9811 -0.6295  0.3043
 4902TIP3    H236198   2.722   6.410  16.515 -0.5347  0.4601 -0.3061
 4903TIP3   OH236199   3.883   0.935  14.636  0.3036 -0.4854  0.4862
 4903TIP3    H136200   3.843   0.868  14.580 -0.4040  0.4706 -0.1556
 4903TIP3    H236201   3.977   0.921  14.626  0.1637 -1.0957 -0.0061
 4904TIP3   OH236202   6.191   2.731   4.005 -0.0963  0.0062 -0.4525
 4904TIP3    H136203   6.227   2.712   3.919  0.0637  2.8228 -1.0697
 4904TIP3    H236204   6.264   2.770   4.053 -0.8426  0.7236  0.1164
 4905TIP3   OH236205   4.548   0.847   1.182 -0.2025 -0.4914 -0.3223
 4905TIP3    H136206   4.643   0.841   1.190 -0.1745 -0.4575 -0.6154
 4905TIP3    H236207   4.517   0.865   1.270  0.1328  0.3694 -0.3796
 4906TIP3   OH236208   4.976   0.473  14.670  0.4084  0.1803  0.5058
 4906TIP3    H136209   4.981   0.426  14.753 -1.1806 -1.0754 -0.0715
 4906TIP3    H236210   4.919   0.418  14.615 -0.3863  2.1167 -0.6581
 4907TIP3   OH236211   0.211   2.043   1.415 -0.0995  0.2582  0.0600
 4907TIP3    H136212   0.273   2.108   1.384  0.0312 -0.2873 -0.8269
 4907TIP3    H236213   0.125   2.085   1.408 -0.1313 -0.0525 -1.5711
 4908TIP3   OH236214   5.793   6.726  14.910 -0.6341 -0.7325 -0.1259
 4908TIP3    H136215   5.817   6.682  14.828 -0.6161 -0.1416 -0.4449
 4908TIP3    H236216   5.831   6.813  14.902  0.7200 -1.2016  1.2218
 4909TIP3   OH236217   5.106   2.857  14.499  0.4072  0.2633  0.2677
 4909TIP3    H136218   5.171   2.894  14.559  1.6644 -2.0558  0.4023
 4909TIP3    H236219   5.046   2.809  14.555 -0.9161  1.6245  0.0471
 4910TIP3   OH236220   1.264   1.434  14.818  0.0260  0.1962 -0.4677
 4910TIP3    H136221   1.357   1.447  14.831  0.4403  0.1910 -3.0686
 4910TIP3    H236222   1.254   1.340  14.806 -0.4338  0.1002  0.6713
 4911TIP3   OH236223   3.030   6.494   1.459  0.2593  0.0171  0.5903
 4911TIP3    H136224   2.941   6.479   1.491  0.4802 -0.5886  0.9319
 4911TIP3    H236225   3.027   6.581   1.420 -0.3700  0.1944  1.0205
 4912TIP3   OH236226   1.478   6.765   2.129 -0.7393 -0.0095  0.1365
 4912TIP3    H136227   1.418   6.810   2.070  0.3745 -0.4917 -1.4056
 4912TIP3    H236228   1.465   6.672   2.110 -1.1914 -0.2168  1.4664
 4913TIP3   OH236229   6.643   6.371  17.286  0.3267 -0.0356 -0.3932
 4913TIP3    H136230   6.603   6.341  17.205  2.1642 -2.8519 -0.3441
 4913TIP3    H236231   6.673   6.460  17.266 -0.2742 -0.2587 -2.4341
 4914TIP3   OH236232   4.083   5.587   3.339  0.1388  0.3048  0.1598
 4914TIP3    H136233   4.022   5.631   3.398 -1.7266 -2.1096  0.0890
 4914TIP3    H236234   4.148   5.547   3.397  0.8270  1.5926  0.3072
 4915TIP3   OH236235   1.236   5.132  16.701  0.0659  0.6167  0.2523
 4915TIP3    H136236   1.153   5.101  16.663 -0.8994  2.2822  0.9515
 4915TIP3    H236237   1.265   5.200  16.641 -0.0321  1.3194  0.9931
 4916TIP3   OH236238   6.109   4.847  11.605 -0.0446 -0.3420  0.4833
 4916TIP3    H136239   6.050   4.920  11.622  1.4183  1.2140 -0.8679
 4916TIP3    H236240   6.096   4.827  11.512  0.2115 -1.2247  0.6278
 4917TIP3   OH236241   5.720   4.265  12.815 -0.5290  0.2284  0.4279
 4917TIP3    H136242   5.743   4.329  12.882  1.2286 -0.4287  0.4584
 4917TIP3    H236243   5.645   4.304  12.770  1.2534  2.8732 -0.3326
 4918TIP3   OH236244   2.697   2.890  13.194  0.6256  0.0219 -0.0101
 4918TIP3    H136245   2.671   2.917  13.282 -1.3502  0.4853 -0.7104
 4918TIP3    H236246   2.791   2.873  13.201  0.6520  0.8385  1.9854
 4919TIP3   OH236247   3.535   0.759   2.275 -0.0581 -0.5678 -0.0865
 4919TIP3    H136248   3.546   0.826   2.342  1.0227 -0.5420 -0.2832
 4919TIP3    H236249   3.512   0.680   2.325 -3.0701  0.3071  0.0189
 4920TIP3   OH236250   5.317   3.549   3.573  0.4627 -0.1791 -0.0233
 4920TIP3    H136251   5.335   3.463   3.611  1.3624  0.1848  0.3887
 4920TIP3    H236252   5.377   3.554   3.498  1.6869  0.7964  0.9953
 4921TIP3   OH236253   6.682   1.667   5.213 -0.4185  0.0005  0.1744
 4921TIP3    H136254   6.679   1.595   5.150 -1.6541  1.0946 -1.0591
 4921TIP3    H236255   6.774   1.692   5.218  0.0990 -1.9499  0.9790
 4922TIP3   OH236256   1.750   5.848  16.199 -0.2360  0.2288 -0.2572
 4922TIP3    H136257   1.658   5.825  16.187  0.0187 -0.6774 -0.5513
 4922TIP3    H236258   1.797   5.765  16.186  0.7844  1.0511 -2.0287
 4923TIP3   OH236259   5.733   0.997   1.701  0.0001 -0.5016 -0.6596
 4923TIP3    H136260   5.728   1.093   1.697  1.2687 -0.3072  1.7189
 4923TIP3    H236261   5.728   0.976   1.795 -0.2843 -2.7771 -1.1468
 4924TIP3   OH236262   4.602   4.965   3.829  0.3212 -0.1078 -0.1799
 4924TIP3    H136263   4.519   4.917   3.835 -0.0809  0.5940 -0.1354
 4924TIP3    H236264   4.645   4.928   3.752 -0.1207 -0.3359 -0.3208
 4925TIP3   OH236265   1.712   1.519  11.155  0.0475  0.7332  0.0020
 4925TIP3    H136266   1.769   1.580  11.109  0.1998  0.8315  0.3246
 4925TIP3    H236267   1.710   1.551  11.245  0.0281  0.3385  0.1432
 4926TIP3   OH236268   1.229   5.889  13.078 -0.2405 -0.0317 -0.5169
 4926TIP3    H136269   1.169   5.835  13.130  0.5277  0.1121  0.5611
 4926TIP3    H236270   1.244   5.838  12.998 -0.7538 -0.6824 -0.2058
 4927TIP3   OH236271   3.341   2.702  16.492  0.1569  0.2855  0.2987
 4927TIP3    H136272   3.411   2.752  16.533  0.6038  0.2030 -0.3597
 4927TIP3    H236273   3.386   2.632  16.445 -0.4670 -0.7807  1.2681
 4928TIP3   OH236274   0.031   2.867  14.262 -0.2994 -0.3169  0.1450
 4928TIP3    H136275  -0.010   2.798  14.313  1.4674 -0.8502  0.8677
 4928TIP3    H236276   0.067   2.823  14.185  0.5434 -0.1580  0.4444
 4929TIP3   OH236277   6.059   2.463   5.804  0.7991 -0.3050 -0.2866
 4929TIP3    H136278   6.146   2.480   5.839  0.2191  0.8840  0.6326
 4929TIP3    H236279   6.072   2.399   5.735  2.3806 -0.2415 -0.0492
 4930TIP3   OH236280   2.907   6.114   3.669 -0.0252 -0.6004  0.1439
 4930TIP3    H136281   2.959   6.062   3.731  0.3046 -0.2608  0.1529
 4930TIP3    H236282   2.817   6.085   3.684  0.2166 -1.5776 -0.2460
 4931TIP3   OH236283   3.543   2.512  13.213 -0.2355  0.2073 -0.4981
 4931TIP3    H136284   3.565   2.592  13.165 -1.2083 -0.4866 -2.1781
 4931TIP3    H236285   3.628   2.476  13.239  0.2975  0.8498 -1.3095
 4932TIP3   OH236286   1.005   6.459  15.115  0.0440 -0.7201  0.0889
 4932TIP3    H136287   0.938   6.392  15.101  0.7768 -1.3096 -0.6687
 4932TIP3    H236288   1.043   6.473  15.029  0.0537  0.5262  0.2772
 4933TIP3   OH236289   5.785   2.603   3.454  0.4647  0.3646 -0.3473
 4933TIP3    H136290   5.859   2.616   3.395  2.2518  1.0850  1.9892
 4933TIP3    H236291   5.795   2.671   3.521 -0.9026 -1.0616  1.3638
 4934TIP3   OH236292   6.295   5.880  11.747 -0.2640 -0.5421 -0.4563
 4934TIP3    H136293   6.290   5.843  11.659  1.2498  1.2558 -1.3351
 4934TIP3    H236294   6.208   5.915  11.764 -0.4274 -0.4798 -1.4294
 4935TIP3   OH236295   6.195   5.876   0.095 -0.1182  0.1929 -0.6361
 4935TIP3    H136296   6.113   5.827   0.096 -0.2295  0.4044  0.5589
 4935TIP3    H236297   6.263   5.809   0.091 -0.2714 -0.0578  0.9088
 4936TIP3   OH236298   3.326   3.388   3.117  0.1412 -0.3844 -0.4350
 4936TIP3    H136299   3.377   3.442   3.057  0.0251  0.4299  0.1979
 4936TIP3    H236300   3.378   3.308   3.127  0.8521  0.0652 -0.5052
 4937TIP3   OH236301   3.656   1.694  13.152 -0.4942  0.9383  0.4176
 4937TIP3    H136302   3.703   1.645  13.220 -1.0573  0.5244  0.5105
 4937TIP3    H236303   3.720   1.702  13.081 -0.2387  0.4791  0.5889
 4938TIP3   OH236304   2.590   1.581  11.033 -0.8142  0.3394  0.2795
 4938TIP3    H136305   2.612   1.488  11.043  0.2761  0.9069  3.7829
 4938TIP3    H236306   2.674   1.624  11.020 -1.1700  1.0204  0.2448
 4939TIP3   OH236307   6.482   6.014  15.359 -0.0847 -0.4789 -0.1670
 4939TIP3    H136308   6.518   5.978  15.440 -1.8809  0.3478  1.0387
 4939TIP3    H236309   6.528   6.098  15.348 -0.1511 -0.3931  0.2181
 4940TIP3   OH236310   1.821   5.992  17.270 -0.0296 -0.7993 -0.3930
 4940TIP3    H136311   1.825   5.934  17.194 -0.3054  0.0687 -1.0929
 4940TIP3    H236312   1.814   6.080  17.232  0.0389 -0.3373  0.6407
 4941TIP3   OH236313   4.903   6.254   5.281  0.1089  0.6361 -0.2037
 4941TIP3    H136314   4.836   6.273   5.215 -0.2464  0.5321  0.1221
 4941TIP3    H236315   4.946   6.175   5.250 -0.0121  0.6271 -0.3472
 4942TIP3   OH236316   6.022   5.033   4.284  0.3958 -0.0739 -0.3378
 4942TIP3    H136317   6.072   4.953   4.302  1.3606 -0.0141 -2.6089
 4942TIP3    H236318   6.045   5.092   4.355 -0.5729 -1.9108  1.5539
 4943TIP3   OH236319   4.721   1.906   4.978 -0.2559 -0.5128  0.2801
 4943TIP3    H136320   4.672   1.856   4.914 -2.9635  0.6225  1.3865
 4943TIP3    H236321   4.775   1.966   4.926 -0.9963 -0.9098 -0.9662
 4944TIP3   OH236322   6.757   1.953  15.048 -0.2306 -0.2921  0.4806
 4944TIP3    H136323   6.777   1.894  14.975  2.6325 -1.4966  2.1284
 4944TIP3    H236324   6.700   1.901  15.105  0.4541 -0.6645  0.8317
 4945TIP3   OH236325   2.848   4.391   3.015  0.3456 -0.0661 -0.6082
 4945TIP3    H136326   2.772   4.369   3.068  0.3237  1.2554 -0.0564
 4945TIP3    H236327   2.844   4.486   3.006  2.2613  0.0873 -0.0482
 4946TIP3   OH236328   3.992   5.243   4.681  0.3960 -0.5022  0.3284
 4946TIP3    H136329   3.902   5.215   4.699  0.0711 -0.3748 -0.9834
 4946TIP3    H236330   4.034   5.246   4.766 -1.3719  1.2393  1.2013
 4947TIP3   OH236331   1.299   1.024  11.592  0.0293  0.0109 -0.3261
 4947TIP3    H136332   1.206   1.044  11.586  0.4006  1.6660 -0.8588
 4947TIP3    H236333   1.305   0.929  11.577 -1.6511 -0.2947  0.8120
 4948TIP3   OH236334   2.059   4.206   6.105 -0.2954 -0.1713 -0.0846
 4948TIP3    H136335   1.965   4.217   6.115 -0.2012  0.1894  0.4699
 4948TIP3    H236336   2.093   4.296   6.098  0.3605 -0.0645  3.2508
 4949TIP3   OH236337   0.467   0.153   6.613 -0.3475  0.6314  0.3818
 4949TIP3    H136338   0.544   0.162   6.556  0.0501  0.1365  0.8380
 4949TIP3    H236339   0.488   0.206   6.690  0.1048 -0.5442  1.0867
 4950TIP3   OH236340   5.500   6.151   6.627  0.0964 -0.2982  0.5839
 4950TIP3    H136341   5.407   6.172   6.633  0.0007  0.1496 -2.0092
 4950TIP3    H236342   5.545   6.234   6.647 -0.1843  0.8995 -3.4165
 4951TIP3   OH236343   0.588   5.888  13.888  0.2849 -0.3974  0.0345
 4951TIP3    H136344   0.565   5.798  13.912 -2.9791 -0.0481 -1.5598
 4951TIP3    H236345   0.543   5.903  13.805  1.0150  2.6578  0.1238
 4952TIP3   OH236346   0.628   4.302   6.088  0.3990 -0.2058 -0.6360
 4952TIP3    H136347   0.559   4.241   6.114 -1.8323  1.5037 -2.3558
 4952TIP3    H236348   0.660   4.267   6.004 -1.3431  1.2742 -1.9599
 4953TIP3   OH236349   3.080   5.770  13.396  0.0003  0.5581  0.0558
 4953TIP3    H136350   3.144   5.711  13.436 -1.6591 -2.3334 -1.3806
 4953TIP3    H236351   3.094   5.759  13.302 -0.5248  2.3023 -0.2318
 4954TIP3   OH236352   1.621   0.247  13.661  0.2659  0.0280 -0.3917
 4954TIP3    H136353   1.622   0.321  13.722 -0.0794 -0.0668 -0.2750
 4954TIP3    H236354   1.682   0.184  13.699  0.4212  0.1750 -0.3984
 4955TIP3   OH236355   3.679   0.791  16.509  0.2297 -0.3792 -0.4102
 4955TIP3    H136356   3.639   0.858  16.564 -0.5336 -0.4559 -0.8698
 4955TIP3    H236357   3.611   0.767  16.446 -0.2739 -3.1972  1.1380
 4956TIP3   OH236358   3.799   2.130   5.080 -0.4270  0.2700  0.1082
 4956TIP3    H136359   3.719   2.094   5.118 -0.8048 -0.4618 -1.3349
 4956TIP3    H236360   3.866   2.114   5.147 -0.6388 -2.9130 -0.3581
 4957TIP3   OH236361   4.786   2.230   1.660  0.1755 -0.1250 -0.0658
 4957TIP3    H136362   4.743   2.271   1.585 -0.2955 -2.0770 -0.8711
 4957TIP3    H236363   4.715   2.211   1.721  0.3054 -0.3481  0.0171
 4958TIP3   OH236364   5.741   5.305   2.989  0.1796 -0.2770 -0.8395
 4958TIP3    H136365   5.726   5.219   2.949 -1.6013  0.1613 -1.1657
 4958TIP3    H236366   5.739   5.288   3.083 -0.6081 -0.5303 -0.9002
 4959TIP3   OH236367   5.277   5.855   1.697  0.2104 -0.2602  0.1625
 4959TIP3    H136368   5.253   5.911   1.770  0.5077 -0.0644  0.1078
 4959TIP3    H236369   5.193   5.828   1.660  0.0499  1.7835 -1.0565
 4960TIP3   OH236370   4.231   0.952  16.784  0.4533 -0.5539  0.2802
 4960TIP3    H136371   4.243   1.044  16.759 -1.0268 -0.7020 -1.0745
 4960TIP3    H236372   4.145   0.950  16.827  0.1774 -1.4122 -0.2938
 4961TIP3   OH236373   4.809   2.190   1.989 -0.1188 -0.0786  0.4831
 4961TIP3    H136374   4.774   2.279   1.992 -0.7176 -0.2047 -1.7625
 4961TIP3    H236375   4.903   2.201   1.975 -0.1455  0.2010  0.5372
 4962TIP3   OH236376   3.376   5.463  15.877 -0.0571  0.4430 -0.1463
 4962TIP3    H136377   3.367   5.396  15.810 -0.1735  0.6692 -0.3576
 4962TIP3    H236378   3.335   5.425  15.955 -0.9178  0.6178 -0.5065
 4963TIP3   OH236379   1.729   6.521   2.352 -0.1007  0.6058  0.0018
 4963TIP3    H136380   1.757   6.477   2.271 -2.5513  0.4513 -0.7834
 4963TIP3    H236381   1.730   6.614   2.330 -0.6585  0.5705 -0.1708
 4964TIP3   OH236382   4.262   1.444  12.562 -0.2945 -0.3948 -0.1083
 4964TIP3    H136383   4.242   1.532  12.530 -1.4118 -0.1397  1.2144
 4964TIP3    H236384   4.200   1.387  12.516 -0.6647 -0.2671  0.2247
 4965TIP3   OH236385   4.548   6.687  14.398 -1.2367 -0.1803  0.1442
 4965TIP3    H136386   4.616   6.722  14.340 -2.0091  3.2881  1.2204
 4965TIP3    H236387   4.596   6.661  14.477 -0.7859 -0.4233 -0.2077
 4966TIP3   OH236388   1.654   3.039  13.657  0.2217  0.4013  0.1949
 4966TIP3    H136389   1.663   2.944  13.655  2.2082  0.5513  0.6629
 4966TIP3    H236390   1.630   3.059  13.747  1.5108  0.4440  0.5476
 4967TIP3   OH236391   5.465   5.859  13.169 -0.5620 -0.7887 -0.0277
 4967TIP3    H136392   5.420   5.791  13.218  0.3210 -0.3335  1.4520
 4967TIP3    H236393   5.558   5.840  13.182 -0.3115 -0.5924 -1.4493
 4968TIP3   OH236394   0.651   4.924  15.050 -0.0228 -0.4684  0.4485
 4968TIP3    H136395   0.602   4.844  15.067  0.6088 -1.2980 -1.4446
 4968TIP3    H236396   0.696   4.907  14.967 -0.4714  2.1199 -0.3874
 4969TIP3   OH236397   1.249   0.858   2.484 -0.5475  0.5208 -0.7283
 4969TIP3    H136398   1.187   0.911   2.533 -0.4641 -0.1034  0.0638
 4969TIP3    H236399   1.321   0.843   2.544  0.1673  0.8504 -1.4908
 4970TIP3   OH236400   6.031   2.577   0.813  0.3712  0.6336  0.1430
 4970TIP3    H136401   5.947   2.603   0.852 -0.1282  1.8350 -1.6898
 4970TIP3    H236402   6.013   2.493   0.772  0.2858  0.4814  0.4869
 4971TIP3   OH236403   3.193   5.549   4.017  0.0266  0.1832 -0.0959
 4971TIP3    H136404   3.213   5.603   4.094 -0.1694 -2.9024  2.2010
 4971TIP3    H236405   3.104   5.576   3.992  0.4277  1.8345  0.2103
 4972TIP3   OH236406   5.610   5.295   6.016 -0.1222  0.0815  0.0450
 4972TIP3    H136407   5.556   5.366   6.050 -0.2542 -0.3719  0.7706
 4972TIP3    H236408   5.657   5.261   6.092 -1.3040 -1.6974  0.0127
 4973TIP3   OH236409   6.083   2.031  15.704 -0.8456 -0.2190 -0.8787
 4973TIP3    H136410   6.090   2.003  15.795 -1.0591  1.2003 -0.4109
 4973TIP3    H236411   6.159   1.992  15.661 -0.6913 -0.8206 -0.0774
 4974TIP3   OH236412   6.732   5.683   0.075  0.0076 -0.4362 -0.2539
 4974TIP3    H136413   6.746   5.608   0.132 -1.1772  0.0026  0.6326
 4974TIP3    H236414   6.779   5.662  -0.005  1.5448 -1.1310  0.8271
 4975TIP3   OH236415   0.199   1.008  11.372 -0.4190  0.0124  0.3320
 4975TIP3    H136416   0.150   0.938  11.328  0.1836 -1.1382  1.4443
 4975TIP3    H236417   0.134   1.077  11.386 -1.7309 -1.4194  1.6327
 4976TIP3   OH236418   5.673   3.678   1.741  0.8419  0.3079  0.0377
 4976TIP3    H136419   5.642   3.637   1.660 -0.5789 -0.5106  0.9784
 4976TIP3    H236420   5.653   3.771   1.729  0.0403  0.1020 -0.3042
 4977TIP3   OH236421   1.168   0.129   5.353 -0.0905 -0.4210  0.3670
 4977TIP3    H136422   1.107   0.057   5.371 -0.5536 -0.0539  0.2713
 4977TIP3    H236423   1.246   0.107   5.404  0.4312 -1.8944 -1.0139
 4978TIP3   OH236424   3.712   2.610   5.706  0.2432 -0.0141  0.1690
 4978TIP3    H136425   3.704   2.553   5.630 -0.5095 -0.4200  0.5454
 4978TIP3    H236426   3.776   2.676   5.680  0.6620 -0.6756 -0.4858
 4979TIP3   OH236427   0.798   6.143   1.436 -0.2342 -0.6585 -0.2743
 4979TIP3    H136428   0.710   6.105   1.444 -1.1956  1.5319  0.0538
 4979TIP3    H236429   0.828   6.152   1.527  0.7514 -2.3514 -0.4355
 4980TIP3   OH236430   2.265   2.791  12.859 -0.2900 -0.0487 -0.3025
 4980TIP3    H136431   2.329   2.828  12.919  0.0296 -2.3102  0.7970
 4980TIP3    H236432   2.192   2.853  12.859  0.8329  1.2871  0.3499
 4981TIP3   OH236433   1.451   6.031   1.546 -1.1049  0.0034  0.3361
 4981TIP3    H136434   1.469   6.125   1.545  0.4249 -0.2845 -0.3146
 4981TIP3    H236435   1.365   6.023   1.506 -1.8314  1.2361  1.6120
 4982TIP3   OH236436   5.195   3.010   3.769  0.7923  0.4245 -0.0902
 4982TIP3    H136437   5.146   2.928   3.760 -0.4571  0.9470  1.6129
 4982TIP3    H236438   5.238   3.003   3.854 -0.2657  1.9995  0.6026
 4983TIP3   OH236439   4.777   2.921  13.351 -0.1034 -0.5273  0.2734
 4983TIP3    H136440   4.707   2.942  13.413 -0.1112 -0.7463  0.3362
 4983TIP3    H236441   4.785   3.000  13.297 -0.9239 -0.7731 -0.2299
 4984TIP3   OH236442   3.740   4.125   5.413 -0.0402  0.0209 -0.1129
 4984TIP3    H136443   3.720   4.193   5.478  1.3550  0.7181 -0.4063
 4984TIP3    H236444   3.657   4.111   5.368 -0.0485  2.5165 -0.9781
 4985TIP3   OH236445   0.751   4.838   4.265  0.1977  0.4855 -0.0238
 4985TIP3    H136446   0.782   4.751   4.289 -1.1023  0.3183  1.0770
 4985TIP3    H236447   0.741   4.835   4.170 -0.6123 -0.8054  0.1054
 4986TIP3   OH236448   1.097   1.459   5.563  0.1495  0.3181 -0.3321
 4986TIP3    H136449   1.020   1.410   5.593  0.7041  0.2143  0.9492
 4986TIP3    H236450   1.172   1.405   5.588  0.6926  1.0145 -0.4282
 4987TIP3   OH236451   1.171   2.960   3.428  0.1421 -1.1281 -0.1018
 4987TIP3    H136452   1.220   2.939   3.507  1.2391 -2.4408 -1.1137
 4987TIP3    H236453   1.131   2.877   3.402  0.3057 -0.8441 -1.2776
 4988TIP3   OH236454   6.691   4.466   1.638 -0.7487  0.0995 -0.6933
 4988TIP3    H136455   6.762   4.405   1.619 -1.1036 -1.1219  1.7252
 4988TIP3    H236456   6.721   4.513   1.716 -0.9300  2.3087 -1.9210
 4989TIP3   OH236457   3.334   1.075  11.200 -0.0456  0.2149  0.7860
 4989TIP3    H136458   3.305   1.137  11.134  0.2057  1.1415  1.5440
 4989TIP3    H236459   3.419   1.108  11.230  1.3976 -1.9390 -0.7215
 4990TIP3   OH236460   6.423   3.717   3.674  0.4495  0.5321 -0.5796
 4990TIP3    H136461   6.501   3.741   3.624  0.6197 -2.7852 -2.0272
 4990TIP3    H236462   6.453   3.652   3.737 -0.8360  0.4739 -0.0068
 4991TIP3   OH236463   0.201   4.358  14.765  0.0155 -0.4300  0.4603
 4991TIP3    H136464   0.176   4.296  14.696  1.1365 -1.0252  0.5804
 4991TIP3    H236465   0.289   4.386  14.741 -0.7312  1.6451  0.0542
 4992TIP3   OH236466   0.982   4.149  15.520  0.1495 -0.8528 -0.0951
 4992TIP3    H136467   1.041   4.202  15.573 -0.7577  0.2237 -0.1561
 4992TIP3    H236468   0.925   4.212  15.476 -0.2897 -1.8219 -0.9482
 4993TIP3   OH236469   3.890   3.810  11.209  0.1778 -0.6980  0.2561
 4993TIP3    H136470   3.860   3.719  11.207 -0.3283 -0.5559  1.2859
 4993TIP3    H236471   3.911   3.827  11.300 -0.7619  0.5503  0.2550
 4994TIP3   OH236472   3.707   6.186  11.040  0.1391  0.4571 -0.3634
 4994TIP3    H136473   3.695   6.227  10.955 -1.0213 -0.6864 -0.7688
 4994TIP3    H236474   3.618   6.171  11.072  0.5591  2.0214  1.6177
 4995TIP3   OH236475   3.374   4.333   4.432  0.8975 -0.2810 -0.2855
 4995TIP3    H136476   3.285   4.370   4.435  1.4784  1.0244  2.5546
 4995TIP3    H236477   3.401   4.344   4.341 -0.7472  2.0031 -0.5523
 4996TIP3   OH236478   0.783   6.335  10.971 -0.0372  0.1343 -0.2059
 4996TIP3    H136479   0.852   6.285  10.927  0.5611  0.9005 -0.1514
 4996TIP3    H236480   0.739   6.383  10.902 -2.3918 -2.5200 -0.6352
 4997TIP3   OH236481   0.775   1.426   0.279 -0.2322 -0.4526 -0.3489
 4997TIP3    H136482   0.688   1.440   0.242  0.0622  3.1077  0.1563
 4997TIP3    H236483   0.768   1.452   0.370  1.1169 -1.1195 -0.0350
 4998TIP3   OH236484   3.843   3.489   3.031  0.2066  0.0137 -0.1553
 4998TIP3    H136485   3.868   3.569   3.077  0.5466  0.5047 -1.1702
 4998TIP3    H236486   3.748   3.495   3.022  0.3373  0.7812 -1.0886
 4999TIP3   OH236487   5.650   3.264   5.034  0.6230  0.3326  0.0863
 4999TIP3    H136488   5.624   3.342   4.984 -0.4839  0.8022  1.3432
 4999TIP3    H236489   5.611   3.191   4.986  0.4062  0.6904 -0.2951
 5000TIP3   OH236490   4.396   1.063  12.103  0.7387 -0.5714 -0.0041
 5000TIP3    H136491   4.301   1.071  12.100  0.8755  1.5119  0.7741
 5000TIP3    H236492   4.426   1.093  12.018  0.7896  0.2986  0.3151
 5001TIP3   OH236493   1.726   3.154  16.067 -0.5970  0.2268 -0.5563
 5001TIP3    H136494   1.780   3.092  16.116  0.3971  1.0721 -0.5725
 5001TIP3    H236495   1.686   3.102  15.998  1.0055 -0.1927 -1.1761
 5002TIP3   OH236496   0.263   1.753  12.643 -0.1607 -0.4246 -0.1397
 5002TIP3    H136497   0.263   1.659  12.623  0.0465 -0.1425 -1.5202
 5002TIP3    H236498   0.199   1.790  12.582  0.7588  0.5208 -0.5344
 5003TIP3   OH236499   4.256   1.372  13.645 -0.2326  0.4473 -0.3589
 5003TIP3    H136500   4.252   1.295  13.587 -0.3878  0.4537 -0.3573
 5003TIP3    H236501   4.345   1.369  13.682  0.3540  1.2259 -1.6605
 5004TIP3   OH236502   1.403   4.766   5.198  0.0505  0.6749 -0.3271
 5004TIP3    H136503   1.343   4.744   5.269 -0.3882  0.2186 -0.8336
 5004TIP3    H236504   1.489   4.769   5.239  0.1703 -2.1911 -0.2650
 5005TIP3   OH236505   0.592   6.080  14.520  0.0278  0.3006 -0.3176
 5005TIP3    H136506   0.601   5.989  14.491 -0.0660  0.3436 -0.4833
 5005TIP3    H236507   0.580   6.130  14.440  2.1278  0.7291 -0.3976
 5006TIP3   OH236508   1.633   4.301  11.015  0.0063 -0.2008 -0.2067
 5006TIP3    H136509   1.570   4.237  11.047 -0.5327  0.8707  0.9170
 5006TIP3    H236510   1.686   4.323  11.091 -0.1527  1.0758 -0.4553
 5007TIP3   OH236511   4.565   4.642  12.687 -0.0404 -0.1581  0.0559
 5007TIP3    H136512   4.502   4.592  12.739 -1.8193  2.2411  0.3091
 5007TIP3    H236513   4.513   4.681  12.617  1.1644  1.7671  0.1943
 5008TIP3   OH236514   4.094   3.345   0.080 -0.0981 -0.0613 -0.4007
 5008TIP3    H136515   4.026   3.378   0.138  1.9756 -0.0137  2.0539
 5008TIP3    H236516   4.126   3.423   0.034 -0.8164  0.1003 -0.6311
 5009TIP3   OH236517   4.445   3.793  11.414 -0.2864  0.3158 -0.1847
 5009TIP3    H136518   4.372   3.738  11.443  1.5463 -2.3075 -0.3667
 5009TIP3    H236519   4.456   3.857  11.485 -1.8668 -0.1186  0.4722
 5010TIP3   OH236520   2.135   1.650  14.434  0.0353 -0.2719  0.2567
 5010TIP3    H136521   2.151   1.683  14.522 -2.8725  1.1561  0.2970
 5010TIP3    H236522   2.132   1.728  14.379 -1.5346 -0.8671 -0.5378
 5011TIP3   OH236523   4.088   0.347  12.977 -0.1700 -0.5985 -0.1088
 5011TIP3    H136524   4.089   0.371  12.885  0.1783  1.1073  0.3077
 5011TIP3    H236525   3.996   0.357  13.004 -0.7848 -3.7754 -0.9059
 5012TIP3   OH236526   4.099   5.445  13.923 -0.4478  0.2507  0.7446
 5012TIP3    H136527   4.189   5.474  13.936 -0.0514 -0.9722  0.8079
 5012TIP3    H236528   4.048   5.498  13.985  0.1521  1.2940  0.3574
 5013TIP3   OH236529   6.649   0.345  17.070 -0.2577 -0.2825 -0.1609
 5013TIP3    H136530   6.670   0.426  17.117 -0.1348  0.4512 -1.4623
 5013TIP3    H236531   6.690   0.356  16.984 -2.2225 -0.7056 -1.1863
 5014TIP3   OH236532   0.441   4.838   4.278 -0.1005  0.1128  0.1548
 5014TIP3    H136533   0.390   4.829   4.198  0.5143 -0.0837 -0.2152
 5014TIP3    H236534   0.532   4.829   4.250  0.2882  2.4824  0.4925
 5015TIP3   OH236535   3.824   4.748  13.341  0.3479 -0.2868 -0.3255
 5015TIP3    H136536   3.775   4.747  13.422  1.1246  1.7602  0.2055
 5015TIP3    H236537   3.759   4.764  13.273  0.0003  0.2468  0.1342
 5016TIP3   OH236538   2.903   6.364   0.498  0.3613  0.6397  0.4538
 5016TIP3    H136539   2.868   6.411   0.422  0.6970 -0.7005 -0.5367
 5016TIP3    H236540   2.998   6.364   0.485  0.3512 -0.4482  0.3825
 5017TIP3   OH236541   0.095   1.809   5.988 -0.2770 -0.3187  0.2298
 5017TIP3    H136542   0.101   1.742   6.056 -2.0016  0.0191  0.7168
 5017TIP3    H236543   0.019   1.783   5.936 -0.2122  0.5867 -0.3201
 5018TIP3   OH236544   6.810   3.265   3.964 -0.0250 -0.4171  1.1308
 5018TIP3    H136545   6.741   3.199   3.970  0.2046 -0.6955  0.7339
 5018TIP3    H236546   6.814   3.304   4.052 -1.1158  0.0386  0.9889
 5019TIP3   OH236547   3.633   0.077   1.958  0.2096 -0.2582 -0.1625
 5019TIP3    H136548   3.586   0.115   1.884  0.7487 -1.5621 -1.1848
 5019TIP3    H236549   3.578   0.003   1.986 -0.7806  1.1449  1.7488
 5020TIP3   OH236550   3.422   6.105  10.943 -0.2138  0.0690 -0.0408
 5020TIP3    H136551   3.429   6.172  10.875 -1.5801 -0.5994 -0.8719
 5020TIP3    H236552   3.340   6.059  10.923 -0.3586 -0.4899  1.7530
 5021TIP3   OH236553   2.728   5.542   0.214 -0.2071 -0.4987  0.9117
 5021TIP3    H136554   2.779   5.481   0.161 -1.0837 -0.9116  0.5386
 5021TIP3    H236555   2.788   5.570   0.283  0.9700  0.1079 -0.3391
 5022TIP3   OH236556   3.595   2.104   0.444  0.4156  0.3511  0.2754
 5022TIP3    H136557   3.612   2.058   0.362  0.7243 -0.4462  0.7800
 5022TIP3    H236558   3.515   2.065   0.478 -0.1916  1.2756 -0.0635
 5023TIP3   OH236559   1.792   1.124   5.158 -0.5380 -0.7659  0.5329
 5023TIP3    H136560   1.813   1.077   5.077 -0.8249  0.7907 -0.4558
 5023TIP3    H236561   1.710   1.169   5.140  0.9216  2.0174  0.6512
 5024TIP3   OH236562   0.317   4.974   2.061  0.0224  0.4436  0.4042
 5024TIP3    H136563   0.236   5.014   2.030 -0.2576 -3.3468 -4.4130
 5024TIP3    H236564   0.386   5.019   2.011  0.4677  0.6437  1.2010
 5025TIP3   OH236565   4.662   0.283   3.547  0.7192  0.0630  0.0916
 5025TIP3    H136566   4.699   0.342   3.613  1.7528 -1.5107  0.9542
 5025TIP3    H236567   4.698   0.314   3.464  1.3631  0.5856  0.5595
 5026TIP3   OH236568   1.740   4.845   4.300 -0.6194  0.5625  0.4065
 5026TIP3    H136569   1.693   4.925   4.323 -0.7695  0.1952  1.4463
 5026TIP3    H236570   1.832   4.867   4.310 -0.5639  1.3062 -1.7047
 5027TIP3   OH236571   2.724   4.966   4.398 -0.8525 -0.1223 -0.2561
 5027TIP3    H136572   2.814   4.951   4.369 -1.2125 -0.8891 -0.9951
 5027TIP3    H236573   2.711   4.902   4.468 -0.5054  0.6703  0.5584
 5028TIP3   OH236574   3.609   6.120   1.522  0.1291  0.4518  0.1397
 5028TIP3    H136575   3.701   6.131   1.497  0.0228  0.2185 -0.3695
 5028TIP3    H236576   3.567   6.086   1.443 -0.0138 -1.2975  0.9298
 5029TIP3   OH236577   1.980   1.986   3.330  0.3893 -0.1502 -0.0632
 5029TIP3    H136578   2.065   1.944   3.343  0.1404 -1.1629 -1.5324
 5029TIP3    H236579   1.950   1.953   3.245 -0.4794  1.8997 -0.5769
 5030TIP3   OH236580   3.856   3.896   2.299  0.1328 -0.7211 -0.5609
 5030TIP3    H136581   3.913   3.877   2.374 -0.8986  0.9338  0.6974
 5030TIP3    H236582   3.788   3.828   2.304  0.0540 -0.6059  0.0229
 5031TIP3   OH236583   3.172   1.822  16.578 -0.3071 -0.5627  0.3485
 5031TIP3    H136584   3.167   1.748  16.518 -3.7387 -1.3871  1.5382
 5031TIP3    H236585   3.131   1.894  16.531 -0.5733 -0.4838  0.7016
 5032TIP3   OH236586   4.713   1.970  15.174 -0.2710 -0.4485 -0.4523
 5032TIP3    H136587   4.625   1.949  15.206 -0.9039  2.1169 -0.4373
 5032TIP3    H236588   4.719   1.925  15.090 -0.3414 -3.3636  1.0342
 5033TIP3   OH236589   3.622   2.231   2.039 -0.0480  0.1630 -0.2654
 5033TIP3    H136590   3.692   2.166   2.039 -1.2892 -1.1972 -0.0217
 5033TIP3    H236591   3.659   2.306   2.086  1.3201 -0.4474 -0.3420
 5034TIP3   OH236592   4.120   4.677   3.956 -0.1333 -0.0709 -0.4177
 5034TIP3    H136593   4.040   4.625   3.955  0.2998 -0.7282 -1.3357
 5034TIP3    H236594   4.186   4.620   3.994 -0.3565  0.8919  1.4881
 5035TIP3   OH236595   4.314   5.448  14.796 -0.4334 -0.2097 -0.0562
 5035TIP3    H136596   4.344   5.452  14.705  1.7146 -0.3213  0.6084
 5035TIP3    H236597   4.273   5.532  14.812 -1.1603 -0.3273 -1.2380
 5036TIP3   OH236598   3.960   2.413  12.081 -0.0295  0.3723 -0.0260
 5036TIP3    H136599   3.930   2.435  12.169  0.0192 -1.1891  0.3987
 5036TIP3    H236600   4.047   2.377  12.093  0.5869  1.5530 -0.8846
 5037TIP3   OH236601   3.410   0.090  15.690 -0.3811  0.0221  0.2810
 5037TIP3    H136602   3.360   0.019  15.731  0.0139 -1.3037 -1.4946
 5037TIP3    H236603   3.489   0.049  15.657  0.6726  1.6314  0.7407
 5038TIP3   OH236604   1.904   5.335  11.445  0.1610 -0.7380  0.5401
 5038TIP3    H136605   1.864   5.285  11.374  0.1474  0.8929 -0.6394
 5038TIP3    H236606   1.831   5.360  11.501  0.0551 -1.2970  0.6452
 5039TIP3   OH236607   6.381   2.863  13.904 -0.1332  0.4335  0.3646
 5039TIP3    H136608   6.379   2.902  13.816  0.2789 -1.0811 -0.3345
 5039TIP3    H236609   6.414   2.933  13.960 -2.6952  2.2061 -0.2576
 5040TIP3   OH236610   6.535   3.345  14.504 -0.2803 -0.0103 -0.6044
 5040TIP3    H136611   6.628   3.363  14.519 -0.8746  1.1418  2.0747
 5040TIP3    H236612   6.497   3.429  14.478 -0.7741 -0.2234 -0.5835
 5041TIP3   OH236613   3.395   2.211   1.107  0.0677  0.5107  0.1128
 5041TIP3    H136614   3.336   2.217   1.182 -0.1223  1.1037 -0.0764
 5041TIP3    H236615   3.433   2.124   1.113  1.4728  1.2286  1.9455
 5042TIP3   OH236616   5.526   3.434  11.717  0.1085 -0.7600 -0.3050
 5042TIP3    H136617   5.532   3.379  11.796 -2.0774 -1.7001 -0.7559
 5042TIP3    H236618   5.617   3.448  11.691  0.8629 -0.7278  2.1929
 5043TIP3   OH236619   5.779   4.559  16.123  0.2397  0.1001 -0.4371
 5043TIP3    H136620   5.786   4.518  16.210  0.0808 -0.9901 -0.9327
 5043TIP3    H236621   5.870   4.582  16.101  0.6623 -2.1404 -1.1700
 5044TIP3   OH236622   2.800   3.654  11.906 -0.1621 -0.5460  0.1131
 5044TIP3    H136623   2.744   3.616  11.839  0.6931 -0.8909 -0.4185
 5044TIP3    H236624   2.869   3.589  11.920  0.4795  0.1547  0.2703
 5045TIP3   OH236625   6.562   0.036  15.470  0.0719 -0.1074  0.4138
 5045TIP3    H136626   6.577  -0.040  15.526 -0.6476  0.1310  0.9346
 5045TIP3    H236627   6.552   0.109  15.531  0.0414  0.2866 -0.0578
 5046TIP3   OH236628   5.076   0.124  15.515 -0.3470  0.1407 -0.1937
 5046TIP3    H136629   5.067   0.084  15.601 -0.2298  1.0711  0.2555
 5046TIP3    H236630   5.004   0.187  15.510 -0.0625  0.4408 -0.5753
 5047TIP3   OH236631   0.235   2.037  12.190  0.0599 -0.1207  0.4846
 5047TIP3    H136632   0.291   1.959  12.195  1.0841  0.4284 -1.8725
 5047TIP3    H236633   0.150   2.003  12.161  0.4258 -0.3798 -0.2795
 5048TIP3   OH236634   6.596   3.969   2.235  0.2868  0.0445 -0.0892
 5048TIP3    H136635   6.517   3.973   2.289 -0.2700  0.1422 -0.9127
 5048TIP3    H236636   6.648   4.044   2.265  0.2411 -0.2340  0.7101
 5049TIP3   OH236637   1.494   4.990   3.294  0.0750 -0.0871  0.6364
 5049TIP3    H136638   1.515   5.081   3.273 -0.7908  0.6042  2.6404
 5049TIP3    H236639   1.402   4.981   3.270 -0.3609  0.1305  2.1773
 5050TIP3   OH236640   1.327   0.073   1.739 -0.6943 -0.1087 -0.5609
 5050TIP3    H136641   1.398   0.032   1.688 -1.1514  1.2277 -2.3243
 5050TIP3    H236642   1.347   0.166   1.737 -0.7551 -0.0331  1.7229
 5051TIP3   OH236643   6.478   2.001  13.410 -0.2498  0.1027  0.0229
 5051TIP3    H136644   6.455   2.083  13.365 -0.4158 -0.4117 -0.8543
 5051TIP3    H236645   6.565   2.016  13.446 -1.2667  1.5277  2.0052
 5052TIP3   OH236646   5.820   5.572   0.286 -0.3849 -0.1536 -0.0471
 5052TIP3    H136647   5.773   5.491   0.268  1.1515 -0.9096 -0.7030
 5052TIP3    H236648   5.839   5.570   0.380  2.0757 -1.8897 -0.5412
 5053TIP3   OH236649   4.124   2.587  15.543  0.1780  0.3325 -0.0154
 5053TIP3    H136650   4.163   2.674  15.551  0.4767  0.2496 -0.5411
 5053TIP3    H236651   4.193   2.526  15.568 -0.1208  0.2570  0.6314
 5054TIP3   OH236652   5.067   5.701   2.816  0.5337 -0.1569  0.3009
 5054TIP3    H136653   5.138   5.649   2.780  0.1566 -1.0270  0.7987
 5054TIP3    H236654   5.110   5.777   2.856  1.1298 -0.3640  0.0532
 5055TIP3   OH236655   6.066   3.504  16.862  0.0987 -0.0049  0.2152
 5055TIP3    H136656   5.995   3.441  16.862 -0.0074  0.0919  1.4830
 5055TIP3    H236657   6.143   3.455  16.832  0.1329 -0.8859  1.6849
 5056TIP3   OH236658   6.442   0.253  10.924  0.3523 -0.0983 -0.1509
 5056TIP3    H136659   6.479   0.336  10.956 -0.7043  0.6068 -0.7361
 5056TIP3    H236660   6.425   0.202  11.003  0.2956  0.5516  0.2589
 5057TIP3   OH236661   4.271   2.521   0.378 -0.0565  0.2872 -0.2852
 5057TIP3    H136662   4.251   2.614   0.366  2.3854  0.6950 -1.4585
 5057TIP3    H236663   4.354   2.508   0.332 -0.1766 -2.4038  0.1832
 5058TIP3   OH236664   4.350   3.181  15.531  0.3373 -0.0436 -0.4611
 5058TIP3    H136665   4.285   3.235  15.577  0.3887  0.4538 -0.9713
 5058TIP3    H236666   4.308   3.095  15.523 -0.2130  0.2375 -0.6699
 5059TIP3   OH236667   5.277   4.130  13.359 -0.0827 -0.0614 -0.0003
 5059TIP3    H136668   5.189   4.158  13.381 -0.5691 -1.5644  0.0050
 5059TIP3    H236669   5.331   4.163  13.431 -0.9580 -0.9213  1.0757
 5060TIP3   OH236670   4.933   5.529   2.093 -0.0756 -0.0456 -0.2913
 5060TIP3    H136671   5.010   5.585   2.104 -0.2722 -0.0598  1.2200
 5060TIP3    H236672   4.943   5.491   2.005  0.7150  1.3478 -0.8108
 5061TIP3   OH236673   2.758   6.777   0.547  0.5874 -0.2122 -0.5862
 5061TIP3    H136674   2.663   6.761   0.549  0.2808  1.4964 -0.4525
 5061TIP3    H236675   2.768   6.848   0.484  1.7972 -0.4551 -0.6632
 5062TIP3   OH236676   1.505   1.995   2.327  0.0223 -0.2333 -0.2708
 5062TIP3    H136677   1.555   2.048   2.388  0.2405 -2.6045  1.7223
 5062TIP3    H236678   1.419   2.036   2.324  0.2073  0.2814  1.1585
 5063TIP3   OH236679   6.458   5.285   5.369 -0.3261 -0.0157  0.6377
 5063TIP3    H136680   6.386   5.287   5.306  1.8833  0.5830 -1.9666
 5063TIP3    H236681   6.492   5.375   5.368  0.3308 -0.2480  1.9751
 5064TIP3   OH236682   2.079   1.969   6.365 -0.7032  0.1804 -0.0902
 5064TIP3    H136683   2.052   1.990   6.454  1.5098  3.2934 -0.0498
 5064TIP3    H236684   2.006   1.998   6.310 -0.4518  1.9349  0.4809
 5065TIP3   OH236685   5.879   5.577   1.549  0.1725  0.1255  0.2086
 5065TIP3    H136686   5.854   5.485   1.541  0.5858  0.0904 -0.7668
 5065TIP3    H236687   5.830   5.609   1.625  0.7082 -1.1280  1.0962
 5066TIP3   OH236688   6.579   0.006  13.788  0.4703 -0.2970 -0.1674
 5066TIP3    H136689   6.602  -0.044  13.866 -1.4421 -1.9697 -0.6175
 5066TIP3    H236690   6.486   0.026  13.798  0.8805  2.0744 -0.6347
 5067TIP3   OH236691   0.110   3.067  14.473 -0.1694  0.4231  0.1016
 5067TIP3    H136692   0.050   3.059  14.399  0.3261  2.2670 -0.5091
 5067TIP3    H236693   0.197   3.064  14.434  0.2283 -2.7343  1.0333
 5068TIP3   OH236694   0.256   5.917  12.709  0.3910 -0.5272 -0.3541
 5068TIP3    H136695   0.298   5.856  12.771 -2.6611 -2.5520 -0.1484
 5068TIP3    H236696   0.280   5.884  12.623  1.3340 -0.1112 -0.2569
 5069TIP3   OH236697   1.918   4.294  12.713  0.0586  0.2276  1.1545
 5069TIP3    H136698   1.980   4.230  12.681 -0.0209  0.0276  1.3980
 5069TIP3    H236699   1.883   4.336  12.634 -0.7741 -0.8610  0.9377
 5070TIP3   OH236700   4.779   3.803   4.666 -0.3098 -0.2497 -0.1427
 5070TIP3    H136701   4.859   3.760   4.695 -0.6267 -1.2867 -0.7454
 5070TIP3    H236702   4.805   3.853   4.588 -0.2270 -0.5356 -0.3004
 5071TIP3   OH236703   3.361   0.664   3.221 -0.3829  0.4351 -0.2589
 5071TIP3    H136704   3.331   0.574   3.208 -0.8646  0.3325  1.4307
 5071TIP3    H236705   3.444   0.656   3.268  1.4222  0.7915 -3.1933
 5072TIP3   OH236706   5.270   3.663   0.154  0.1970 -0.3381 -0.2124
 5072TIP3    H136707   5.239   3.574   0.173 -0.4309  0.2064  1.4800
 5072TIP3    H236708   5.353   3.670   0.200 -0.6469  0.5388  1.2296
 5073TIP3   OH236709   2.308   4.019   5.428  0.6599  0.1724 -0.1996
 5073TIP3    H136710   2.269   4.098   5.466  0.9366 -0.0414  0.5425
 5073TIP3    H236711   2.398   4.018   5.461  1.0614  0.2442 -1.2726
 5074TIP3   OH236712   3.495   0.237  13.980  0.2706  0.3542  0.1218
 5074TIP3    H136713   3.581   0.234  13.939 -0.3369  1.3253 -1.2624
 5074TIP3    H236714   3.475   0.331  13.985 -0.0325  0.2115  1.8828
 5075TIP3   OH236715   5.830   5.606  16.982  0.1848 -0.1855  0.2432
 5075TIP3    H136716   5.781   5.531  16.949 -1.0274  0.4656  0.5366
 5075TIP3    H236717   5.763   5.671  17.005  1.2205  1.1948 -0.5203
 5076TIP3   OH236718   5.798   6.535   2.745 -0.2912 -0.2400 -0.6659
 5076TIP3    H136719   5.761   6.450   2.769  1.3073 -0.4650  1.0810
 5076TIP3    H236720   5.858   6.515   2.673 -0.9995 -0.3679 -1.2276
 5077TIP3   OH236721   4.779   5.760  11.754  0.4495  0.0929  0.0858
 5077TIP3    H136722   4.761   5.817  11.828  0.3730  0.1984 -0.0134
 5077TIP3    H236723   4.727   5.682  11.770  2.4336 -0.9725  1.4743
 5078TIP3   OH236724   3.696   4.801  12.192 -0.1025  0.1007 -0.5443
 5078TIP3    H136725   3.762   4.816  12.125  0.2489  0.0627 -0.2030
 5078TIP3    H236726   3.719   4.716  12.230 -0.7237 -0.2147 -0.8709
 5079TIP3   OH236727   0.170   5.338  11.917 -0.1515  0.6445 -0.1303
 5079TIP3    H136728   0.125   5.418  11.891 -0.2148  0.2867 -1.1083
 5079TIP3    H236729   0.170   5.283  11.839  0.5018 -0.0365  0.3436
 5080TIP3   OH236730   3.374   2.432   0.522 -0.2457 -0.5526  0.2104
 5080TIP3    H136731   3.382   2.502   0.586  2.0155 -0.6835  0.1213
 5080TIP3    H236732   3.280   2.424   0.506 -0.5237  2.5306  0.1040
 5081TIP3   OH236733   0.079   4.664  12.024  0.5801  0.4269  0.5513
 5081TIP3    H136734   0.125   4.735  11.979  0.4441  0.3209  0.2452
 5081TIP3    H236735   0.083   4.688  12.116  3.1639 -0.6577  0.7761
 5082TIP3   OH236736   4.305   1.674  14.627 -0.3068 -0.3940 -0.0950
 5082TIP3    H136737   4.298   1.733  14.552 -2.5232  0.2345  0.5704
 5082TIP3    H236738   4.298   1.587  14.589  1.3405 -0.2024 -0.8994
 5083TIP3   OH236739   1.915   0.648   1.083 -0.0540 -0.3588 -0.3921
 5083TIP3    H136740   1.850   0.579   1.077  1.3323 -1.7828  0.7146
 5083TIP3    H236741   1.998   0.603   1.100  0.7226  1.6065  1.3195
 5084TIP3   OH236742   4.777   5.557  12.066  0.1966 -0.3364 -0.4192
 5084TIP3    H136743   4.810   5.559  12.156  0.4932 -0.6297 -0.5195
 5084TIP3    H236744   4.855   5.539  12.013  0.0842  0.1715 -0.7649
 5085TIP3   OH236745   5.964   2.759  16.054  0.4888  0.0546  0.0013
 5085TIP3    H136746   5.971   2.803  16.139  0.6186  1.2289 -0.6107
 5085TIP3    H236747   5.894   2.805  16.009  0.2254 -0.7589 -0.4201
 5086TIP3   OH236748   4.754   6.680   4.034  0.2062  0.2458 -0.5731
 5086TIP3    H136749   4.839   6.653   4.068  0.4844  1.0971 -0.5761
 5086TIP3    H236750   4.765   6.773   4.014 -0.2215 -0.0304 -2.1420
 5087TIP3   OH236751   6.124   5.353   2.164  0.3658 -0.3220 -0.6100
 5087TIP3    H136752   6.060   5.286   2.140  0.5014 -0.2898 -1.0703
 5087TIP3    H236753   6.206   5.304   2.176  0.5176 -0.2075 -1.1797
 5088TIP3   OH236754   4.108   3.473   0.969  0.0097 -0.2600 -0.2271
 5088TIP3    H136755   4.090   3.488   0.876 -2.4967 -0.9254  0.0937
 5088TIP3    H236756   4.061   3.544   1.013  1.7335  0.4307  0.5080
 5089TIP3   OH236757   3.643   6.101   3.489 -0.3007 -0.9557  0.0036
 5089TIP3    H136758   3.559   6.106   3.443 -0.1150  0.0167 -0.2471
 5089TIP3    H236759   3.706   6.076   3.421  0.0393  0.8580 -0.3832
 5090TIP3   OH236760   5.712   5.663   2.527 -0.2428  0.2958  0.5128
 5090TIP3    H136761   5.674   5.581   2.560 -1.7336  0.9699  0.5498
 5090TIP3    H236762   5.645   5.729   2.547  1.6907  1.8272  2.0777
 5091TIP3   OH236763   5.953   3.437  15.967 -0.0254  0.2064  0.3264
 5091TIP3    H136764   5.976   3.351  16.002 -0.0067  0.0803  0.0061
 5091TIP3    H236765   6.021   3.455  15.901 -1.3013 -0.5472 -1.2359
 5092TIP3   OH236766   0.773   6.246   6.058  0.0556 -0.2874  0.3928
 5092TIP3    H136767   0.784   6.163   6.012 -0.8071 -0.0734 -0.2122
 5092TIP3    H236768   0.715   6.297   6.001  0.6707  0.7674  0.6991
 5093TIP3   OH236769   2.620   0.149  17.121 -0.0422 -0.3920 -0.1191
 5093TIP3    H136770   2.620   0.170  17.027 -1.2293  2.6814  0.4913
 5093TIP3    H236771   2.708   0.170  17.151  0.3867 -1.5325 -0.5544
 5094TIP3   OH236772   5.015   2.757  14.777 -0.0241 -0.0472  0.5767
 5094TIP3    H136773   5.087   2.779  14.836  0.9601  0.9360 -0.9389
 5094TIP3    H236774   5.030   2.666  14.753  0.1283 -0.1538  1.0758
 5095TIP3   OH236775   1.006   2.109  15.698 -0.5637  0.6287 -0.6108
 5095TIP3    H136776   0.940   2.141  15.759 -0.3047  2.8720 -1.4689
 5095TIP3    H236777   0.986   2.153  15.615  1.5700  0.8040 -1.0629
 5096TIP3   OH236778   6.061   1.646   1.247  0.0065  0.0281 -0.2673
 5096TIP3    H136779   6.042   1.671   1.338  0.8695 -2.5915  0.6593
 5096TIP3    H236780   5.975   1.629   1.209 -0.2976  0.2301  0.3141
 5097TIP3   OH236781   2.451   1.737   6.066 -0.0953 -0.3945 -0.4153
 5097TIP3    H136782   2.526   1.762   6.120 -0.3198 -0.6079  0.0076
 5097TIP3    H236783   2.487   1.722   5.979  0.4550 -1.0732 -0.0824
 5098TIP3   OH236784   0.947   3.957   3.891 -0.1743  0.4875  0.2554
 5098TIP3    H136785   1.005   3.884   3.867  0.2652  1.5440 -2.0084
 5098TIP3    H236786   0.859   3.920   3.889  0.2170 -0.4929  1.1451
 5099TIP3   OH236787   0.068   5.592  11.852 -0.1231 -0.6140 -0.1489
 5099TIP3    H136788   0.147   5.645  11.846 -1.6115  1.8522  1.5339
 5099TIP3    H236789   0.052   5.564  11.761  0.7557  1.7382 -1.0743
 5100TIP3   OH236790   6.330   0.294   3.142 -0.4730  0.2073 -0.4306
 5100TIP3    H136791   6.363   0.236   3.210  1.5161 -0.9483 -2.3136
 5100TIP3    H236792   6.387   0.371   3.146 -0.4733  0.2200 -0.6685
 5101TIP3   OH236793   6.761   1.058  13.277 -0.1522  0.1549  0.0976
 5101TIP3    H136794   6.716   0.985  13.319  1.2027 -2.4552 -2.8319
 5101TIP3    H236795   6.843   1.067  13.327  1.3198 -2.7364 -1.6650
 5102TIP3   OH236796   0.875   4.333  10.545 -0.1313 -0.5774 -0.2984
 5102TIP3    H136797   0.963   4.370  10.547 -0.7245  0.8571  0.2360
 5102TIP3    H236798   0.817   4.410  10.543 -1.3708 -1.4981 -0.4495
 5103TIP3   OH236799   1.397   0.267  16.095  0.0968  0.2087  0.2305
 5103TIP3    H136800   1.307   0.234  16.099  0.4823 -0.8026  0.6459
 5103TIP3    H236801   1.409   0.293  16.004  0.0434 -1.5334 -0.2938
 5104TIP3   OH236802   5.928   4.793   0.367  0.1530  0.0283  0.5688
 5104TIP3    H136803   5.877   4.873   0.355  0.4065  0.1808  0.5043
 5104TIP3    H236804   5.937   4.783   0.462  2.6397  1.6895  0.5502
 5105TIP3   OH236805   0.479   1.952   0.044  0.0913 -0.8125  0.2883
 5105TIP3    H136806   0.399   2.004   0.035  0.8306  0.8425  2.9721
 5105TIP3    H236807   0.490   1.911  -0.042 -1.8642  1.4846 -1.1169
 5106TIP3   OH236808   3.700   6.265  16.995  0.1196 -0.1249  0.3355
 5106TIP3    H136809   3.786   6.282  17.034  0.2621  1.7808 -0.7262
 5106TIP3    H236810   3.720   6.215  16.916 -0.0683 -2.8814  1.9926
 5107TIP3   OH236811   2.071   0.480  11.917  0.0009 -0.6495 -0.3280
 5107TIP3    H136812   2.158   0.501  11.883  0.4760 -2.3499 -0.2174
 5107TIP3    H236813   2.045   0.400  11.871 -0.5646 -1.3892  1.2152
 5108TIP3   OH236814   1.823   2.562  13.192  0.2560  0.2511 -0.0090
 5108TIP3    H136815   1.873   2.526  13.119 -1.4295 -0.7631 -0.6818
 5108TIP3    H236816   1.882   2.627  13.231  3.4711 -3.2054  1.3165
 5109TIP3   OH236817   2.116   5.549   5.167  0.0370 -0.3238  0.5586
 5109TIP3    H136818   2.118   5.556   5.263  0.4266  0.2415  0.5155
 5109TIP3    H236819   2.186   5.607   5.138  1.1097 -1.8662 -0.0040
 5110TIP3   OH236820   0.770   1.373   6.071  0.7564  0.2193 -0.4810
 5110TIP3    H136821   0.748   1.375   6.164  0.6387 -3.4972 -0.3455
 5110TIP3    H236822   0.806   1.460   6.052  0.7502  1.0316  3.0044
 5111TIP3   OH236823   1.340   3.657   3.954  0.5086 -0.2621  0.4141
 5111TIP3    H136824   1.253   3.695   3.967  1.0645  0.5193  1.8833
 5111TIP3    H236825   1.345   3.587   4.019  0.1689 -1.7148 -1.0997
 5112TIP3   OH236826   5.599   0.388   6.759  0.2212  0.2942  0.0114
 5112TIP3    H136827   5.549   0.466   6.780 -1.8671 -0.8126 -0.7295
 5112TIP3    H236828   5.549   0.316   6.798 -0.1552 -1.1071 -2.9413
 5113TIP3   OH236829   0.205   2.113   1.855 -0.2215 -0.0222 -0.0052
 5113TIP3    H136830   0.170   2.190   1.810  1.4980  1.4976  1.1934
 5113TIP3    H236831   0.223   2.143   1.944  1.4904 -1.5141  0.1810
 5114TIP3   OH236832   0.933   2.910  11.583 -0.1132 -0.5209  0.0177
 5114TIP3    H136833   0.959   2.822  11.611  0.0661  0.0046  1.5468
 5114TIP3    H236834   0.873   2.940  11.651  0.7284  0.9859  0.1140
 5115TIP3   OH236835   6.441   0.214  13.341 -0.1632  0.0626  0.2728
 5115TIP3    H136836   6.457   0.119  13.343  0.6176  0.1424 -1.4584
 5115TIP3    H236837   6.372   0.228  13.406  0.7892 -1.4850  1.6529
 5116TIP3   OH236838   1.495   5.675   6.212 -0.0948 -0.5486  0.5436
 5116TIP3    H136839   1.533   5.754   6.249  1.4113 -1.6178  1.3580
 5116TIP3    H236840   1.429   5.647   6.275  0.6286 -0.9168  1.1460
 5117TIP3   OH236841   4.098   6.256   3.546  0.4191 -0.5238 -0.4117
 5117TIP3    H136842   4.135   6.177   3.507  0.5404  0.2548 -1.9073
 5117TIP3    H236843   4.165   6.287   3.606  1.6749  0.1180 -2.0888
 5118TIP3   OH236844   6.301   1.492   0.654  0.2389 -0.2388 -0.3086
 5118TIP3    H136845   6.332   1.565   0.600  0.0140  1.3575  1.6631
 5118TIP3    H236846   6.377   1.435   0.663  0.4546 -0.2035 -1.7692
 5119TIP3   OH236847   5.019   6.243   5.551 -0.2845  0.0715 -0.3511
 5119TIP3    H136848   5.011   6.224   5.458 -1.3432 -0.8474 -0.0733
 5119TIP3    H236849   5.081   6.316   5.555  0.9188 -0.8599 -1.6631
 5120TIP3   OH236850   0.357   0.734   5.087 -0.3046  0.0910  0.2104
 5120TIP3    H136851   0.401   0.649   5.080  0.1589  0.3265  0.3002
 5120TIP3    H236852   0.402   0.790   5.024  0.3579  0.6903  1.2021
 5121TIP3   OH236853   0.043   1.497   5.461  0.1066 -0.5473  0.4060
 5121TIP3    H136854   0.095   1.521   5.538  0.7820  0.3064 -0.2991
 5121TIP3    H236855   0.108   1.480   5.393 -0.5444  1.6548 -0.8107
 5122TIP3   OH236856   4.135   1.369   6.293  0.0590  0.2726 -0.3028
 5122TIP3    H136857   4.144   1.274   6.289  0.1750  0.3084 -1.0190
 5122TIP3    H236858   4.221   1.403   6.271 -0.2642  0.5506 -1.1579
 5123TIP3   OH236859   0.963   6.033   3.093 -0.2912  0.7493 -0.7196
 5123TIP3    H136860   0.871   6.020   3.071 -0.6678  1.7190  0.2370
 5123TIP3    H236861   0.968   6.019   3.188  0.4590  1.0947 -0.6982
 5124TIP3   OH236862   5.371   0.755  14.510 -0.2117 -0.2575 -0.0604
 5124TIP3    H136863   5.351   0.785  14.598 -1.3665 -0.7474 -0.1468
 5124TIP3    H236864   5.293   0.705  14.483 -0.9450  1.9524 -2.2962
 5125TIP3   OH236865   6.419   6.089  11.268  0.3493  0.0480 -0.4190
 5125TIP3    H136866   6.430   6.001  11.231  3.1570 -0.0958  0.6252
 5125TIP3    H236867   6.331   6.088  11.306  0.3686 -2.3311 -0.3641
 5126TIP3   OH236868   6.023   4.792  11.347  0.1726 -0.9210 -0.3205
 5126TIP3    H136869   5.961   4.814  11.277 -0.2973 -0.9548  0.0863
 5126TIP3    H236870   6.106   4.832  11.318 -0.5945  1.1766  0.2771
 5127TIP3   OH236871   0.134   1.599  12.280  0.0948 -0.4753 -0.7354
 5127TIP3    H136872   0.213   1.636  12.243 -0.4360 -0.4186 -1.8240
 5127TIP3    H236873   0.165   1.540  12.350  0.9186  2.8053  1.7868
 5128TIP3   OH236874   1.475   3.776   3.534 -0.4184 -0.2316 -0.3777
 5128TIP3    H136875   1.528   3.713   3.484  0.9718 -0.0365  0.8226
 5128TIP3    H236876   1.385   3.744   3.525  0.0611 -1.3721 -1.2788
 5129TIP3   OH236877   4.218   2.775   0.217  0.7824  0.0262  0.0784
 5129TIP3    H136878   4.142   2.724   0.243  0.1951  0.7648 -0.1959
 5129TIP3    H236879   4.201   2.864   0.249  0.2880  0.8342 -2.2960
 5130TIP3   OH236880   1.841   3.799  13.258  0.0830  0.1852  0.4102
 5130TIP3    H136881   1.748   3.778  13.268 -0.1082  0.1557 -1.2758
 5130TIP3    H236882   1.869   3.829  13.345 -1.2790 -0.6654  1.1485
 5131TIP3   OH236883   0.670   4.838  13.731  0.1372 -0.0888 -1.0568
 5131TIP3    H136884   0.631   4.753  13.750 -1.5209  0.6097 -1.2278
 5131TIP3    H236885   0.684   4.877  13.817 -1.5191  0.5012 -1.0296
 5132TIP3   OH236886   4.425   5.755   4.685 -0.1230 -0.1906  0.4677
 5132TIP3    H136887   4.433   5.850   4.684 -0.3397 -0.1775 -0.1756
 5132TIP3    H236888   4.498   5.726   4.740  1.0468  0.2499 -0.8156
 5133TIP3   OH236889   3.561   3.767  12.289  0.1761 -0.3551 -0.2003
 5133TIP3    H136890   3.564   3.809  12.374  0.3376  0.9857 -0.8519
 5133TIP3    H236891   3.638   3.711  12.286  1.1343  0.9409 -0.1473
 5134TIP3   OH236892   2.996   0.732  14.771 -0.2951 -0.0138 -0.3677
 5134TIP3    H136893   3.018   0.639  14.770  1.8383  0.4724 -0.7449
 5134TIP3    H236894   2.907   0.736  14.736 -1.2898 -2.1099  1.7353
 5135TIP3   OH236895   0.262   4.560   2.028  0.1382 -0.1332  0.5836
 5135TIP3    H136896   0.217   4.480   2.054 -1.2125  0.8120  1.2754
 5135TIP3    H236897   0.198   4.605   1.972  1.4618 -0.2518 -1.0292
 5136TIP3   OH236898   1.178   1.527   4.720  0.6576  0.3943  0.5471
 5136TIP3    H136899   1.241   1.562   4.784  0.1837  2.6972 -0.1714
 5136TIP3    H236900   1.096   1.570   4.743 -0.1531 -0.8899  0.0861
 5137TIP3   OH236901   3.614   3.831  14.168  0.2060  0.1167 -0.1718
 5137TIP3    H136902   3.519   3.844  14.171 -0.0142 -1.5151  0.1258
 5137TIP3    H236903   3.635   3.832  14.074  0.1804  2.3060 -0.1896
 5138TIP3   OH236904   3.067   6.668  13.832 -0.0611  0.0866 -0.5985
 5138TIP3    H136905   3.086   6.750  13.786  0.5005  0.2543 -0.0764
 5138TIP3    H236906   3.043   6.695  13.920  0.8163 -0.3469 -0.2178
 5139TIP3   OH236907   6.660   4.199  12.675  0.4147 -0.1068 -0.0521
 5139TIP3    H136908   6.713   4.278  12.684 -1.0153  0.7026  1.6648
 5139TIP3    H236909   6.649   4.167  12.764  0.4464 -1.9084 -0.6697
 5140TIP3   OH236910   2.774   0.928  13.610  0.2175  0.7170 -0.6877
 5140TIP3    H136911   2.769   0.832  13.618  1.7182  0.4400 -2.7535
 5140TIP3    H236912   2.759   0.945  13.517 -0.1657  2.5142 -0.3111
 5141TIP3   OH236913   1.396   5.999   2.571 -0.0928  0.4183  0.1174
 5141TIP3    H136914   1.475   5.951   2.543 -0.3804  1.0066 -1.7693
 5141TIP3    H236915   1.333   5.984   2.500 -0.4014  3.0749 -0.2134
 5142TIP3   OH236916   2.451   0.314   1.984 -0.7442 -0.0020  0.8536
 5142TIP3    H136917   2.424   0.364   1.906  2.0205  0.5310  0.1961
 5142TIP3    H236918   2.411   0.228   1.973 -1.5055  0.5127 -0.4825
 5143TIP3   OH236919   5.280   2.459  11.036 -0.0703 -0.3081 -0.2689
 5143TIP3    H136920   5.347   2.507  10.988 -1.0470  0.6195 -0.7128
 5143TIP3    H236921   5.290   2.488  11.127 -0.3861  0.4115 -0.4657
 5144TIP3   OH236922   2.767   0.054  11.355 -0.4955  0.1659 -0.8882
 5144TIP3    H136923   2.836   0.026  11.295  0.8328 -0.2905  0.7996
 5144TIP3    H236924   2.708   0.106  11.301  0.9520  0.2237 -2.4663
 5145TIP3   OH236925   2.339   6.481  14.592  0.6527 -0.3079  0.1120
 5145TIP3    H136926   2.246   6.492  14.611  0.8892  1.2180  0.4983
 5145TIP3    H236927   2.355   6.536  14.515  1.3527 -0.0125  0.4550
 5146TIP3   OH236928   2.635   1.128  13.739  0.4654 -0.5906 -0.0387
 5146TIP3    H136929   2.605   1.073  13.812  1.5838 -0.2629  0.6860
 5146TIP3    H236930   2.708   1.078  13.701 -0.0210 -0.6908 -0.8483
 5147TIP3   OH236931   6.459   3.877  14.280  0.2641 -0.3458  1.0843
 5147TIP3    H136932   6.380   3.924  14.308  0.0984 -0.5857  1.0280
 5147TIP3    H236933   6.481   3.820  14.354 -0.7843 -1.7529  0.3531
 5148TIP3   OH236934   0.486   5.443   1.586  0.2451  0.0580 -0.4119
 5148TIP3    H136935   0.487   5.401   1.500 -1.0212  1.1196 -0.9495
 5148TIP3    H236936   0.528   5.528   1.573 -1.5691  0.9822 -0.3958
 5149TIP3   OH236937   3.743   2.500  11.597 -0.0160  0.2244  0.3209
 5149TIP3    H136938   3.798   2.572  11.566 -1.2467  1.3017  0.5721
 5149TIP3    H236939   3.729   2.519  11.690  1.2319 -1.3924  0.8509
 5150TIP3   OH236940   5.370   5.085  14.673 -0.0202  0.3348 -0.2543
 5150TIP3    H136941   5.300   5.150  14.664  0.6367  1.1483  0.3713
 5150TIP3    H236942   5.331   5.004  14.642 -0.5268  1.2451 -2.0718
 5151TIP3   OH236943   3.074   4.882   3.848  1.2067  0.0267  0.1151
 5151TIP3    H136944   3.105   4.886   3.758  1.4168  2.2758  0.2649
 5151TIP3    H236945   3.063   4.789   3.866  3.3688 -0.5602 -1.4701
 5152TIP3   OH236946   0.757   6.300  15.876  0.6277  0.2928 -0.1203
 5152TIP3    H136947   0.756   6.265  15.965 -1.0704  0.2421 -0.1380
 5152TIP3    H236948   0.702   6.239  15.826  0.6638  0.9370 -0.9557
 5153TIP3   OH236949   6.552   1.638   4.770 -0.4159  0.3351 -0.4269
 5153TIP3    H136950   6.547   1.594   4.685  0.7203 -0.8957  0.1283
 5153TIP3    H236951   6.477   1.604   4.819 -2.0980  2.3846 -1.5402
 5154TIP3   OH236952   6.586   0.508  11.131  0.6416 -0.0094  0.3265
 5154TIP3    H136953   6.600   0.421  11.170  0.5564  0.0494  0.4904
 5154TIP3    H236954   6.493   0.526  11.146  0.5096 -0.1689 -0.2770
 5155TIP3   OH236955   1.729   6.818   2.259 -0.0393  0.6723 -0.4546
 5155TIP3    H136956   1.647   6.815   2.210 -0.5285  2.3367  0.2169
 5155TIP3    H236957   1.794   6.849   2.196 -0.0035 -0.2481 -0.8783
 5156TIP3   OH236958   3.461   2.628   0.018  0.1985  0.6880 -0.4583
 5156TIP3    H136959   3.464   2.634   0.114 -0.8542  1.4584 -0.4600
 5156TIP3    H236960   3.541   2.583  -0.006  0.3955  0.3486  0.8086
 5157TIP3   OH236961   0.076   3.666   1.876 -0.2691 -0.6458 -0.0588
 5157TIP3    H136962   0.171   3.659   1.876 -0.2140 -0.2258 -1.7495
 5157TIP3    H236963   0.050   3.637   1.788 -1.5593  0.7290 -0.1520
 5158TIP3   OH236964   5.249   4.171   3.239  0.2574  0.6960  0.1680
 5158TIP3    H136965   5.209   4.094   3.279 -0.5441  0.5842 -0.8302
 5158TIP3    H236966   5.180   4.208   3.184  1.1635  1.1542 -0.6805
 5159TIP3   OH236967   4.661   3.733  13.777  0.0199 -0.2944  0.2301
 5159TIP3    H136968   4.747   3.753  13.814  0.1375 -1.1783  0.4395
 5159TIP3    H236969   4.642   3.644  13.807 -0.7191 -0.3121 -0.2816
 5160TIP3   OH236970   5.203   2.737  11.726  0.4193  0.4023 -0.2611
 5160TIP3    H136971   5.133   2.753  11.661 -1.1808  0.4650  1.4333
 5160TIP3    H236972   5.280   2.780  11.689 -0.5203  0.6165 -2.0358
 5161TIP3   OH236973   4.366   5.723  14.900  1.0276  0.5859  0.7737
 5161TIP3    H136974   4.294   5.746  14.959  0.0294 -0.2580 -0.0924
 5161TIP3    H236975   4.348   5.771  14.819  0.1863 -1.3499 -0.2316
 5162TIP3   OH236976   1.979   1.700  16.934 -0.2600  0.2503  0.6977
 5162TIP3    H136977   1.967   1.628  16.872 -2.1214  2.1552 -1.2464
 5162TIP3    H236978   1.937   1.670  17.014 -0.7329 -0.9672  0.0067
 5163TIP3   OH236979   4.399   2.434   1.336 -0.4396  0.1169  0.2488
 5163TIP3    H136980   4.420   2.440   1.243 -0.8173  1.3496  0.2228
 5163TIP3    H236981   4.410   2.524   1.368  1.6332 -0.6651  1.8347
 5164TIP3   OH236982   3.815   5.974  14.831 -0.2338  0.3077 -0.0305
 5164TIP3    H136983   3.787   6.044  14.771  1.5266  0.9083 -0.1729
 5164TIP3    H236984   3.859   5.911  14.774 -0.1165  0.0249  0.3772
 5165TIP3   OH236985   6.074   2.913   5.517  0.0946  0.2800  0.4292
 5165TIP3    H136986   6.098   2.993   5.470 -0.0549  1.4111  2.2462
 5165TIP3    H236987   6.108   2.926   5.605  1.4160 -2.3272  0.3350
 5166TIP3   OH236988   0.393   0.831  11.763 -0.0267  0.3860 -0.0956
 5166TIP3    H136989   0.349   0.748  11.778  0.9313 -0.1279 -0.0356
 5166TIP3    H236990   0.406   0.835  11.668  0.9655 -0.0974  0.0067
 5167TIP3   OH236991   5.823   1.644  15.047 -0.6361  0.0247  0.2311
 5167TIP3    H136992   5.874   1.665  14.969 -2.0920  0.4464 -0.6056
 5167TIP3    H236993   5.890   1.626  15.114  0.6159  0.5427 -0.8515
 5168TIP3   OH236994   4.390   4.832   4.690 -0.0826 -0.5261 -0.1279
 5168TIP3    H136995   4.425   4.921   4.679  1.2129 -1.1735 -1.3554
 5168TIP3    H236996   4.295   4.844   4.687  0.0825  0.5048 -3.1887
 5169TIP3   OH236997   3.078   3.186   5.032  0.2616  0.4161  0.2559
 5169TIP3    H136998   3.019   3.115   5.010  1.1455 -0.0045 -0.8143
 5169TIP3    H236999   3.105   3.222   4.947  1.2479  0.8264  0.7285
 5170TIP3   OH237000   3.599   2.082  11.953 -0.8091 -0.5324 -0.3588
 5170TIP3    H137001   3.646   2.122  12.026 -0.8076  0.1645 -0.7398
 5170TIP3    H237002   3.562   2.156  11.904  1.4081 -0.8180 -2.5944
 5171TIP3   OH237003   0.255   0.705  16.574  0.4121  0.2868  0.3529
 5171TIP3    H137004   0.213   0.732  16.655  0.5781  0.5951  0.3367
 5171TIP3    H237005   0.342   0.674  16.601 -0.1119 -1.1009  0.4915
 5172TIP3   OH237006   0.553   4.890  17.071 -0.2825 -0.3422 -0.3744
 5172TIP3    H137007   0.569   4.975  17.111  0.3715 -1.0279  0.8563
 5172TIP3    H237008   0.462   4.894  17.041  0.1094  1.1953 -1.3918
 5173TIP3   OH237009   4.005   5.714  11.531 -0.3891  0.5940  0.4305
 5173TIP3    H137010   3.916   5.749  11.530 -0.2934  0.9015  2.1182
 5173TIP3    H237011   3.994   5.619  11.537 -0.6091  0.5258 -0.9298
 5174TIP3   OH237012   4.551   3.530   3.711  0.2321  0.2506 -0.3962
 5174TIP3    H137013   4.469   3.573   3.688 -0.7155 -1.0123  0.5879
 5174TIP3    H237014   4.614   3.602   3.716 -0.7627  1.2188 -1.2837
 5175TIP3   OH237015   3.394   1.114  15.837 -0.0626  0.7291  0.3915
 5175TIP3    H137016   3.342   1.034  15.826  0.2510  0.6881 -0.8275
 5175TIP3    H237017   3.457   1.113  15.765 -1.7107  3.3435 -1.1980
 5176TIP3   OH237018   0.160   5.530  14.910 -0.0479  0.0410  0.1314
 5176TIP3    H137019   0.232   5.592  14.903  0.4146 -0.5127  0.0036
 5176TIP3    H237020   0.098   5.572  14.970  1.6957 -0.7848  2.5889
 5177TIP3   OH237021   5.561   0.561  13.115 -0.0166  0.2276 -0.3196
 5177TIP3    H137022   5.617   0.577  13.039  1.5948  3.0995  1.3782
 5177TIP3    H237023   5.622   0.551  13.188 -1.6163  0.0757  1.0399
 5178TIP3   OH237024   1.786   3.862   1.382  0.0026  0.0258  0.5027
 5178TIP3    H137025   1.740   3.807   1.446 -1.8892  1.1870  0.1804
 5178TIP3    H237026   1.870   3.819   1.369 -0.9060 -2.0320  1.2788
 5179TIP3   OH237027   4.988   0.551  13.533 -0.6665  0.0368  0.1143
 5179TIP3    H137028   4.924   0.584  13.470 -0.8348  0.1932  0.3671
 5179TIP3    H237029   5.050   0.623  13.543 -0.4834 -0.0931 -0.0853
 5180TIP3   OH237030   0.242   6.693   3.401 -0.3302  0.0949 -0.3330
 5180TIP3    H137031   0.274   6.604   3.414 -0.0502  0.2442  0.0183
 5180TIP3    H237032   0.154   6.682   3.366 -0.4952 -0.3194  0.2007
 5181TIP3   OH237033   0.456   4.219  15.106 -0.7361  0.1270 -0.0102
 5181TIP3    H137034   0.439   4.307  15.073  0.2166  0.8465  1.3514
 5181TIP3    H237035   0.419   4.219  15.195  1.9893  0.1846  1.1817
 5182TIP3   OH237036   2.120   3.050   2.705  0.2875  0.4871 -0.3695
 5182TIP3    H137037   2.172   3.044   2.785  1.1966 -0.3834 -1.0200
 5182TIP3    H237038   2.099   2.959   2.682 -2.1408  0.8432  0.2748
 5183TIP3   OH237039   3.782   6.808  14.047 -0.5995  0.5230  0.3417
 5183TIP3    H137040   3.864   6.779  14.006 -1.0904 -1.5624  0.7853
 5183TIP3    H237041   3.717   6.748  14.012 -1.6370  1.0157  1.4405
 5184TIP3   OH237042   4.143   1.220  14.678 -0.4569 -0.4925  0.0424
 5184TIP3    H137043   4.069   1.192  14.625 -0.3149 -0.5196 -0.1379
 5184TIP3    H237044   4.111   1.211  14.769 -0.5851 -0.7469 -0.0264
 5185TIP3   OH237045   1.311   1.160  15.138  0.1195 -0.3982 -0.2967
 5185TIP3    H137046   1.391   1.198  15.103  0.6372 -1.1520  0.0512
 5185TIP3    H237047   1.248   1.166  15.066  0.0164  1.5913 -0.0797
 5186TIP3   OH237048   4.689   1.978  12.235 -0.7935  0.1979 -0.2053
 5186TIP3    H137049   4.691   1.893  12.280  0.9000  0.2604 -0.1124
 5186TIP3    H237050   4.598   2.006  12.240 -0.5325  0.5761  3.9463
 5187TIP3   OH237051   4.378   0.159  16.436  0.3872 -0.4456  0.1983
 5187TIP3    H137052   4.291   0.194  16.415 -0.3391 -2.4128 -0.1730
 5187TIP3    H237053   4.360   0.080  16.486  1.8764 -2.6269 -2.5821
 5188TIP3   OH237054   5.971   2.393  13.143 -0.1364  0.4527  0.1809
 5188TIP3    H137055   5.967   2.433  13.056 -0.2876 -0.2795 -0.1512
 5188TIP3    H237056   5.995   2.301  13.127 -2.9511 -0.4225  0.7013
 5189TIP3   OH237057   6.054   6.629  12.517  0.0684  0.4170 -0.6813
 5189TIP3    H137058   6.070   6.566  12.447  0.4136  1.0986 -1.2161
 5189TIP3    H237059   6.137   6.633  12.565 -0.9642 -2.0797  1.4385
 5190TIP3   OH237060   3.299   0.353  11.826  0.3806 -0.3205 -0.3775
 5190TIP3    H137061   3.239   0.388  11.892 -0.1111 -1.7197 -0.0790
 5190TIP3    H237062   3.252   0.280  11.787  1.8112 -1.3187 -0.2686
 5191TIP3   OH237063   3.829   6.618   3.555 -0.1355 -0.0970 -0.3070
 5191TIP3    H137064   3.882   6.563   3.498  0.2285 -0.6870  0.5936
 5191TIP3    H237065   3.890   6.654   3.619 -0.6684 -0.0929  0.2133
 5192TIP3   OH237066   4.718   3.857  14.668 -0.2518 -0.0244 -0.3061
 5192TIP3    H137067   4.678   3.801  14.735 -3.0310 -3.8488 -4.7560
 5192TIP3    H237068   4.647   3.872  14.605  2.7021  1.7051 -3.3716
 5193TIP3   OH237069   1.918   4.166   4.089 -0.5132  0.0935 -0.0496
 5193TIP3    H137070   1.920   4.261   4.076 -0.4118  0.1736  0.5563
 5193TIP3    H237071   1.956   4.152   4.175 -0.4169 -0.5111 -0.1840
 5194TIP3   OH237072   0.533   1.030   4.397 -0.1093  0.5188 -0.1163
 5194TIP3    H137073   0.457   1.030   4.456 -0.8596 -1.1961 -1.0417
 5194TIP3    H237074   0.567   0.941   4.402 -0.1175  0.3825 -2.1710
 5195TIP3   OH237075   0.918   0.254   4.538  0.1205  0.0642  0.2040
 5195TIP3    H137076   0.896   0.308   4.614  2.2775 -0.6449  1.3613
 5195TIP3    H237077   0.930   0.317   4.467 -4.3317  0.5709 -0.2234
 5196TIP3   OH237078   2.367   2.295  12.991 -0.2629  0.3026 -0.0677
 5196TIP3    H137079   2.321   2.265  13.070  0.3434  1.3729  0.7019
 5196TIP3    H237080   2.297   2.327  12.934 -0.6547  0.0941  0.2867
 5197TIP3   OH237081   3.289   4.345   3.961 -0.2571  0.2531 -0.0928
 5197TIP3    H137082   3.252   4.264   3.995  1.0672 -0.6785 -0.8056
 5197TIP3    H237083   3.358   4.367   4.024 -0.2806  0.5527 -0.1737
 5198TIP3   OH237084   2.128   6.372   5.829 -0.6405 -0.2809 -0.4919
 5198TIP3    H137085   2.064   6.439   5.804  0.0809 -0.1148 -1.9486
 5198TIP3    H237086   2.148   6.392   5.921 -1.5877  0.5496 -0.4495
 5199TIP3   OH237087   2.695   1.574  12.024  0.3708 -0.3297  0.6013
 5199TIP3    H137088   2.680   1.632  12.098 -0.5835  0.6198 -0.3232
 5199TIP3    H237089   2.674   1.486  12.057 -1.6742  0.2957  0.9784
 5200TIP3   OH237090   1.635   0.994   5.936  0.5218 -0.2974  0.0217
 5200TIP3    H137091   1.634   0.978   5.842 -1.0983 -2.1035  0.3102
 5200TIP3    H237092   1.723   1.027   5.954  0.5262  1.0289 -2.2604
 5201TIP3   OH237093   5.692   1.473  11.433 -0.3776 -0.1409  0.4073
 5201TIP3    H137094   5.728   1.391  11.467  1.2592  1.3862  2.5598
 5201TIP3    H237095   5.718   1.539  11.498 -1.5326  2.0982 -1.3268
 5202TIP3   OH237096   5.371   3.059  15.655 -0.0381  0.0331 -0.7028
 5202TIP3    H137097   5.380   3.153  15.642  0.5606  0.0583 -0.1075
 5202TIP3    H237098   5.276   3.044  15.657 -0.1331  0.7048 -0.2160
 5203TIP3   OH237099   0.363   5.471  12.798 -0.4428 -0.0811  0.3458
 5203TIP3    H137100   0.413   5.506  12.724 -0.1209 -0.3077  0.4538
 5203TIP3    H237101   0.328   5.547  12.842 -0.3402  0.0721  0.1652
 5204TIP3   OH237102   1.416   2.370  12.131  0.4433 -0.3165 -0.5499
 5204TIP3    H137103   1.322   2.384  12.138  0.4727  0.1372 -0.9775
 5204TIP3    H237104   1.452   2.408  12.211  0.0358 -2.8623  0.8809
 5205TIP3   OH237105   6.781   4.468   5.189  0.3847 -0.1188  0.4569
 5205TIP3    H137106   6.826   4.533   5.134  1.8014 -1.0039  0.5562
 5205TIP3    H237107   6.753   4.518   5.266 -0.2355  0.7892 -0.3361
 5206TIP3   OH237108   5.147   3.629  11.981  0.1009 -0.3169  0.2027
 5206TIP3    H137109   5.099   3.629  11.898  0.3083 -1.4285  0.0620
 5206TIP3    H237110   5.110   3.555  12.030  1.3577 -0.9348  0.2580
 5207TIP3   OH237111   1.736   6.020   0.237 -0.0855 -0.4559  0.0503
 5207TIP3    H137112   1.687   5.947   0.274 -0.1832 -1.0768 -1.2817
 5207TIP3    H237113   1.738   6.003   0.143  1.1064  0.5187 -0.1188
 5208TIP3   OH237114   5.745   4.052  11.740  0.1294 -0.0351  0.1579
 5208TIP3    H137115   5.702   3.980  11.694 -0.5378  1.0585 -0.9577
 5208TIP3    H237116   5.793   4.099  11.672  0.8856  0.3483  0.9500
 5209TIP3   OH237117   5.499   6.584  16.380 -0.0220 -0.1040 -0.0348
 5209TIP3    H137118   5.583   6.601  16.422 -0.7722 -0.1175  1.4971
 5209TIP3    H237119   5.518   6.514  16.317  1.4868  1.1615 -1.0342
 5210TIP3   OH237120   3.342   1.175  16.963  0.3666 -0.6364 -0.5988
 5210TIP3    H137121   3.359   1.268  16.951  2.9072 -0.9375  0.2072
 5210TIP3    H237122   3.338   1.164  17.058 -1.8472 -1.0454 -0.7300
 5211TIP3   OH237123   3.749   6.701   1.591  0.8370  0.3664  0.1591
 5211TIP3    H137124   3.755   6.643   1.666  0.7242 -0.5265 -0.5186
 5211TIP3    H237125   3.812   6.666   1.528 -1.3874 -0.8431 -1.4603
 5212TIP3   OH237126   6.565   1.321   1.333  0.2189 -0.7068 -0.1640
 5212TIP3    H137127   6.554   1.337   1.240 -2.1556 -0.8426  0.0621
 5212TIP3    H237128   6.659   1.331   1.348  0.2324  2.6318 -1.9485
 5213TIP3   OH237129   5.183   1.616   5.057  0.2301 -0.1016 -0.5349
 5213TIP3    H137130   5.149   1.538   5.102  0.3095  1.4410  2.2732
 5213TIP3    H237131   5.110   1.645   5.003 -0.6458 -0.7384  0.2778
 5214TIP3   OH237132   4.050   1.986   4.110 -0.0005  0.1319 -0.3658
 5214TIP3    H137133   3.960   2.006   4.084 -0.3409  0.1490  0.8061
 5214TIP3    H237134   4.067   1.899   4.073 -0.9961 -0.4962  0.6303
 5215TIP3   OH237135   3.532   5.597  13.370 -0.1786 -0.5722 -0.4097
 5215TIP3    H137136   3.520   5.635  13.283 -1.2213  0.5987  0.2213
 5215TIP3    H237137   3.570   5.668  13.422 -1.8390 -0.4465  0.6896
 5216TIP3   OH237138   0.885   5.340  15.235  0.5659 -0.0699  0.4318
 5216TIP3    H137139   0.829   5.278  15.187  1.9111 -0.8366 -0.1551
 5216TIP3    H237140   0.972   5.326  15.199  1.1630  1.0354  1.4486
 5217TIP3   OH237141   3.932   5.500   0.791  0.1126  0.3273 -0.5222
 5217TIP3    H137142   3.944   5.470   0.701 -0.0209  0.8960 -0.7347
 5217TIP3    H237143   4.004   5.460   0.839  0.1189 -0.0746 -0.8572
 5218TIP3   OH237144   1.999   3.986  14.967 -0.0475 -0.5663  0.0896
 5218TIP3    H137145   2.088   4.021  14.972  0.0735 -0.9292  0.4684
 5218TIP3    H237146   1.952   4.027  15.039 -0.5541  0.6507 -0.9071
 5219TIP3   OH237147   2.706   2.554   3.805 -0.3778  0.0847  0.4470
 5219TIP3    H137148   2.775   2.502   3.763  0.0901  0.2111  1.0428
 5219TIP3    H237149   2.638   2.490   3.826 -0.7232  0.0595 -0.7124
 5220TIP3   OH237150   6.573   0.146  11.402 -0.2948 -0.1074  0.2263
 5220TIP3    H137151   6.523   0.196  11.467 -0.6270 -1.4775  1.0509
 5220TIP3    H237152   6.587   0.060  11.443  2.0241 -0.0340 -0.3196
 5221TIP3   OH237153   3.078   2.495   5.299 -0.0821 -0.1086  0.1508
 5221TIP3    H137154   3.125   2.518   5.379  0.9584  1.5122 -0.8903
 5221TIP3    H237155   3.116   2.412   5.271 -0.8813 -0.9920  1.6556
 5222TIP3   OH237156   2.128   3.931   2.669 -0.1713 -0.0718 -0.1374
 5222TIP3    H137157   2.204   3.989   2.673  1.0489 -1.5539 -1.0838
 5222TIP3    H237158   2.053   3.988   2.682  1.1271  1.3807  1.1371
 5223TIP3   OH237159   5.003   6.745  15.293 -0.3558 -0.3303 -0.0720
 5223TIP3    H137160   5.080   6.708  15.335 -0.3310 -2.0945 -1.5975
 5223TIP3    H237161   4.986   6.826  15.341  2.0687 -0.2180  0.6943
 5224TIP3   OH237162   6.713   0.022  13.097  0.7870  0.2628  0.3691
 5224TIP3    H137163   6.688  -0.056  13.147 -0.1520  1.2106  1.4014
 5224TIP3    H237164   6.631   0.070  13.085  1.1494  0.5101 -1.3164
 5225TIP3   OH237165   2.174   3.837   4.330 -0.5474  0.2724  0.0091
 5225TIP3    H137166   2.162   3.931   4.323 -1.3741  0.3071  1.6251
 5225TIP3    H237167   2.188   3.808   4.240  2.0721  2.2094 -0.2553
 5226TIP3   OH237168   3.601   0.543  14.481  0.1093  0.8003  0.0986
 5226TIP3    H137169   3.511   0.512  14.469 -0.7568  3.6496 -1.0965
 5226TIP3    H237170   3.655   0.474  14.441 -1.6414 -0.0638 -0.8244
 5227TIP3   OH237171   0.310   0.839  15.646  0.5257  0.1345  0.2959
 5227TIP3    H137172   0.390   0.851  15.594  0.5949 -0.9181  0.1566
 5227TIP3    H237173   0.318   0.751  15.682 -0.5464  0.0516  0.3322
 5228TIP3   OH237174   0.957   5.239  15.936  0.2018 -0.1791  0.1670
 5228TIP3    H137175   1.005   5.157  15.929  0.1204 -0.3888  1.8586
 5228TIP3    H237176   0.888   5.233  15.871 -0.1743 -1.7211  0.7000
 5229TIP3   OH237177   4.070   4.881   0.879 -0.4643  0.0280 -0.1419
 5229TIP3    H137178   4.089   4.804   0.824 -0.0607 -0.2282  0.3527
 5229TIP3    H237179   4.112   4.861   0.963  2.0614  2.0100 -0.8830
 5230TIP3   OH237180   3.952   2.945   2.406 -0.4507  0.4351 -0.1787
 5230TIP3    H137181   3.874   2.936   2.462 -0.3068  1.9269  0.2898
 5230TIP3    H237182   3.977   2.856   2.386 -2.2703 -0.0838 -0.2920
 5231TIP3   OH237183   5.477   0.072   5.137  0.0541  0.3913 -0.4936
 5231TIP3    H137184   5.412   0.139   5.118  0.3221  0.9568  0.5185
 5231TIP3    H237185   5.475   0.063   5.233  0.6695 -0.3832 -0.5424
 5232TIP3   OH237186   4.415   1.447   2.143  0.0691 -0.4263 -0.0008
 5232TIP3    H137187   4.463   1.499   2.078  0.8183 -0.3115  0.6333
 5232TIP3    H237188   4.396   1.364   2.098  0.4496 -0.2866 -0.4235
 5233TIP3   OH237189   2.784   5.693  16.965  0.1676  0.3948  0.0691
 5233TIP3    H137190   2.759   5.759  16.901 -3.3040 -0.4966  0.4174
 5233TIP3    H237191   2.845   5.738  17.024 -0.4519  2.6247 -0.9683
 5234TIP3   OH237192   2.380   0.588   4.806  0.3143  0.4233 -0.3078
 5234TIP3    H137193   2.424   0.571   4.723  0.3360  1.2955 -0.4846
 5234TIP3    H237194   2.287   0.598   4.782  0.2372  0.0846 -0.1472
 5235TIP3   OH237195   4.639   6.203   3.809  0.4537  0.5405  0.4893
 5235TIP3    H137196   4.609   6.292   3.828 -1.3255 -0.1267  0.9253
 5235TIP3    H237197   4.597   6.148   3.875 -0.1711 -0.8956 -1.0614
 5236TIP3   OH237198   1.967   2.333   0.659  0.2816  0.2486 -0.2282
 5236TIP3    H137199   1.888   2.362   0.704  0.2269 -2.5289  1.5593
 5236TIP3    H237200   2.031   2.319   0.729  1.3661 -0.5629 -1.3544
 5237TIP3   OH237201   6.624   3.978  17.231  0.2664 -0.3992  0.4352
 5237TIP3    H137202   6.646   4.058  17.278 -1.0767  0.8573 -1.0505
 5237TIP3    H237203   6.709   3.940  17.208  0.9174 -0.0310  2.1689
 5238TIP3   OH237204   2.621   1.532   4.305 -0.5304 -0.3283  0.0188
 5238TIP3    H137205   2.602   1.533   4.398 -3.6052 -1.3558 -0.5399
 5238TIP3    H237206   2.657   1.444   4.289 -1.0515 -0.5525  0.0624
 5239TIP3   OH237207   0.601   6.051  11.841  0.2935 -0.2553 -0.1188
 5239TIP3    H137208   0.521   6.032  11.791  0.6109  2.2981 -1.6703
 5239TIP3    H237209   0.574   6.117  11.905  1.0470  0.3064 -0.3755
 5240TIP3   OH237210   3.478   1.600   4.712 -0.1267  0.3336 -0.1557
 5240TIP3    H137211   3.535   1.546   4.657  0.1620 -0.1541  0.6196
 5240TIP3    H237212   3.477   1.556   4.797 -3.8733 -1.2604 -0.9064
 5241TIP3   OH237213   0.724   0.410  14.620  0.6671 -0.3252  0.4248
 5241TIP3    H137214   0.671   0.355  14.562  1.5180 -0.3242 -0.3690
 5241TIP3    H237215   0.730   0.359  14.701 -0.4800 -0.3537  0.4983
 5242TIP3   OH237216   5.808   6.625   0.464  0.7139 -0.1003  0.2397
 5242TIP3    H137217   5.813   6.703   0.409 -2.5659  0.0930  0.1507
 5242TIP3    H237218   5.805   6.552   0.402 -0.1662 -0.0520  0.2228
 5243TIP3   OH237219   0.950   1.639   4.827 -0.4466  0.2532 -0.0780
 5243TIP3    H137220   0.907   1.724   4.817  1.3737  1.2097  0.0716
 5243TIP3    H237221   0.986   1.640   4.916 -1.6939 -1.2834  0.4621
 5244TIP3   OH237222   6.191   3.261   6.921  0.0439  0.5159  0.3855
 5244TIP3    H137223   6.220   3.188   6.977 -1.1764 -1.3187 -1.2913
 5244TIP3    H237224   6.245   3.335   6.948  1.8317 -1.1965  1.6653
 5245TIP3   OH237225   2.192   3.119  15.800  0.1738  0.3191  0.6920
 5245TIP3    H137226   2.132   3.044  15.799 -0.1912  0.5972  1.7891
 5245TIP3    H237227   2.147   3.186  15.748 -0.0854  0.2388  0.8121
 5246TIP3   OH237228   3.411   3.988  15.947 -0.1619  0.4044  0.2607
 5246TIP3    H137229   3.378   3.899  15.934  1.1103  0.0393 -0.5448
 5246TIP3    H237230   3.456   4.009  15.865 -0.0746  1.6360  0.6101
 5247TIP3   OH237231   2.467   5.155  14.063 -0.3235 -0.2387 -0.3672
 5247TIP3    H137232   2.474   5.247  14.038  2.7961 -0.0637  0.8520
 5247TIP3    H237233   2.394   5.152  14.125 -0.9094  1.2776 -0.9521
 5248TIP3   OH237234   4.036   4.804   2.876  0.2291  0.2533 -0.0818
 5248TIP3    H137235   4.094   4.853   2.819 -1.9194  1.4365 -1.3212
 5248TIP3    H237236   3.962   4.780   2.820 -0.0580 -2.0076  1.2104
 5249TIP3   OH237237   2.899   0.829  11.652 -0.0072  0.1980 -0.1888
 5249TIP3    H137238   2.868   0.912  11.689 -0.1513  0.6327 -1.2880
 5249TIP3    H237239   2.946   0.788  11.724 -3.0328 -0.4290  1.5274
 5250TIP3   OH237240   1.846   5.788   1.013 -0.5274 -0.6223  0.3796
 5250TIP3    H137241   1.921   5.729   1.003  0.0156  0.0874  0.2628
 5250TIP3    H237242   1.824   5.815   0.924 -0.3843 -0.1545  0.4884
 5251TIP3   OH237243   6.532   5.680   5.656 -0.6362 -0.2154  0.2953
 5251TIP3    H137244   6.520   5.700   5.749 -0.2540 -0.0305  0.3071
 5251TIP3    H237245   6.481   5.601   5.641  0.4157 -1.0427  0.9840
 5252TIP3   OH237246   1.589   2.994  15.615  0.2508 -0.7653  0.5506
 5252TIP3    H137247   1.681   3.020  15.620 -0.3348  1.2648  0.9072
 5252TIP3    H237248   1.589   2.921  15.553  1.9289  0.0458 -0.4383
 5253TIP3   OH237249   4.479   1.561  17.250 -0.0538 -0.0954  0.1341
 5253TIP3    H137250   4.491   1.654  17.270  0.6154 -0.1257 -0.1287
 5253TIP3    H237251   4.437   1.561  17.164  2.3480 -0.0809 -1.0720
 5254TIP3   OH237252   5.115   3.976   6.086  0.3347  0.5306 -0.1530
 5254TIP3    H137253   5.156   3.944   6.167 -0.5542 -0.9428 -0.2849
 5254TIP3    H237254   5.188   3.985   6.024  0.8016  0.2594  0.3590
 5255TIP3   OH237255   0.009   3.153   0.626  0.0702 -0.1224 -0.1455
 5255TIP3    H137256   0.101   3.137   0.645  0.0398  1.5746  1.5276
 5255TIP3    H237257  -0.036   3.139   0.709 -0.7372  2.3149 -0.1477
 5256TIP3   OH237258   5.518   0.733   2.076  0.1083  0.2210 -0.3843
 5256TIP3    H137259   5.556   0.646   2.067 -1.0333 -0.3882  0.5591
 5256TIP3    H237260   5.461   0.743   2.000  0.0965  0.0705 -0.3953
 5257TIP3   OH237261   2.052   1.715   4.677 -0.3795 -0.3700 -0.2669
 5257TIP3    H137262   1.981   1.762   4.722 -0.8376 -1.3138  0.0165
 5257TIP3    H237263   2.129   1.730   4.732 -0.3622  0.6686 -0.5802
 5258TIP3   OH237264   1.748   3.380   2.197  0.5831  0.5715 -0.1051
 5258TIP3    H137265   1.768   3.452   2.138  1.5666  0.5777  0.2284
 5258TIP3    H237266   1.762   3.415   2.285 -1.0181  0.6065  0.1587
 5259TIP3   OH237267   2.873   3.081  13.653 -0.0632  0.8693 -0.4738
 5259TIP3    H137268   2.926   3.099  13.576  0.3818  0.2089 -0.3267
 5259TIP3    H237269   2.826   3.001  13.632  1.3294 -0.2459  0.5713
 5260TIP3   OH237270   4.165   1.043   6.000  0.0882 -0.0338 -0.2724
 5260TIP3    H137271   4.238   1.025   6.059  0.6113  1.1411 -0.5472
 5260TIP3    H237272   4.143   0.958   5.962  1.7219 -0.2932 -0.6572
 5261TIP3   OH237273   3.379   4.364  15.559  0.3210 -1.2902  0.1273
 5261TIP3    H137274   3.305   4.367  15.498 -0.1069  0.9086  0.6794
 5261TIP3    H237275   3.456   4.376  15.504  0.0518 -0.9409 -0.1807
 5262TIP3   OH237276   1.157   0.946  16.440 -0.2062 -0.2587 -0.1878
 5262TIP3    H137277   1.238   0.980  16.477  1.3249 -2.5435 -1.2779
 5262TIP3    H237278   1.093   0.954  16.510  1.1230  1.0061  0.9135
 5263TIP3   OH237279   1.921   3.671  11.356 -0.1640 -0.2558 -0.7225
 5263TIP3    H137280   2.009   3.692  11.325  0.2749 -0.3778  0.4270
 5263TIP3    H237281   1.924   3.578  11.376 -0.7966 -0.4401 -1.4651
 5264TIP3   OH237282   5.506   6.243   3.550 -0.3138  0.4190 -0.3241
 5264TIP3    H137283   5.461   6.291   3.619  1.0187  0.0947  0.8107
 5264TIP3    H237284   5.470   6.278   3.469  0.9536  3.7702  0.4240
 5265TIP3   OH237285   4.886   3.182   6.063 -0.2474  0.3380  0.3131
 5265TIP3    H137286   4.791   3.183   6.055 -0.3546 -0.6533  1.3949
 5265TIP3    H237287   4.903   3.231   6.144 -0.0162 -2.0070  1.7050
 5266TIP3   OH237288   4.331   1.778   0.744 -0.5851 -0.2479 -0.0267
 5266TIP3    H137289   4.397   1.719   0.709 -0.0981  0.0852  0.3319
 5266TIP3    H237290   4.264   1.721   0.781 -0.5812 -0.5865 -0.5433
 5267TIP3   OH237291   6.356   6.365  12.386  0.0905 -0.3831  0.1525
 5267TIP3    H137292   6.431   6.364  12.446 -0.1412  1.5270  0.5065
 5267TIP3    H237293   6.350   6.275  12.353  1.4961 -0.9517  1.4073
 5268TIP3   OH237294   4.538   5.546  16.460 -0.4857  1.0147 -0.4829
 5268TIP3    H137295   4.570   5.623  16.507 -1.4400  1.0172  0.1704
 5268TIP3    H237296   4.452   5.528  16.499  0.5126 -1.4886  0.6480
 5269TIP3   OH237297   5.796   1.848  15.294 -0.1123 -0.4785  0.2874
 5269TIP3    H137298   5.744   1.913  15.340  0.2337 -0.4431  0.6367
 5269TIP3    H237299   5.733   1.795  15.246 -0.3870  0.1316 -0.0151
 5270TIP3   OH237300   6.017   1.980  13.647  0.1641  0.6634 -0.4542
 5270TIP3    H137301   6.025   2.063  13.601  0.6929  0.9051  0.0576
 5270TIP3    H237302   6.105   1.965  13.684 -0.6837  1.3946  2.0039
 5271TIP3   OH237303   6.768   0.687  15.411  0.2213 -0.4588 -0.2689
 5271TIP3    H137304   6.746   0.703  15.320  0.2181  0.1904 -0.1571
 5271TIP3    H237305   6.799   0.772  15.444  1.4122 -0.9810 -0.0013
 5272TIP3   OH237306   6.155   5.495  14.603  0.0419  0.0724 -0.2515
 5272TIP3    H137307   6.225   5.448  14.557  1.0731 -0.0560  1.4270
 5272TIP3    H237308   6.159   5.584  14.567  0.2284 -0.2637 -1.0835
 5273TIP3   OH237309   3.653   5.701  15.182 -0.0553 -0.4720 -0.1642
 5273TIP3    H137310   3.668   5.606  15.185  0.1798 -0.4013  1.2110
 5273TIP3    H237311   3.669   5.731  15.272  0.0831  0.9083 -0.6351
 5274TIP3   OH237312   0.482   4.465   4.152 -0.4424 -0.2026 -0.3646
 5274TIP3    H137313   0.557   4.416   4.186 -0.1534  0.7674  0.3947
 5274TIP3    H237314   0.408   4.435   4.205  0.0296  1.4137  1.2806
 5275TIP3   OH237315   2.844   5.235   1.467 -0.6895  0.0210 -0.1579
 5275TIP3    H137316   2.852   5.288   1.387 -0.3549 -0.6701 -0.5800
 5275TIP3    H237317   2.901   5.279   1.530  0.8843 -0.7702 -1.0008
 5276TIP3   OH237318   1.618   2.655   4.107  0.3453  0.8997 -0.4293
 5276TIP3    H137319   1.536   2.689   4.071 -0.6020  0.0397  0.8803
 5276TIP3    H237320   1.601   2.562   4.123  1.4700  0.7835  0.1552
 5277TIP3   OH237321   1.473   3.586  13.648 -0.0033  0.2672 -0.0858
 5277TIP3    H137322   1.551   3.612  13.698  0.4302  1.4671 -1.3672
 5277TIP3    H237323   1.508   3.549  13.567 -0.7773  0.9494 -0.7303
 5278TIP3   OH237324   3.548   5.222  11.730 -0.8992  0.0402  0.6317
 5278TIP3    H137325   3.495   5.298  11.708  0.7981  1.1918  0.4440
 5278TIP3    H237326   3.543   5.216  11.825  0.6249  1.6690  0.8531
 5279TIP3   OH237327   4.181   5.953  11.215  0.1859  0.1781  0.4591
 5279TIP3    H137328   4.118   5.885  11.193  0.0422  0.7267 -0.8884
 5279TIP3    H237329   4.197   5.999  11.133  1.5844  0.6891  0.9866
 5280TIP3   OH237330   1.818   5.925   5.517 -0.2558  0.0542  0.0986
 5280TIP3    H137331   1.741   5.935   5.573 -1.4665 -0.8267 -1.3969
 5280TIP3    H237332   1.860   5.845   5.549 -0.9451 -0.4503 -0.2473
 5281TIP3   OH237333   0.769   2.465   2.171 -1.4582  0.2598  0.3808
 5281TIP3    H137334   0.749   2.371   2.162  0.8836 -0.1716 -0.7641
 5281TIP3    H237335   0.738   2.504   2.089 -2.0330  0.4176  0.6715
 5282TIP3   OH237336   6.654   2.788   5.747 -0.2175 -0.3894  0.8234
 5282TIP3    H137337   6.668   2.858   5.683  1.5326 -0.7263  0.8124
 5282TIP3    H237338   6.561   2.767   5.740 -0.5666  1.3022  0.1734
 5283TIP3   OH237339   2.723   5.451  14.000 -0.1299  0.4758 -0.1542
 5283TIP3    H137340   2.644   5.494  14.032  0.6625  1.2336  0.8303
 5283TIP3    H237341   2.701   5.422  13.911 -1.7551  0.0041  0.3805
 5284TIP3   OH237342   5.226   3.394   2.919  0.6006  0.2165  0.1859
 5284TIP3    H137343   5.194   3.306   2.935  2.2461 -0.5243 -0.4394
 5284TIP3    H237344   5.175   3.450   2.977 -0.2771 -1.1793  0.7724
 5285TIP3   OH237345   3.962   6.336  15.229  0.2423  0.1186 -0.1395
 5285TIP3    H137346   4.036   6.342  15.168  0.4045  1.8182  0.1949
 5285TIP3    H237347   4.002   6.325  15.315  0.0174 -1.9437 -0.2669
 5286TIP3   OH237348   6.321   1.865  10.942 -0.2120 -0.1092 -0.5203
 5286TIP3    H137349   6.290   1.940  10.892 -2.3849 -0.5039  0.2121
 5286TIP3    H237350   6.367   1.811  10.878  0.3309  1.2379 -1.2930
 5287TIP3   OH237351   4.853   6.358   6.429 -0.4347  0.0887 -0.2328
 5287TIP3    H137352   4.783   6.412   6.464  0.7255  1.3479  0.2212
 5287TIP3    H237353   4.920   6.421   6.401  0.4049 -1.0630 -0.8789
 5288TIP3   OH237354   0.181   1.795   2.140  0.0099 -0.0790 -0.2319
 5288TIP3    H137355   0.247   1.822   2.205 -0.7077 -1.2660  1.0250
 5288TIP3    H237356   0.098   1.820   2.180 -0.5325 -2.1054 -0.0353
 5289TIP3   OH237357   4.501   5.014   0.348  0.0417 -0.0915 -0.0001
 5289TIP3    H137358   4.431   4.970   0.298  0.1913  0.6125 -0.8392
 5289TIP3    H237359   4.460   5.035   0.432  0.1221 -2.2947  0.6070
 5290TIP3   OH237360   5.504   2.173  17.219  0.2567  0.4946  0.1697
 5290TIP3    H137361   5.491   2.175  17.124 -1.0190 -1.4171  0.2803
 5290TIP3    H237362   5.426   2.216  17.254 -0.6988 -1.4325  0.4492
 5291TIP3   OH237363   3.604   3.338  14.710 -0.6918  0.1992  0.5436
 5291TIP3    H137364   3.623   3.294  14.793  1.6127  0.7353  0.3149
 5291TIP3    H237365   3.628   3.429  14.726  0.9842  0.0548 -1.1155
 5292TIP3   OH237366   4.374   1.096   3.454 -0.1940  0.0262  0.0804
 5292TIP3    H137367   4.298   1.078   3.399 -0.2468 -0.3069  0.2583
 5292TIP3    H237368   4.385   1.191   3.450 -0.6854  0.0861  0.1395
 5293TIP3   OH237369   3.039   2.547  15.951 -0.4674  0.6413 -0.0269
 5293TIP3    H137370   3.001   2.588  15.873  1.1137  0.8558 -0.7018
 5293TIP3    H237371   3.072   2.463  15.921  2.1702  1.6596 -0.1431
 5294TIP3   OH237372   5.692   6.756   6.713  0.2782  0.0640 -0.1704
 5294TIP3    H137373   5.617   6.711   6.675  1.0241 -1.9750  0.6931
 5294TIP3    H237374   5.658   6.841   6.741 -0.9783  0.3580 -2.5046
 5295TIP3   OH237375   4.988   3.915   3.824  0.0681  0.0915 -0.6915
 5295TIP3    H137376   5.015   3.969   3.750 -1.7433  1.3937 -0.4270
 5295TIP3    H237377   5.069   3.900   3.873  0.7663  1.7646 -1.2872
 5296TIP3   OH237378   5.234   3.777  13.797  0.3354 -0.1154 -0.7174
 5296TIP3    H137379   5.289   3.743  13.868  0.4808 -0.7401 -1.1258
 5296TIP3    H237380   5.186   3.701  13.765 -2.1254  0.7290  0.8000
 5297TIP3   OH237381   1.803   2.167  15.231 -0.1967  0.1464  0.0751
 5297TIP3    H137382   1.826   2.074  15.233  0.3858  0.2669 -1.2357
 5297TIP3    H237383   1.707   2.168  15.240 -0.2924 -0.6192 -0.8739
 5298TIP3   OH237384   3.552   2.488  12.058  0.5834  0.4293  0.4498
 5298TIP3    H137385   3.521   2.439  12.134  0.5561 -0.8836 -0.3940
 5298TIP3    H237386   3.505   2.449  11.984  0.0559  2.1849 -0.1623
 5299TIP3   OH237387   2.505   3.468   1.133 -0.0248  0.3490 -0.4523
 5299TIP3    H137388   2.468   3.382   1.150 -0.0746  0.5277  0.3466
 5299TIP3    H237389   2.600   3.455   1.140 -0.0772  0.5827  0.7118
 5300TIP3   OH237390   5.982   3.752   4.465 -0.3065  0.0744 -0.0648
 5300TIP3    H137391   5.938   3.719   4.386 -1.9740 -1.3438  1.4202
 5300TIP3    H237392   5.911   3.783   4.521  1.1434  5.3602 -0.9533
 5301TIP3   OH237393   4.863   4.854  13.448 -0.3436 -0.0135 -0.0635
 5301TIP3    H137394   4.845   4.779  13.391 -1.2249  0.5658 -0.5663
 5301TIP3    H237395   4.915   4.818  13.519 -2.0691 -1.4293  0.5394
 5302TIP3   OH237396   3.891   0.749  14.873  0.4495  0.0880  0.5976
 5302TIP3    H137397   3.854   0.661  14.867  2.1295 -0.6909  1.3357
 5302TIP3    H237398   3.866   0.792  14.791 -2.5477 -0.1901  1.3035
 5303TIP3   OH237399   4.844   4.098   5.447 -0.5439 -0.1104  0.0640
 5303TIP3    H137400   4.898   4.051   5.384  0.3558 -0.4761  1.0987
 5303TIP3    H237401   4.905   4.155   5.494 -1.3685  0.9001 -0.0762
 5304TIP3   OH237402   1.933   0.689  14.220  0.1987  0.4011  0.0810
 5304TIP3    H137403   1.958   0.601  14.194  0.0850  0.4244 -0.1042
 5304TIP3    H237404   1.880   0.722  14.148 -1.2611 -0.0371  0.9407
 5305TIP3   OH237405   0.753   0.295   0.261  0.0770 -0.3433 -0.5957
 5305TIP3    H137406   0.763   0.261   0.350 -3.0421  1.1183  0.3640
 5305TIP3    H237407   0.759   0.217   0.205 -0.5662 -1.6265  1.0844
 5306TIP3   OH237408   0.154   4.054  13.476 -0.3605  0.3843 -0.1575
 5306TIP3    H137409   0.113   4.115  13.415 -1.9679 -0.1962  0.2849
 5306TIP3    H237410   0.080   4.018  13.526  0.8071 -0.0264  1.3065
 5307TIP3   OH237411   0.899   4.341  14.133  0.2438  0.3097 -0.6674
 5307TIP3    H137412   0.833   4.325  14.066  0.7595  0.0063 -1.1117
 5307TIP3    H237413   0.875   4.282  14.205  0.5247 -0.4284 -1.1763
 5308TIP3   OH237414   4.174   4.347   1.879  0.4172  0.0588  0.3459
 5308TIP3    H137415   4.107   4.413   1.897 -0.9527 -0.2719 -3.0796
 5308TIP3    H237416   4.152   4.273   1.936 -1.5078  0.3738  0.0308
 5309TIP3   OH237417   0.304   4.951  17.009  0.5119  0.0772 -0.1656
 5309TIP3    H137418   0.226   4.902  17.032  0.4047 -0.1186 -0.9260
 5309TIP3    H237419   0.275   5.042  17.004  0.5366  0.1189  0.4563
 5310TIP3   OH237420   2.075   3.262   3.608 -0.8755 -0.4755 -0.1057
 5310TIP3    H137421   2.167   3.290   3.604 -2.0829  3.8248 -0.1894
 5310TIP3    H237422   2.027   3.343   3.627 -4.6251 -2.7197  0.2780
 5311TIP3   OH237423   1.511   3.251   2.233  0.9121 -0.4447 -0.3508
 5311TIP3    H137424   1.455   3.247   2.156  0.7541  0.3741 -0.2898
 5311TIP3    H237425   1.583   3.309   2.207  1.8277 -1.6433 -0.4908
 5312TIP3   OH237426   1.344   1.517   2.050 -0.0193 -0.0713  0.1687
 5312TIP3    H137427   1.432   1.522   2.011  0.0379  0.0731  0.3149
 5312TIP3    H237428   1.346   1.582   2.121 -0.9016  1.3671 -1.1028
 5313TIP3   OH237429   2.632   4.250  10.794 -0.0202 -0.0817  0.2461
 5313TIP3    H137430   2.577   4.311  10.745 -0.3897 -0.6861 -0.1081
 5313TIP3    H237431   2.581   4.229  10.872  0.2839  0.3718  0.5729
 5314TIP3   OH237432   0.741   0.360  11.943 -0.0508 -0.5639  0.4000
 5314TIP3    H137433   0.700   0.330  11.862 -2.0067  1.0210  0.7672
 5314TIP3    H237434   0.756   0.454  11.930  0.6832 -0.5174  1.4342
 5315TIP3   OH237435   5.513   0.228  11.878 -0.4120 -0.4004  1.0294
 5315TIP3    H137436   5.530   0.166  11.949 -1.0730 -1.9566 -0.1448
 5315TIP3    H237437   5.424   0.260  11.895 -0.4425 -0.5098  1.0714
 5316TIP3   OH237438   2.861   3.293  12.009  0.1901  0.3696  0.3675
 5316TIP3    H137439   2.786   3.282  11.951 -0.0233  2.3187  0.2246
 5316TIP3    H237440   2.827   3.272  12.096 -0.2864  0.3420  0.1783
 5317TIP3   OH237441   2.769   3.766   0.589 -0.2346 -0.5434  0.1571
 5317TIP3    H137442   2.853   3.750   0.633  0.7925 -0.1797 -1.6321
 5317TIP3    H237443   2.722   3.683   0.597 -0.2115 -0.4025  2.1839
 5318TIP3   OH237444   3.734   4.601   1.525  0.1833  0.3506 -0.4629
 5318TIP3    H137445   3.768   4.681   1.483  0.3345 -0.4784 -1.9413
 5318TIP3    H237446   3.642   4.620   1.541 -0.0447  0.4381 -1.7934
 5319TIP3   OH237447   6.246   5.060  16.017  0.3204 -0.0781 -0.6714
 5319TIP3    H137448   6.202   5.095  16.095 -1.8551  1.5719 -2.5556
 5319TIP3    H237449   6.174   5.031  15.961  1.7567  0.7725 -2.9942
 5320TIP3   OH237450   6.055   3.996  15.524  0.0835  0.1709 -0.0962
 5320TIP3    H137451   6.126   3.988  15.459  0.2374  1.2634 -0.0749
 5320TIP3    H237452   6.062   4.086  15.555 -0.3036 -0.2090  1.0882
 5321TIP3   OH237453   1.377   0.389  13.841  0.4517 -0.0118  0.1915
 5321TIP3    H137454   1.449   0.384  13.905 -1.0130 -1.0239  1.7998
 5321TIP3    H237455   1.316   0.451  13.880 -0.4143 -0.5760 -0.2688
 5322TIP3   OH237456   2.556   2.189  16.859 -1.0616 -0.2799  0.1614
 5322TIP3    H137457   2.514   2.108  16.888  0.9312 -2.0749 -1.8531
 5322TIP3    H237458   2.556   2.184  16.764  3.1555 -0.1280  0.0429
 5323TIP3   OH237459   4.795   3.306  16.856 -0.3254 -0.0175  0.3290
 5323TIP3    H137460   4.874   3.257  16.880  0.0171 -0.6759 -1.9837
 5323TIP3    H237461   4.723   3.255  16.895  0.3366  0.4759  2.2742
 5324TIP3   OH237462   3.188   2.199  15.300 -0.3424  0.5942 -0.2659
 5324TIP3    H137463   3.187   2.114  15.256  0.3435  0.2401  0.3831
 5324TIP3    H237464   3.105   2.239  15.277 -0.3368  0.0766 -1.2185
 5325TIP3   OH237465   0.014   1.514   6.514 -0.0974 -0.2697 -0.4831
 5325TIP3    H137466   0.109   1.505   6.528 -0.0998  1.6745  0.8674
 5325TIP3    H237467  -0.025   1.457   6.580  0.1119 -1.4580 -1.3589
 5326TIP3   OH237468   6.489   4.810  13.913 -0.4875 -0.5819 -0.5943
 5326TIP3    H137469   6.509   4.750  13.841 -3.6100 -1.9630 -0.4233
 5326TIP3    H237470   6.553   4.880  13.905  0.9972 -2.1360 -2.9986
 5327TIP3   OH237471   0.967   1.155  16.690  0.2374 -0.8376  0.2801
 5327TIP3    H137472   1.026   1.211  16.741  0.3174 -0.4229 -0.2606
 5327TIP3    H237473   0.902   1.216  16.654 -0.0518 -1.1843  0.2137
 5328TIP3   OH237474   4.441   1.960   0.476  0.0991  0.3253 -0.4748
 5328TIP3    H137475   4.418   1.972   0.384 -0.5397 -0.0815 -0.3726
 5328TIP3    H237476   4.490   1.877   0.477  0.0450  0.2945 -0.4366
 5329TIP3   OH237477   2.117   1.522  11.240 -0.1927  0.1378  0.2780
 5329TIP3    H137478   2.061   1.520  11.318 -0.7313 -1.0629 -0.1255
 5329TIP3    H237479   2.101   1.438  11.197  1.0801  0.2515 -0.4422
 5330TIP3   OH237480   0.771   6.277   4.990  0.1030  0.5149 -0.3381
 5330TIP3    H137481   0.755   6.221   4.915 -1.1452  0.3552  0.0261
 5330TIP3    H237482   0.863   6.301   4.984  0.3029 -0.4706 -1.2444
 5331TIP3   OH237483   1.166   6.662   5.535 -0.4390  0.0799  0.5025
 5331TIP3    H137484   1.090   6.706   5.498 -0.5532 -1.7927 -1.6115
 5331TIP3    H237485   1.138   6.638   5.624 -2.0599  0.0969  0.0266
 5332TIP3   OH237486   3.048   2.111  16.199 -0.2943 -0.4377 -0.7576
 5332TIP3    H137487   3.001   2.073  16.274 -0.7992  0.8008 -0.4371
 5332TIP3    H237488   3.042   2.206  16.212  0.2788 -0.2233 -1.9695
 5333TIP3   OH237489   3.972   2.959   0.179 -0.4205  0.3709 -0.6690
 5333TIP3    H137490   3.932   2.938   0.094  0.0836  2.0569 -1.3352
 5333TIP3    H237491   3.924   2.906   0.242 -0.6116 -1.1271 -2.0467
 5334TIP3   OH237492   2.841   0.366  16.285  0.1580 -0.2064 -0.5494
 5334TIP3    H137493   2.838   0.317  16.203  0.8467  1.5355 -1.6363
 5334TIP3    H237494   2.799   0.450  16.265  0.5244  0.3220  0.8304
 5335TIP3   OH237495   2.039   2.627  13.797  0.6498 -0.4113 -0.2557
 5335TIP3    H137496   2.055   2.686  13.723  1.7349 -0.4845 -0.0760
 5335TIP3    H237497   2.105   2.650  13.862  0.4089 -1.1110  0.2439
 5336TIP3   OH237498   5.596   0.974   4.388 -0.2965  0.6193  0.6302
 5336TIP3    H137499   5.510   1.016   4.380 -0.5368  0.1065  0.5124
 5336TIP3    H237500   5.596   0.936   4.476 -0.1850  0.6316  0.6354
 5337TIP3   OH237501   1.161   5.853   3.065 -0.3242  0.1894  0.2929
 5337TIP3    H137502   1.089   5.915   3.052 -1.0727 -0.1877  2.5069
 5337TIP3    H237503   1.238   5.908   3.080 -0.5203  0.5866 -0.1470
 5338TIP3   OH237504   4.791   4.351  15.844  0.4070 -0.2160  0.4155
 5338TIP3    H137505   4.738   4.277  15.872  0.3889 -0.2679  0.2444
 5338TIP3    H237506   4.836   4.380  15.923 -0.1460  0.0495  0.6434
 5339TIP3   OH237507   5.335   4.360   3.433 -0.0910  0.1323  0.2964
 5339TIP3    H137508   5.311   4.284   3.378  0.5533  0.8184 -0.9540
 5339TIP3    H237509   5.347   4.323   3.520 -0.5694 -1.0848 -0.1327
 5340TIP3   OH237510   4.753   3.874  12.534  0.3561  0.5435  0.2360
 5340TIP3    H137511   4.724   3.931  12.463 -0.6801  1.5018  1.3778
 5340TIP3    H237512   4.848   3.887  12.539  0.7021 -0.8939 -2.0967
 5341TIP3   OH237513   3.259   1.980  15.063 -0.5313  0.4009  0.3470
 5341TIP3    H137514   3.349   2.013  15.057 -0.7096  0.7604 -0.3800
 5341TIP3    H237515   3.212   2.026  14.993 -1.4830  0.8533  1.2809
 5342TIP3   OH237516   5.705   6.474   1.730  0.6343  0.2073 -0.4496
 5342TIP3    H137517   5.717   6.427   1.648  0.3902  0.3238 -0.5520
 5342TIP3    H237518   5.742   6.415   1.797  1.3418  0.3611 -0.7011
 5343TIP3   OH237519   4.298   1.996   3.796  0.0553 -0.3452  0.2914
 5343TIP3    H137520   4.339   1.948   3.724 -1.6199 -1.1677 -0.1601
 5343TIP3    H237521   4.234   2.053   3.752  0.9397  1.1762  0.9389
 5344TIP3   OH237522   3.146   6.333  12.368 -0.2593  0.3343  0.1394
 5344TIP3    H137523   3.085   6.285  12.424 -0.4885  0.7704  0.2565
 5344TIP3    H237524   3.177   6.405  12.422  0.4350  0.0633  0.1166
 5345TIP3   OH237525   1.273   5.481  12.847  0.2585  0.3356  0.0591
 5345TIP3    H137526   1.250   5.451  12.759  3.0498 -1.8404 -0.0045
 5345TIP3    H237527   1.203   5.447  12.903  0.0941 -0.9418 -0.8995
 5346TIP3   OH237528   3.947   4.474  12.396  0.0911  0.3300 -0.4430
 5346TIP3    H137529   3.900   4.536  12.452 -0.6810 -1.7799  1.3479
 5346TIP3    H237530   3.892   4.466  12.318 -1.4184 -0.3837  0.6537
 5347TIP3   OH237531   3.984   2.181   3.661 -0.4434 -0.0361  0.3142
 5347TIP3    H137532   3.957   2.270   3.687 -1.0342 -0.0166 -0.3339
 5347TIP3    H237533   3.939   2.124   3.723 -2.4698 -0.0316 -1.1095
 5348TIP3   OH237534   1.271   0.407   3.017 -0.3167  0.4041  0.6439
 5348TIP3    H137535   1.316   0.467   2.958 -1.8375 -0.4685 -1.4503
 5348TIP3    H237536   1.337   0.341   3.039 -0.5966 -1.1174 -2.7705
 5349TIP3   OH237537   0.753   6.197   0.262  0.1958 -0.2399  0.2001
 5349TIP3    H137538   0.808   6.130   0.222 -0.0633 -0.7270  0.6474
 5349TIP3    H237539   0.800   6.224   0.341  0.1849 -0.0726  0.1496
 5350TIP3   OH237540   3.319   4.641  11.925  0.2952 -0.3114 -0.1745
 5350TIP3    H137541   3.305   4.703  11.853 -1.4271  0.3466  0.6908
 5350TIP3    H237542   3.242   4.584  11.924  0.1284 -0.1482  1.2731
 5351TIP3   OH237543   6.769   6.668   2.797  0.5567 -0.1369 -0.0819
 5351TIP3    H137544   6.730   6.622   2.722  0.0604 -1.5224  1.0150
 5351TIP3    H237545   6.696   6.717   2.835  0.8358  0.6641 -0.5760
 5352TIP3   OH237546   4.996   1.967  13.885 -0.0910 -0.0617 -0.2996
 5352TIP3    H137547   4.969   1.903  13.819 -0.0733 -1.4612  1.0176
 5352TIP3    H237548   4.915   2.009  13.913 -0.0711  0.7193 -1.3665
 5353TIP3   OH237549   2.035   3.730  14.785 -0.7907 -0.3275 -0.2467
 5353TIP3    H137550   2.111   3.702  14.837 -0.1478 -0.0624 -1.0389
 5353TIP3    H237551   2.015   3.817  14.818 -1.0280 -0.5719  0.2644
 5354TIP3   OH237552   1.201   2.723  11.087 -0.0159 -0.0576  0.4520
 5354TIP3    H137553   1.166   2.723  10.998 -1.5857  0.6751  1.0445
 5354TIP3    H237554   1.291   2.691  11.078 -0.1259  0.1213 -1.3993
 5355TIP3   OH237555   2.006   3.389   4.888  0.1598 -0.2833 -0.5758
 5355TIP3    H137556   1.920   3.362   4.858 -0.4510  1.5194 -0.5552
 5355TIP3    H237557   2.058   3.399   4.808  0.3384 -1.3521 -0.5899
 5356TIP3   OH237558   2.497   4.962   1.936  1.2904  0.6710  0.2275
 5356TIP3    H137559   2.488   4.935   1.844  2.2907 -1.1452  0.6405
 5356TIP3    H237560   2.409   4.985   1.963  0.6472 -0.7481 -0.6016
 5357TIP3   OH237561   4.611   3.302  12.702  0.5014 -0.4037  0.2393
 5357TIP3    H137562   4.697   3.278  12.668  1.0070  2.6629 -0.8142
 5357TIP3    H237563   4.630   3.366  12.771 -0.9171 -0.4293  0.6596
 5358TIP3   OH237564   4.014   2.552  15.934  0.1014 -0.4137 -0.6267
 5358TIP3    H137565   4.029   2.552  16.029  1.4344  1.9876 -0.8124
 5358TIP3    H237566   3.956   2.626  15.919  1.0039  0.0582 -1.8428
 5359TIP3   OH237567   0.185   0.137  13.157 -0.1397 -0.0240 -0.1077
 5359TIP3    H137568   0.204   0.085  13.235  0.3134  2.6367  1.6203
 5359TIP3    H237569   0.110   0.092  13.116 -0.3668 -1.4811  1.8400
 5360TIP3   OH237570   1.049   2.289   2.198 -0.1775  0.3253 -0.7244
 5360TIP3    H137571   0.969   2.254   2.159 -0.8981  0.6525  0.4515
 5360TIP3    H237572   1.063   2.373   2.154 -0.8143  0.5445 -0.5137
 5361TIP3   OH237573   4.534   1.039  16.371  0.5932  0.0771  0.0225
 5361TIP3    H137574   4.451   0.995  16.388 -0.0561  1.2578 -0.0297
 5361TIP3    H237575   4.596   0.999  16.432 -0.1600 -0.3593  0.5023
 5362TIP3   OH237576   3.274   6.685   4.954 -0.1734  0.8987 -0.9587
 5362TIP3    H137577   3.331   6.699   4.879  0.5945 -0.9464 -0.7598
 5362TIP3    H237578   3.303   6.601   4.991 -0.0132  2.1155  1.8406
 5363TIP3   OH237579   5.949   3.370   3.705 -0.8789 -0.0253  0.2269
 5363TIP3    H137580   5.974   3.312   3.777 -0.3819 -0.1053 -0.0049
 5363TIP3    H237581   6.029   3.419   3.685 -1.5313  1.3821  1.0032
 5364TIP3   OH237582   4.529   6.010  14.428  0.2350  0.3798 -0.4026
 5364TIP3    H137583   4.444   6.039  14.396  0.4535 -1.1654 -2.5296
 5364TIP3    H237584   4.509   5.952  14.501 -0.4178  1.7339  0.5118
 5365TIP3   OH237585   2.371   6.452   0.289  0.2419  0.7227  0.6968
 5365TIP3    H137586   2.460   6.486   0.301  0.8504 -0.6236  0.2132
 5365TIP3    H237587   2.314   6.520   0.323  1.4426  1.8664  0.4542
 5366TIP3   OH237588   1.308   5.872   4.048 -0.2307 -0.0200  0.5667
 5366TIP3    H137589   1.319   5.808   4.118 -2.7640 -0.9166  0.1863
 5366TIP3    H237590   1.315   5.957   4.091  0.0086 -0.5493  1.5903
 5367TIP3   OH237591   5.060   2.094  16.725 -0.1288  1.0632 -0.2400
 5367TIP3    H137592   5.105   2.174  16.698 -0.4362  2.3384  2.8618
 5367TIP3    H237593   4.987   2.124  16.779 -1.4941 -1.2385 -0.7133
 5368TIP3   OH237594   4.679   3.118  17.057  0.0624  0.0479 -0.2749
 5368TIP3    H137595   4.771   3.096  17.072 -0.2524 -0.5102  0.9747
 5368TIP3    H237596   4.632   3.070  17.126 -1.0647  1.1293 -0.2704
 5369TIP3   OH237597   6.234   6.515   4.250  0.5260 -0.0665  0.6686
 5369TIP3    H137598   6.311   6.490   4.198  0.9857  0.3321  1.1514
 5369TIP3    H237599   6.165   6.528   4.185  0.7981 -0.6580  0.2467
 5370TIP3   OH237600   3.840   2.706  12.176  0.1754 -0.0816  0.2172
 5370TIP3    H137601   3.883   2.687  12.092  1.0085 -0.3570  0.6981
 5370TIP3    H237602   3.800   2.623  12.202 -1.8553  0.5246 -0.9084
 5371TIP3   OH237603   4.272   4.264   4.286  0.0347 -0.3307  0.8049
 5371TIP3    H137604   4.186   4.229   4.262 -0.8804  1.4375  1.3630
 5371TIP3    H237605   4.253   4.353   4.318  2.1952  0.5174 -0.1669
 5372TIP3   OH237606   4.129   5.768  15.068  0.3763 -0.0143 -0.2266
 5372TIP3    H137607   4.102   5.860  15.062  3.1783  0.8234 -0.7974
 5372TIP3    H237608   4.142   5.753  15.161 -0.2081  0.1167 -0.1212
 5373TIP3   OH237609   3.825   4.873  15.092  0.1608 -0.4737  0.1534
 5373TIP3    H137610   3.802   4.945  15.034 -1.7199 -0.5713  0.7477
 5373TIP3    H237611   3.777   4.798  15.057 -1.4136 -0.4147  2.1192
 5374TIP3   OH237612   6.438   3.003  11.543 -0.2907 -0.9423  0.5018
 5374TIP3    H137613   6.391   2.956  11.474 -0.0003 -0.0981 -0.2847
 5374TIP3    H237614   6.368   3.043  11.596 -0.5047 -1.2734  0.4688
 5375TIP3   OH237615   0.725   5.035   5.818 -0.7910 -0.4094  0.1230
 5375TIP3    H137616   0.798   5.038   5.881 -0.2897 -1.7834 -0.3689
 5375TIP3    H237617   0.661   4.977   5.858 -1.5194  0.5948  0.4350
 5376TIP3   OH237618   2.551   6.621   1.842 -0.3227  0.0661  0.2255
 5376TIP3    H137619   2.629   6.646   1.793  0.2520 -1.8882  0.1093
 5376TIP3    H237620   2.532   6.698   1.896  0.6858  1.1923 -0.9637
 5377TIP3   OH237621   1.198   3.071   1.663 -0.3411  0.0435  0.4915
 5377TIP3    H137622   1.271   3.022   1.701  0.5260  0.4943 -0.5862
 5377TIP3    H237623   1.218   3.077   1.570 -1.6916  0.2899  0.1996
 5378TIP3   OH237624   6.023   0.515   4.312  0.6168 -0.3529  0.3331
 5378TIP3    H137625   6.095   0.576   4.328  1.3891 -1.3928  0.9301
 5378TIP3    H237626   5.944   0.570   4.312  1.2182  0.5394  1.6298
 5379TIP3   OH237627   2.360   5.228   2.549  0.6411 -0.7129 -0.7904
 5379TIP3    H137628   2.362   5.282   2.470 -1.7389 -0.7946 -0.9491
 5379TIP3    H237629   2.305   5.153   2.526  1.9929 -2.0207  0.1596
 5380TIP3   OH237630   0.442   2.897   5.995 -0.2532 -0.2359 -0.6970
 5380TIP3    H137631   0.439   2.803   5.978 -0.0401 -0.3319 -0.2301
 5380TIP3    H237632   0.420   2.938   5.912 -0.1343 -0.6973 -0.9548
 5381TIP3   OH237633   3.128   1.152  14.808  0.2833 -0.6397  0.9089
 5381TIP3    H137634   3.118   1.116  14.896  1.0664 -1.8977  0.5035
 5381TIP3    H237635   3.202   1.212  14.815  1.8917 -2.5390  0.5992
 5382TIP3   OH237636   2.810   6.474  11.433  0.3005 -0.0174  0.4832
 5382TIP3    H137637   2.837   6.492  11.343 -0.2633  0.1553  0.3467
 5382TIP3    H237638   2.885   6.500  11.486  1.6654 -2.5514 -0.1082
 5383TIP3   OH237639   3.834   0.692  15.205  0.4446 -0.0968  0.3483
 5383TIP3    H137640   3.802   0.761  15.146  2.4638  0.9443  0.4336
 5383TIP3    H237641   3.777   0.699  15.282  0.0435  0.8682 -0.0227
 5384TIP3   OH237642   3.083   5.983  14.113  0.2356  0.4982  0.1685
 5384TIP3    H137643   3.065   6.043  14.185 -0.1352 -0.5569  0.9628
 5384TIP3    H237644   3.084   5.896  14.153  1.5401  0.0318 -0.8327
 5385TIP3   OH237645   2.594   0.597  16.587  0.0107 -0.0087  0.1986
 5385TIP3    H137646   2.638   0.599  16.672  1.6644 -2.2243 -0.5678
 5385TIP3    H237647   2.604   0.686  16.553 -0.3419  0.7966  2.1379
 5386TIP3   OH237648   4.308   1.853   4.715 -0.2296  0.0918  0.1284
 5386TIP3    H137649   4.358   1.935   4.721 -1.5543  0.9621 -0.4171
 5386TIP3    H237650   4.275   1.853   4.625 -2.2716  0.1660  0.8672
 5387TIP3   OH237651   1.609   5.792  10.383  0.6077  0.1641  0.1847
 5387TIP3    H137652   1.521   5.820  10.359  0.7809 -0.4487 -1.2415
 5387TIP3    H237653   1.658   5.874  10.393 -0.6757  0.6048  3.3361
 5388TIP3   OH237654   2.225   3.681  16.150 -0.1848  0.1636 -1.0003
 5388TIP3    H137655   2.149   3.624  16.159  0.8112 -0.7060  3.0784
 5388TIP3    H237656   2.190   3.770  16.154 -1.2028 -0.2176 -1.4370
 5389TIP3   OH237657   4.954   4.516   1.031  0.2681 -0.4626 -0.0357
 5389TIP3    H137658   4.934   4.575   0.959 -0.6699  1.8337  2.0580
 5389TIP3    H237659   4.870   4.503   1.076  1.1905 -0.3276  1.7743
 5390TIP3   OH237660   6.269   0.104  15.969  0.6274  0.2293  0.5948
 5390TIP3    H137661   6.258   0.144  16.055 -0.4346  0.5337  0.3149
 5390TIP3    H237662   6.229   0.017  15.978  2.1470 -0.4538  0.9417
 5391TIP3   OH237663   4.945   0.394   0.055 -0.0970  0.2057  0.0282
 5391TIP3    H137664   4.862   0.438   0.074 -0.0101  0.3411  0.0847
 5391TIP3    H237665   4.994   0.456   0.001  0.1824  0.3347  0.4292
 5392TIP3   OH237666   0.147   0.904   2.580 -0.1793  0.2911 -0.0684
 5392TIP3    H137667   0.123   0.813   2.594 -1.4215  0.6177  0.0545
 5392TIP3    H237668   0.114   0.924   2.492 -0.2011  0.6995  0.0279
 5393TIP3   OH237669   1.878   4.471  17.164 -0.4917  0.0925  0.0086
 5393TIP3    H137670   1.935   4.528  17.112  0.6040 -0.1755  0.8976
 5393TIP3    H237671   1.931   4.448  17.241 -1.4982 -0.8442  0.4319
 5394TIP3   OH237672   4.540   6.795  10.639 -0.6435  0.2501 -0.3920
 5394TIP3    H137673   4.449   6.823  10.644 -1.3594 -1.8865 -0.9308
 5394TIP3    H237674   4.543   6.732  10.568  1.2679  0.2718 -0.3768
 5395TIP3   OH237675   1.825   4.006  11.772  0.2184  0.5350  0.1098
 5395TIP3    H137676   1.882   3.992  11.697  0.8194  2.1149  0.2462
 5395TIP3    H237677   1.807   3.918  11.806  0.3469 -0.1480 -1.5684
 5396TIP3   OH237678   2.660   0.588   2.561 -0.2259  0.4962 -0.2411
 5396TIP3    H137679   2.714   0.577   2.640 -1.5783 -0.8258  0.5143
 5396TIP3    H237680   2.573   0.611   2.594 -1.0294 -0.9659 -1.2964
 5397TIP3   OH237681   0.498   4.782  11.605 -0.1682 -0.2590 -0.1184
 5397TIP3    H137682   0.514   4.860  11.659  1.8195 -0.4722 -0.3704
 5397TIP3    H237683   0.525   4.808  11.517 -0.0739 -1.0514 -0.3216
 5398TIP3   OH237684   6.633   5.932  13.326  0.1218 -0.0319  0.2561
 5398TIP3    H137685   6.588   5.900  13.404 -0.7571  2.7358  0.9644
 5398TIP3    H237686   6.692   6.000  13.358  0.6485  0.3033 -1.3575
 5399TIP3   OH237687   5.592   1.423  10.854 -0.2166  0.4536 -0.6834
 5399TIP3    H137688   5.686   1.412  10.870 -0.3238  0.5587  0.0429
 5399TIP3    H237689   5.554   1.338  10.879 -0.3145  0.4071 -0.9873
 5400TIP3   OH237690   4.341   2.152   4.545  0.0195 -0.2327 -0.2902
 5400TIP3    H137691   4.351   2.117   4.456  2.0336 -0.8829  0.1683
 5400TIP3    H237692   4.252   2.186   4.547 -0.4123 -1.1590 -2.2364
 5401TIP3   OH237693   3.337   6.267  16.481 -0.4195  0.0431  0.2269
 5401TIP3    H137694   3.370   6.308  16.561 -1.2013 -1.3680  1.2916
 5401TIP3    H237695   3.252   6.309  16.466 -0.5564 -0.1330  0.4984
 5402TIP3   OH237696   5.197   2.282  14.804  0.4905  0.2721  0.2839
 5402TIP3    H137697   5.292   2.291  14.806  0.5778 -0.8274  1.0802
 5402TIP3    H237698   5.182   2.197  14.763 -0.1486  0.3471  0.3612
 5403TIP3   OH237699   3.597   5.877   4.862  0.3028 -0.8270  0.0737
 5403TIP3    H137700   3.618   5.970   4.849 -1.8869 -0.3470 -0.1751
 5403TIP3    H237701   3.672   5.842   4.910  0.3790  1.4705  1.7241
 5404TIP3   OH237702   0.738   1.210  13.788  0.4566 -0.3175  0.3665
 5404TIP3    H137703   0.810   1.168  13.741 -0.0701  0.0925 -0.8383
 5404TIP3    H237704   0.762   1.303  13.789  0.0181 -0.2021  0.0960
 5405TIP3   OH237705   3.251   3.581  13.379  0.4781  0.1086  0.4059
 5405TIP3    H137706   3.188   3.596  13.308  1.1225 -1.5256 -0.5449
 5405TIP3    H237707   3.198   3.577  13.458 -0.2660  1.8383  0.0257
 5406TIP3   OH237708   4.761   1.682  10.785  0.4288  0.3334 -0.0458
 5406TIP3    H137709   4.746   1.732  10.865 -2.9337  0.8929 -0.9654
 5406TIP3    H237710   4.775   1.748  10.717  2.9630 -0.1347 -0.0501
 5407TIP3   OH237711   4.420   5.004   1.023 -0.5311  0.2564  0.4254
 5407TIP3    H137712   4.488   5.072   1.019 -1.1191  0.9756  2.1101
 5407TIP3    H237713   4.340   5.052   1.043 -1.3919 -0.6976 -0.6540
 5408TIP3   OH237714   1.137   5.611   4.736  0.2292  0.1100 -0.9297
 5408TIP3    H137715   1.100   5.536   4.784  0.7568 -0.2102 -1.0255
 5408TIP3    H237716   1.179   5.664   4.803 -1.0724  0.8911 -0.6992
 5409TIP3   OH237717   3.573   3.102  14.387 -0.0969  0.3895 -0.5318
 5409TIP3    H137718   3.535   3.057  14.311 -1.4437  0.1345  0.2786
 5409TIP3    H237719   3.666   3.113  14.364 -0.6346  1.0364 -2.5653
 5410TIP3   OH237720   3.586   1.683   1.787  0.2288 -0.1345 -0.7310
 5410TIP3    H137721   3.640   1.613   1.753  2.1582  0.7685  0.3917
 5410TIP3    H237722   3.497   1.662   1.757  0.9239 -2.4997 -1.2215
 5411TIP3   OH237723   1.093   3.788  15.044 -0.3382  0.1170 -0.4851
 5411TIP3    H137724   1.176   3.817  15.007 -1.1833  1.4972 -1.3540
 5411TIP3    H237725   1.111   3.702  15.080  1.3584  0.2172 -1.0761
 5412TIP3   OH237726   6.665   3.930   3.940  0.5986 -0.3286  0.1615
 5412TIP3    H137727   6.682   4.015   3.899  0.5461 -0.1175  0.5764
 5412TIP3    H237728   6.645   3.951   4.031 -2.9641 -0.4506 -0.5059
 5413TIP3   OH237729   2.385   1.107   1.742 -0.3437 -0.5056 -0.2707
 5413TIP3    H137730   2.359   1.191   1.782 -1.1248 -0.4417 -0.8803
 5413TIP3    H237731   2.304   1.074   1.703  0.1859 -1.0523 -0.9186
 5414TIP3   OH237732   0.758   0.663  16.900 -0.1857  0.2888 -0.1322
 5414TIP3    H137733   0.844   0.637  16.869 -0.2853 -1.7656  1.1761
 5414TIP3    H237734   0.773   0.693  16.990 -0.8689 -0.3162  0.1868
 5415TIP3   OH237735   2.537   5.138   0.796 -0.1908  0.2162 -0.0243
 5415TIP3    H137736   2.615   5.170   0.749 -0.2547  0.4279  0.0150
 5415TIP3    H237737   2.486   5.093   0.729  0.1360 -0.2341  0.0205
 5416TIP3   OH237738   2.796   3.475   0.906  0.1164  0.1321 -0.0962
 5416TIP3    H137739   2.791   3.445   0.997  1.0779 -1.6762 -0.6198
 5416TIP3    H237740   2.890   3.473   0.885 -0.1522 -0.0012 -1.3069
 5417TIP3   OH237741   4.752   4.681  15.265 -0.0870  0.0699 -1.1450
 5417TIP3    H137742   4.728   4.772  15.283  1.5983  0.3628 -0.3325
 5417TIP3    H237743   4.831   4.687  15.212 -1.4926 -0.9034 -3.4433
 5418TIP3   OH237744   1.594   0.248  17.013 -0.0248 -0.0624  0.2604
 5418TIP3    H137745   1.684   0.277  17.001 -0.0861  0.1299  0.2700
 5418TIP3    H237746   1.540   0.325  16.994 -0.1184  0.2985  1.8625
 5419TIP3   OH237747   5.541   2.767   1.132  0.0740 -0.0628  0.4018
 5419TIP3    H137748   5.494   2.699   1.180 -3.2865  2.0891  0.3228
 5419TIP3    H237749   5.555   2.729   1.045  0.8371 -1.6958  1.2089
 5420TIP3   OH237750   2.442   5.777  16.730 -0.1797 -0.2718  0.0118
 5420TIP3    H137751   2.465   5.697  16.682  2.4247  0.5325 -0.1394
 5420TIP3    H237752   2.524   5.826  16.736 -1.2281  1.3066  2.1715
 5421TIP3   OH237753   0.265   6.614   2.138 -0.4101 -0.6209  0.3000
 5421TIP3    H137754   0.325   6.640   2.069 -1.0438 -2.6009 -1.0352
 5421TIP3    H237755   0.243   6.696   2.183  1.3503  0.4468 -0.7339
 5422TIP3   OH237756   3.970   3.166  11.772  0.0204  0.3917  0.0551
 5422TIP3    H137757   3.900   3.204  11.719  1.7775  0.1284 -2.5081
 5422TIP3    H237758   4.008   3.241  11.818 -0.2612  0.9208 -0.5637
 5423TIP3   OH237759   3.378   2.230  11.552  0.3334  0.1807  0.0145
 5423TIP3    H137760   3.427   2.312  11.554 -1.2407  1.1600 -0.3592
 5423TIP3    H237761   3.413   2.183  11.477  2.3957 -0.2484  1.1991
 5424TIP3   OH237762   4.299   4.325  11.551 -0.6276 -0.8002 -0.0783
 5424TIP3    H137763   4.243   4.383  11.604 -0.8251  0.7905 -1.9805
 5424TIP3    H237764   4.248   4.307  11.472  0.4065 -1.6447 -0.5661
 5425TIP3   OH237765   3.436   3.170  11.036  0.9528  0.1032  0.1148
 5425TIP3    H137766   3.404   3.259  11.022 -0.3927 -0.7753 -2.6921
 5425TIP3    H237767   3.527   3.172  11.008  0.7941  0.4924 -0.3743
 5426TIP3   OH237768   5.405   0.094  16.818  0.6817  0.3269 -0.0325
 5426TIP3    H137769   5.388   0.033  16.746 -1.7168 -0.2721  0.9995
 5426TIP3    H237770   5.437   0.039  16.889 -1.7216  0.1670  0.9833
 5427TIP3   OH237771   6.554   0.513   2.617 -0.2291  0.0839  0.3235
 5427TIP3    H137772   6.549   0.512   2.521 -2.1482  0.8031  0.3860
 5427TIP3    H237773   6.613   0.441   2.639 -0.6211 -0.7697 -1.3591
 5428TIP3   OH237774   1.103   4.346  10.235  0.1621 -0.4019  0.8692
 5428TIP3    H137775   1.053   4.307  10.307 -0.6648 -2.4005 -0.7542
 5428TIP3    H237776   1.048   4.419  10.206 -0.4406 -0.8018  0.9822
 5429TIP3   OH237777   2.745   5.799   0.423 -0.3875  0.3258  0.2547
 5429TIP3    H137778   2.822   5.840   0.464 -0.2120  1.9534 -1.6321
 5429TIP3    H237779   2.686   5.872   0.405 -2.3842 -0.8994  1.6281
 5430TIP3   OH237780   2.838   1.732  14.992 -0.2203 -0.5728  0.7500
 5430TIP3    H137781   2.836   1.670  15.065 -0.5210 -1.0141  0.3667
 5430TIP3    H237782   2.756   1.718  14.946  0.2449 -0.7351 -0.0432
 5431TIP3   OH237783   5.232   2.076   1.052 -0.2723  0.6052  0.5928
 5431TIP3    H137784   5.188   2.150   1.010  0.4988  0.8497  0.1876
 5431TIP3    H237785   5.309   2.060   0.997  0.7879  0.9712  1.9495
 5432TIP3   OH237786   2.743   1.340   0.205  0.0822 -0.0932  0.0317
 5432TIP3    H137787   2.778   1.296   0.282 -1.3500 -0.6711  0.3542
 5432TIP3    H237788   2.759   1.279   0.133  2.7682  1.0604 -0.4348
 5433TIP3   OH237789   1.442   3.043  12.986 -0.4132 -0.2191  0.6994
 5433TIP3    H137790   1.348   3.032  13.002 -1.0344 -0.4733 -2.7944
 5433TIP3    H237791   1.452   3.031  12.892  2.9878  0.9678  0.8454
 5434TIP3   OH237792   6.458   3.771  16.092  0.4036  0.2799  0.2772
 5434TIP3    H137793   6.503   3.687  16.098  0.2930  0.3924  3.1371
 5434TIP3    H237794   6.390   3.757  16.025  0.9108 -1.6324  0.1369
 5435TIP3   OH237795   3.378   3.827   6.497  0.0768 -0.0486 -0.0101
 5435TIP3    H137796   3.401   3.917   6.523  0.6046 -0.5605  1.3249
 5435TIP3    H237797   3.327   3.838   6.417  2.5848  1.2736 -1.4917
 5436TIP3   OH237798   1.381   1.588   2.622 -0.1594  0.2842 -0.6920
 5436TIP3    H137799   1.335   1.540   2.691  1.9116  0.7357  1.0463
 5436TIP3    H237800   1.393   1.676   2.658  0.0473  0.8275 -2.0515
 5437TIP3   OH237801   4.114   1.284  16.955  0.6305  0.1710  0.1968
 5437TIP3    H137802   4.146   1.371  16.977  0.7150  0.9419 -2.8593
 5437TIP3    H237803   4.019   1.289  16.968  0.7021  0.5183  0.6016
 5438TIP3   OH237804   3.530   6.401  12.284 -0.9721  0.0459  0.0447
 5438TIP3    H137805   3.442   6.364  12.281 -1.6173  1.2897  2.6399
 5438TIP3    H237806   3.528   6.463  12.356  1.5224  1.4886 -1.0566
 5439TIP3   OH237807   1.390   6.762   2.375 -0.4915  0.1730 -0.1062
 5439TIP3    H137808   1.294   6.767   2.372 -0.5281 -0.0433  0.4546
 5439TIP3    H237809   1.418   6.776   2.285 -1.1380 -1.6091 -0.6000
 5440TIP3   OH237810   2.624   4.722  12.623  0.0236  0.5644  0.1281
 5440TIP3    H137811   2.713   4.690  12.611  0.4812  2.2802 -1.2708
 5440TIP3    H237812   2.622   4.754  12.713  1.9623  3.7940 -0.8783
 5441TIP3   OH237813   0.770   3.267   0.699 -0.0829 -0.5510 -0.0950
 5441TIP3    H137814   0.748   3.342   0.643  0.0221  0.6897  1.4883
 5441TIP3    H237815   0.853   3.290   0.739 -1.0711 -0.5548  2.0331
 5442TIP3   OH237816   2.743   1.860   5.331  0.0288 -0.0417  0.1583
 5442TIP3    H137817   2.736   1.952   5.305  1.6528  0.4992  1.5040
 5442TIP3    H237818   2.696   1.812   5.263 -1.9627  1.8695  0.0955
 5443TIP3   OH237819   3.131   3.483   3.689 -0.6082 -0.3321 -0.1922
 5443TIP3    H137820   3.113   3.417   3.755 -1.6006  0.5378  0.4234
 5443TIP3    H237821   3.057   3.480   3.629 -1.6397  1.5349  0.9347
 5444TIP3   OH237822   3.263   3.333  16.373 -0.3567 -0.0347  0.5697
 5444TIP3    H137823   3.292   3.249  16.410 -0.1058  0.4100  1.3940
 5444TIP3    H237824   3.230   3.382  16.449  1.6168  1.5130  0.4553
 5445TIP3   OH237825   4.535   5.640   2.300  0.1168 -0.0951  0.1908
 5445TIP3    H137826   4.629   5.624   2.313 -0.1371 -2.3122 -0.4994
 5445TIP3    H237827   4.515   5.713   2.359  2.6134  1.5399 -0.9070
 5446TIP3   OH237828   0.232   1.572  13.907  0.0754  0.3328 -0.1237
 5446TIP3    H137829   0.321   1.544  13.928  0.4004  0.1970 -1.6791
 5446TIP3    H237830   0.243   1.659  13.869 -0.4691  0.3216 -0.3106
 5447TIP3   OH237831   0.981   2.647   4.027 -0.1539  0.5059  0.0064
 5447TIP3    H137832   1.052   2.673   3.968  1.2735 -0.2656  1.3546
 5447TIP3    H237833   0.927   2.726   4.034  0.6481  1.1568 -0.9222
 5448TIP3   OH237834   0.732   6.604   1.069 -0.5111  0.1989 -0.2853
 5448TIP3    H137835   0.671   6.676   1.052  1.0004  0.7399 -3.6673
 5448TIP3    H237836   0.798   6.643   1.126  0.0479  1.3922 -1.7116
 5449TIP3   OH237837   4.195   5.988   6.430  0.1189 -0.1085 -0.1272
 5449TIP3    H137838   4.141   5.924   6.477 -1.6962  2.0543  0.8260
 5449TIP3    H237839   4.230   6.045   6.498  3.1941 -1.1142 -0.7962
 5450TIP3   OH237840   2.871   2.165   4.395  0.2721  0.2522 -0.3772
 5450TIP3    H137841   2.898   2.173   4.304 -1.6987 -0.8105 -1.1047
 5450TIP3    H237842   2.784   2.125   4.390  0.3393 -0.2646  1.9899
 5451TIP3   OH237843   6.761   1.073   1.507 -0.0338 -0.3480  0.1937
 5451TIP3    H137844   6.772   1.137   1.437  0.3745  0.9975  1.4602
 5451TIP3    H237845   6.804   1.113   1.583 -0.0135 -2.0053  1.0808
 5452TIP3   OH237846   1.151   2.561   5.653 -0.1768 -0.1597 -0.6588
 5452TIP3    H137847   1.060   2.562   5.682 -0.3802  0.6822 -1.3188
 5452TIP3    H237848   1.161   2.475   5.611 -0.0669 -1.1094  1.2319
 5453TIP3   OH237849   6.184   0.201  11.999  0.0631 -0.0103 -0.1600
 5453TIP3    H137850   6.171   0.109  11.978 -0.1923 -0.5175  2.1533
 5453TIP3    H237851   6.271   0.205  12.037  0.0100  0.6883 -0.1026
 5454TIP3   OH237852   1.007   0.859  13.070  0.6823  0.0119 -0.4171
 5454TIP3    H137853   0.960   0.776  13.059  0.6552  0.0417 -0.5308
 5454TIP3    H237854   0.948   0.924  13.033 -0.1714  0.3558  1.4640
 5455TIP3   OH237855   2.300   5.669  16.339 -0.2708  0.1359  0.1285
 5455TIP3    H137856   2.246   5.618  16.278  0.0865  0.0987 -0.1577
 5455TIP3    H237857   2.286   5.627  16.424 -0.3528 -0.1435 -0.0222
 5456TIP3   OH237858   5.085   3.464  16.707  0.4328  0.9390 -0.2138
 5456TIP3    H137859   5.081   3.549  16.663  2.0405  0.4481 -1.3263
 5456TIP3    H237860   5.118   3.484  16.794 -1.6417  1.7639  0.4186
 5457TIP3   OH237861   4.229   2.958   1.452  0.4772  0.4355 -0.2958
 5457TIP3    H137862   4.253   3.043   1.490  2.7540  0.6242 -2.0158
 5457TIP3    H237863   4.253   2.966   1.360 -1.0558 -1.4394 -0.8839
 5458TIP3   OH237864   1.273   5.247  11.038  0.4206  0.0589  0.1590
 5458TIP3    H137865   1.332   5.205  11.100 -0.2734 -0.9182  0.1763
 5458TIP3    H237866   1.189   5.251  11.085 -0.0191 -0.3752 -0.5798
 5459TIP3   OH237867   3.111   2.422   0.530 -0.3551  0.1026 -0.1487
 5459TIP3    H137868   3.068   2.364   0.467  0.0534 -2.0748  1.4979
 5459TIP3    H237869   3.060   2.412   0.611  0.1433  1.5212  0.3664
 5460TIP3   OH237870   0.488   6.661   1.991  0.2927 -1.0363 -0.2908
 5460TIP3    H137871   0.542   6.737   1.970 -1.0173  0.0955  0.3147
 5460TIP3    H237872   0.547   6.602   2.038  1.1753 -0.1060 -0.2041
 5461TIP3   OH237873   5.857   1.098   0.057  0.0311 -0.3164  0.5183
 5461TIP3    H137874   5.826   1.127  -0.029 -1.3083  0.8834  1.3937
 5461TIP3    H237875   5.950   1.080   0.043  0.0906  0.9539 -0.9148
 5462TIP3   OH237876   3.025   2.877  16.970  0.4090  0.1938 -0.2677
 5462TIP3    H137877   3.102   2.890  17.025 -0.2490 -1.2732  1.0465
 5462TIP3    H237878   2.966   2.824  17.023 -1.5846  1.4131 -1.2002
 5463TIP3   OH237879   3.556   4.480  11.202  0.7188  0.4479 -0.4445
 5463TIP3    H137880   3.569   4.385  11.206  0.8399  0.4610 -0.5122
 5463TIP3    H237881   3.645   4.516  11.196  0.6053  0.4785 -2.2269
 5464TIP3   OH237882   1.899   3.522   1.933 -0.1810 -0.1365  0.0992
 5464TIP3    H137883   1.929   3.591   1.874 -1.5635  0.4237  0.0244
 5464TIP3    H237884   1.978   3.492   1.978  0.6885  0.3302 -1.0891
 5465TIP3   OH237885   0.383   3.102  14.419  0.2268  0.3974 -0.4357
 5465TIP3    H137886   0.396   3.188  14.457 -0.0940  0.7797 -1.1906
 5465TIP3    H237887   0.457   3.089  14.360  1.7132 -0.9524  1.6577
 5466TIP3   OH237888   0.446   2.169   1.616  0.2124  0.1359  0.4070
 5466TIP3    H137889   0.529   2.132   1.585 -0.0029  0.2333 -0.2713
 5466TIP3    H237890   0.382   2.099   1.604  0.1073  0.2083  0.5371
 5467TIP3   OH237891   3.688   3.200  15.873 -0.2246  0.1996 -0.2357
 5467TIP3    H137892   3.725   3.210  15.786 -1.2771  0.4537 -0.6612
 5467TIP3    H237893   3.736   3.262  15.928  1.5791 -1.1340 -0.2682
 5468TIP3   OH237894   2.321   4.147  16.563  0.1621  0.1059 -0.1842
 5468TIP3    H137895   2.387   4.118  16.626 -0.7783 -2.1298 -0.1956
 5468TIP3    H237896   2.369   4.157  16.481  1.4882  3.4228  0.8672
 5469TIP3   OH237897   2.356   1.977  12.121  0.3729 -0.1533  0.0699
 5469TIP3    H137898   2.341   1.889  12.087  0.2202  0.0474 -0.3860
 5469TIP3    H237899   2.378   2.029  12.044 -0.0775  0.3252  0.2582
 5470TIP3   OH237900   5.086   3.843  13.217 -0.1149  0.2215 -0.6577
 5470TIP3    H137901   5.175   3.876  13.207 -0.2203  0.6298 -0.2765
 5470TIP3    H237902   5.084   3.804  13.304 -0.5859  1.1266 -0.2490
 5471TIP3   OH237903   0.561   2.141  15.643  0.0024  0.7301 -0.1852
 5471TIP3    H137904   0.566   2.049  15.615 -1.6602  0.0998  1.4418
 5471TIP3    H237905   0.573   2.137  15.738 -0.6764  2.1432 -0.0347
 5472TIP3   OH237906   4.641   1.703  15.909 -0.2312  0.1352 -0.5305
 5472TIP3    H137907   4.709   1.670  15.851 -1.3238  0.9201 -2.2968
 5472TIP3    H237908   4.586   1.626  15.927 -1.4850  0.4450 -2.8214
 5473TIP3   OH237909   2.733   0.867  14.462 -0.3424 -0.8259 -0.0580
 5473TIP3    H137910   2.640   0.888  14.454 -0.1790 -0.3938 -0.8792
 5473TIP3    H237911   2.763   0.920  14.536 -0.5944 -0.4250 -0.2407
 5474TIP3   OH237912   1.938   4.520   2.264  0.2234 -0.2948  0.6179
 5474TIP3    H137913   1.921   4.526   2.358  1.3977 -0.5708  0.8600
 5474TIP3    H237914   1.983   4.602   2.243  0.3464 -0.4233  0.3809
 5475TIP3   OH237915   2.164   2.178  13.194 -0.0549 -0.0499 -0.1957
 5475TIP3    H137916   2.083   2.132  13.218 -0.5537  0.7855 -0.2460
 5475TIP3    H237917   2.233   2.133  13.243 -0.5722 -0.6472 -0.0036
 5476TIP3   OH237918   3.967   3.982   2.067  0.3702 -0.2545 -0.2212
 5476TIP3    H137919   3.946   3.923   1.995 -0.2794  1.1932 -1.2537
 5476TIP3    H237920   3.932   3.939   2.145 -0.1757 -1.1849 -0.9740
 5477TIP3   OH237921   0.353   5.140  16.550 -0.2229  0.2594 -0.0362
 5477TIP3    H137922   0.282   5.122  16.611 -0.6175  1.8409  0.0047
 5477TIP3    H237923   0.406   5.207  16.594  1.0006 -0.5062 -0.2949
 5478TIP3   OH237924   4.770   2.968  12.052  0.0474  0.1011  0.2669
 5478TIP3    H137925   4.759   3.059  12.080  1.5493  0.2107  0.5671
 5478TIP3    H237926   4.774   2.918  12.133  4.6792  0.4543  0.3757
 5479TIP3   OH237927   5.751   6.697  16.797  0.0497 -0.4034 -0.5489
 5479TIP3    H137928   5.804   6.685  16.877  1.2966 -0.5053 -1.3697
 5479TIP3    H237929   5.724   6.789  16.801  0.5420 -0.2658 -0.2670
 5480TIP3   OH237930   4.444   1.426  14.335  0.1445  0.3123  0.2493
 5480TIP3    H137931   4.377   1.390  14.277  1.3949 -2.4637  0.4373
 5480TIP3    H237932   4.404   1.424  14.422 -1.0106  2.6110 -0.2001
 5481TIP3   OH237933   4.762   3.541  16.693 -0.0508  0.0242 -0.4309
 5481TIP3    H137934   4.803   3.606  16.749  0.8726 -0.3422 -0.6683
 5481TIP3    H237935   4.777   3.458  16.738 -1.2563 -0.0291 -0.1075
 5482TIP3   OH237936   5.958   6.770  12.010 -0.3551 -0.1009 -0.3853
 5482TIP3    H137937   6.045   6.731  12.000 -0.2653  0.2462 -1.0207
 5482TIP3    H237938   5.940   6.767  12.104  0.1370 -0.6184 -0.3057
 5483TIP3   OH237939   2.131   2.691  11.998  0.2676 -0.0639 -0.0049
 5483TIP3    H137940   2.135   2.769  12.053  0.4649 -0.9609  1.3015
 5483TIP3    H237941   2.038   2.669  11.995  0.3928 -0.8916  1.3039
 5484TIP3   OH237942   1.239   1.544   5.886  0.0501 -0.5087 -0.0316
 5484TIP3    H137943   1.235   1.476   5.953 -0.7089  0.9834  1.4554
 5484TIP3    H237944   1.301   1.608   5.921 -1.2279  0.8444 -0.2217
 5485TIP3   OH237945   6.259   6.476  13.516  0.1266  0.2058 -0.6852
 5485TIP3    H137946   6.256   6.572  13.522  1.5649  0.2221 -0.1183
 5485TIP3    H237947   6.289   6.448  13.602 -0.4915 -0.7811 -0.7825
 5486TIP3   OH237948   2.332   4.699   4.774 -0.1810 -0.1522  0.0753
 5486TIP3    H137949   2.391   4.644   4.824 -0.0907 -0.6660 -0.5904
 5486TIP3    H237950   2.389   4.764   4.732  0.0134 -1.1232 -1.1927
 5487TIP3   OH237951   2.462   3.261  15.384 -0.2707  0.4306 -0.2393
 5487TIP3    H137952   2.415   3.206  15.447 -0.6177 -0.0914 -0.9548
 5487TIP3    H237953   2.548   3.275  15.424  1.1470 -3.6359 -1.6596
 5488TIP3   OH237954   4.205   4.091  11.286 -0.1109  0.1642 -0.0925
 5488TIP3    H137955   4.233   4.003  11.262  0.2859  0.3553 -0.3260
 5488TIP3    H237956   4.286   4.139  11.299 -0.3242  0.4049  0.3821
 5489TIP3   OH237957   5.076   3.924   0.073  0.5389 -0.0035  0.2513
 5489TIP3    H137958   5.083   4.013   0.038 -2.1011  0.1967  0.1524
 5489TIP3    H237959   5.111   3.868   0.005 -0.1544  0.7709 -0.7561
 5490TIP3   OH237960   5.759   5.155  16.062 -0.5259  0.1545  0.2433
 5490TIP3    H137961   5.781   5.195  15.978  2.2982 -0.6586  0.5517
 5490TIP3    H237962   5.760   5.228  16.125  1.3699  0.1549  0.2430
 5491TIP3   OH237963   3.185   5.058   3.592  0.0893  0.3474 -0.2456
 5491TIP3    H137964   3.196   5.022   3.504 -1.1945 -2.2048  0.5961
 5491TIP3    H237965   3.099   5.101   3.590 -0.4842 -0.7640  0.0841
 5492TIP3   OH237966   4.562   5.739  13.229  0.2051  0.2820  1.0058
 5492TIP3    H137967   4.508   5.764  13.304  0.7732 -1.0897  1.9027
 5492TIP3    H237968   4.630   5.806  13.224  0.2761  0.2731  1.8445
 5493TIP3   OH237969   0.147   3.524  15.549 -0.5134 -0.2434 -0.1838
 5493TIP3    H137970   0.109   3.453  15.601 -0.1378  0.8101  1.5681
 5493TIP3    H237971   0.208   3.567  15.608  0.8775  0.2160 -1.9044
 5494TIP3   OH237972   0.267   1.415   6.350  0.3890  0.6123 -0.1921
 5494TIP3    H137973   0.252   1.405   6.444 -2.2407 -0.1600 -0.6322
 5494TIP3    H237974   0.206   1.353   6.310 -0.3566  2.7290 -2.4605
 5495TIP3   OH237975   0.970   1.857  12.310  0.3967 -0.0354 -0.1442
 5495TIP3    H137976   0.969   1.796  12.237  0.3526 -0.2470  0.0340
 5495TIP3    H237977   0.907   1.822  12.373  1.5046 -0.6505  0.6405
 5496TIP3   OH237978   3.636   6.144   4.765 -0.6003  0.3818 -0.7333
 5496TIP3    H137979   3.663   6.098   4.685  0.2585  0.8789 -0.7443
 5496TIP3    H237980   3.544   6.165   4.751 -1.0568 -1.5206 -0.6383
 5497TIP3   OH237981   4.025   0.025   5.143  0.2111  0.4103  0.4808
 5497TIP3    H137982   4.007  -0.063   5.111  2.2356  0.1581 -0.0250
 5497TIP3    H237983   3.940   0.068   5.144 -0.7847 -1.5091  0.6224
 5498TIP3   OH237984   6.625   4.122   0.969  0.1056 -0.0717 -0.0160
 5498TIP3    H137985   6.587   4.098   1.053  0.5748 -0.0430  0.2058
 5498TIP3    H237986   6.566   4.189   0.934  0.7483  1.0447  0.9887
 5499TIP3   OH237987   4.990   6.175   3.223 -0.1179  0.2196  0.6461
 5499TIP3    H137988   4.995   6.214   3.136 -1.3661 -2.2543 -0.5924
 5499TIP3    H237989   5.081   6.172   3.253  0.3840  0.5864 -0.8241
 5500TIP3   OH237990   0.808   1.864   3.335 -0.1031 -0.3044  0.1420
 5500TIP3    H137991   0.763   1.948   3.337  1.7373  0.7400 -1.1919
 5500TIP3    H237992   0.871   1.869   3.407 -0.3785 -0.7430  0.4093
 5501TIP3   OH237993   3.961   3.906  12.479 -0.3149  0.3834  0.9472
 5501TIP3    H137994   3.961   3.979  12.417 -0.1869  0.6497  1.2599
 5501TIP3    H237995   3.940   3.946  12.563 -0.7357 -0.0139  1.0353
 5502TIP3   OH237996   3.754   3.990   0.988 -0.7613  0.2757  0.0562
 5502TIP3    H137997   3.817   4.039   1.040 -0.2787 -0.0925 -0.1752
 5502TIP3    H237998   3.790   3.991   0.899 -0.4599 -0.9686  0.1590
 5503TIP3   OH237999   5.950   3.221  13.293 -0.3363  0.3470  0.1850
 5503TIP3    H138000   5.943   3.218  13.197 -0.9561  1.8880  0.1600
 5503TIP3    H238001   6.041   3.244  13.309 -0.4703  1.0902 -0.0743
 5504TIP3   OH238002   2.882   2.346   0.702 -0.2722  0.1577  0.3878
 5504TIP3    H138003   2.812   2.306   0.651 -1.1017  2.1403 -0.0923
 5504TIP3    H238004   2.881   2.438   0.676  0.6320  0.7987  2.4912
 5505TIP3   OH238005   3.713   4.439  15.735 -0.1510 -0.6821  0.4980
 5505TIP3    H138006   3.710   4.535  15.731 -0.7549 -0.6137  2.2280
 5505TIP3    H238007   3.772   4.414  15.664 -0.3510  0.9458 -0.2585
 5506TIP3   OH238008   2.146   2.271  11.611  0.0939  0.1291 -0.3854
 5506TIP3    H138009   2.132   2.347  11.667 -3.0821 -0.8144  0.2068
 5506TIP3    H238010   2.065   2.263  11.561  0.9186 -2.0396 -1.4470
 5507TIP3   OH238011   2.003   0.106   3.881  0.0070 -0.5658  0.0952
 5507TIP3    H138012   1.945   0.099   3.957 -1.0025 -0.3427 -0.6424
 5507TIP3    H238013   2.063   0.177   3.903 -0.1870 -0.5938  0.7379
 5508TIP3   OH238014   3.943   1.605   4.243 -0.2975 -0.4898 -0.0707
 5508TIP3    H138015   3.988   1.566   4.318 -0.2979  1.6801  1.1018
 5508TIP3    H238016   4.010   1.659   4.201 -1.0185  0.4805  0.0067
 5509TIP3   OH238017   2.519   1.794   3.202 -0.2605 -0.1681  0.0973
 5509TIP3    H138018   2.484   1.812   3.289 -1.6496  0.1899 -0.5200
 5509TIP3    H238019   2.491   1.869   3.149  1.6048  0.2161 -0.3760
 5510TIP3   OH238020   3.181   3.079  14.471  0.0135 -0.0579 -0.0896
 5510TIP3    H138021   3.213   3.005  14.523 -0.8004  1.1838  2.2587
 5510TIP3    H238022   3.165   3.148  14.535 -0.4989  1.7300 -2.0849
 5511TIP3   OH238023   5.075   1.866   2.648  0.0974  0.3641  0.0812
 5511TIP3    H138024   5.168   1.850   2.667 -0.3849  0.4376  2.6557
 5511TIP3    H238025   5.066   1.961   2.652 -0.1330  0.3433  0.0414
 5512TIP3   OH238026   5.635   3.127  10.780  0.6324  0.1175  0.0114
 5512TIP3    H138027   5.712   3.183  10.781  1.9437 -1.6372  0.1717
 5512TIP3    H238028   5.631   3.093  10.690  1.3844 -1.5780  0.6054
 5513TIP3   OH238029   1.603   5.257   3.254 -0.0616  0.0182 -0.1882
 5513TIP3    H138030   1.609   5.236   3.161 -1.4447  0.0481 -0.2853
 5513TIP3    H238031   1.691   5.287   3.277  0.1846  0.4077 -1.5824
 5514TIP3   OH238032   4.749   6.392   4.913 -0.7084 -0.4267  0.4608
 5514TIP3    H138033   4.677   6.437   4.957 -0.3622  0.2839  0.3069
 5514TIP3    H238034   4.777   6.453   4.844  0.1838 -0.6005  0.6656
 5515TIP3   OH238035   6.053   1.240  11.967 -0.2945 -0.4413  0.0758
 5515TIP3    H138036   6.025   1.328  11.993  0.7018 -0.1974  0.3240
 5515TIP3    H238037   6.022   1.184  12.038  0.5112 -0.0689  0.7260
 5516TIP3   OH238038   2.151   3.514   2.080  0.6176  0.3979  0.6063
 5516TIP3    H138039   2.166   3.435   2.132  0.9445  0.1432  0.1272
 5516TIP3    H238040   2.177   3.586   2.138 -0.0775  0.1822  1.1949
 5517TIP3   OH238041   2.889   1.580   3.341 -0.3797  0.2029 -0.7166
 5517TIP3    H138042   2.877   1.558   3.434  1.2309  2.5064  0.0928
 5517TIP3    H238043   2.969   1.534   3.316  1.2255  2.4287  0.1043
 5518TIP3   OH238044   1.795   4.984  10.662 -0.3012 -0.2079 -0.4583
 5518TIP3    H138045   1.872   5.007  10.713 -0.6499  1.7011 -0.7752
 5518TIP3    H238046   1.829   4.964  10.575 -0.2257  1.4681 -0.8349
 5519TIP3   OH238047   0.205   3.188   2.324 -0.0067 -0.4384  0.3224
 5519TIP3    H138048   0.243   3.111   2.367 -0.2546 -0.6006  0.2556
 5519TIP3    H238049   0.232   3.179   2.232  3.2481  1.6080  1.0257
 5520TIP3   OH238050   4.527   5.531  16.144  0.2089 -0.7596  0.2854
 5520TIP3    H138051   4.547   5.547  16.236  0.4054 -0.6727  0.2261
 5520TIP3    H238052   4.502   5.438  16.141 -1.9705 -0.2291  0.8085
 5521TIP3   OH238053   5.852   4.981  13.378 -0.2604  0.2786  0.3282
 5521TIP3    H138054   5.845   4.910  13.441  2.1719  0.4709  0.8671
 5521TIP3    H238055   5.770   5.030  13.388 -0.4899 -0.4619  2.4083
 5522TIP3   OH238056   0.159   5.354   4.556  0.1384  0.9450 -0.0859
 5522TIP3    H138057   0.174   5.275   4.504  3.2541  0.5624  1.2960
 5522TIP3    H238058   0.232   5.411   4.534  0.2501  1.6925  2.1331
 5523TIP3   OH238059   6.462   4.585  13.762 -0.3001  0.5875  0.2366
 5523TIP3    H138060   6.392   4.582  13.827 -0.2130 -0.4082  0.2919
 5523TIP3    H238061   6.424   4.545  13.684  0.6039 -1.1630  0.6613
 5524TIP3   OH238062   2.757   3.960  15.734 -0.4220 -0.0380  0.4481
 5524TIP3    H138063   2.670   3.920  15.742 -1.2622  1.5204 -0.5999
 5524TIP3    H238064   2.792   3.959  15.823 -0.8800 -2.0241  0.6389
 5525TIP3   OH238065   0.581   2.902  17.234  0.0558 -0.2225  0.1310
 5525TIP3    H138066   0.563   2.809  17.248 -1.4208 -0.1236 -0.9755
 5525TIP3    H238067   0.583   2.913  17.139  2.3761  0.4895  0.2437
 5526TIP3   OH238068   4.824   3.986  13.113  0.1851 -0.4900  0.1487
 5526TIP3    H138069   4.867   4.067  13.140  1.3045 -0.6426 -1.1448
 5526TIP3    H238070   4.831   3.929  13.190  0.5130  0.1834  0.6273
 5527TIP3   OH238071   3.386   2.800  14.931 -0.5737  0.3171  0.2076
 5527TIP3    H138072   3.465   2.759  14.967 -0.1764  0.5427 -0.3845
 5527TIP3    H238073   3.385   2.888  14.968 -0.8237  0.1439  0.6130
 5528TIP3   OH238074   4.567   5.072  14.711 -0.1626 -0.3461 -0.6684
 5528TIP3    H138075   4.550   5.042  14.800 -1.0964 -0.6253 -0.9282
 5528TIP3    H238076   4.618   5.001  14.671  3.1137  1.1992  0.6066
 5529TIP3   OH238077   4.894   4.366   3.426  0.3496 -0.1260  0.0465
 5529TIP3    H138078   4.967   4.355   3.487  0.8474 -1.5322 -0.7977
 5529TIP3    H238079   4.885   4.281   3.384 -2.9967 -0.5629  1.4747
 5530TIP3   OH238080   5.491   1.342  16.241 -0.3819  0.2422  0.4699
 5530TIP3    H138081   5.475   1.263  16.293 -1.7709  0.3743  0.2401
 5530TIP3    H238082   5.545   1.397  16.298 -1.3957  0.1319  1.5553
 5531TIP3   OH238083   6.306   3.135   0.544  0.4625 -0.1513 -0.1881
 5531TIP3    H138084   6.388   3.116   0.499 -0.7740 -1.3223 -2.0176
 5531TIP3    H238085   6.317   3.098   0.631  2.8588  2.0488  0.5346
 5532TIP3   OH238086   0.955   5.908  16.609  0.8429  0.4425 -0.2983
 5532TIP3    H138087   1.032   5.855  16.587  0.6888 -0.4339  1.1578
 5532TIP3    H238088   0.887   5.843  16.629  0.6963  1.1695  1.6676
 5533TIP3   OH238089   5.153   6.261   1.613  0.0062  0.3448 -0.5592
 5533TIP3    H138090   5.119   6.302   1.534  0.5860  2.2315  0.1563
 5533TIP3    H238091   5.243   6.236   1.589 -1.3259 -3.4826 -2.0275
 5534TIP3   OH238092   4.266   6.809   1.992 -0.1885 -0.6004  0.4122
 5534TIP3    H138093   4.227   6.758   1.921  0.5763 -2.4574  1.2963
 5534TIP3    H238094   4.357   6.778   1.997  0.4308  1.2096  0.6438
 5535TIP3   OH238095   3.779   0.542  16.544 -1.0684  0.0604  0.2673
 5535TIP3    H138096   3.814   0.468  16.495  1.8226 -0.1943  2.6099
 5535TIP3    H238097   3.746   0.602  16.477 -0.3388 -1.7891 -1.7943
 5536TIP3   OH238098   0.591   4.093   2.115 -0.0814  0.2636 -0.5887
 5536TIP3    H138099   0.622   4.009   2.149 -2.9775  0.1496  1.9600
 5536TIP3    H238100   0.665   4.152   2.125  0.9057 -1.1660  0.7726
 5537TIP3   OH238101   3.799   2.843   0.774 -0.3607  0.6263 -0.4702
 5537TIP3    H138102   3.793   2.802   0.860  0.7035  2.8638  0.7230
 5537TIP3    H238103   3.709   2.855   0.746 -0.6917 -1.1931 -0.2168
 5538TIP3   OH238104   5.437   2.016  11.724 -0.3235 -0.3672 -0.3257
 5538TIP3    H138105   5.474   2.007  11.636 -0.1518  2.7762 -0.6468
 5538TIP3    H238106   5.463   1.936  11.769  0.4657 -1.5772 -2.8161
 5539TIP3   OH238107   0.156   3.685   5.005 -0.5722  0.2756 -0.0966
 5539TIP3    H138108   0.182   3.752   5.067  0.6107  0.9224 -1.2680
 5539TIP3    H238109   0.078   3.645   5.044 -2.2664  3.4075 -0.1241
 5540TIP3   OH238110   2.202   4.264  12.877 -0.1336  0.3973  0.2227
 5540TIP3    H138111   2.161   4.315  12.947 -0.3318 -0.0761  0.4464
 5540TIP3    H238112   2.214   4.328  12.806  2.0717  1.4294  1.4605
 5541TIP3   OH238113   1.493   3.714  16.718  0.3644  0.3868 -0.3475
 5541TIP3    H138114   1.568   3.698  16.660 -0.6401 -2.3838 -0.9734
 5541TIP3    H238115   1.448   3.789  16.679 -0.5436 -1.6811 -3.4898
 5542TIP3   OH238116   2.501   5.661   3.060  0.1311  0.4601  0.0308
 5542TIP3    H138117   2.536   5.702   2.981 -0.4795  0.2306 -0.3594
 5542TIP3    H238118   2.550   5.701   3.132  0.9247  0.4248 -0.4862
 5543TIP3   OH238119   0.238   1.393   6.620  0.1647  0.0638  0.3047
 5543TIP3    H138120   0.236   1.305   6.657 -1.5206 -0.4462 -0.9342
 5543TIP3    H238121   0.312   1.435   6.663 -0.7601 -0.9943  3.0605
 5544TIP3   OH238122   1.936   3.929  17.149 -0.2398  0.5305  0.2728
 5544TIP3    H138123   2.012   3.969  17.191 -0.5868  0.2677  1.1460
 5544TIP3    H238124   1.862   3.956  17.203 -1.1731  3.2905 -2.2159
 5545TIP3   OH238125   5.421   6.293   1.855  0.1471 -0.6600 -0.4779
 5545TIP3    H138126   5.446   6.316   1.765 -0.1971 -0.7146 -0.5874
 5545TIP3    H238127   5.456   6.364   1.909  0.9753 -0.9910 -0.5773
 5546TIP3   OH238128   5.974   2.247  12.680 -0.0735 -0.0322  0.1011
 5546TIP3    H138129   5.913   2.218  12.748  0.4824 -0.2631  0.5034
 5546TIP3    H238130   6.050   2.188  12.688 -0.9348 -1.5264 -2.2030
 5547TIP3   OH238131   0.797   6.137  14.686  0.0969 -0.2969 -0.0220
 5547TIP3    H138132   0.834   6.073  14.748  1.3822 -0.5161 -1.0108
 5547TIP3    H238133   0.723   6.092  14.647  1.6740 -1.6254 -1.5431
 5548TIP3   OH238134   4.952   3.515   1.581  0.9334 -0.1349 -0.0994
 5548TIP3    H138135   4.914   3.557   1.504  0.5096  0.2600  0.3180
 5548TIP3    H238136   4.954   3.585   1.647 -2.2207 -1.4311  1.4596
 5549TIP3   OH238137   6.011   0.913  16.577  0.4888 -0.0570 -0.5298
 5549TIP3    H138138   6.000   0.937  16.485 -1.1335 -2.0366 -0.8884
 5549TIP3    H238139   5.992   0.993  16.626  0.1246  0.6819 -1.8756
 5550TIP3   OH238140   2.949   3.948  12.757 -0.0490 -0.1040 -1.1696
 5550TIP3    H138141   3.019   4.012  12.761  1.0477 -1.2904 -1.0155
 5550TIP3    H238142   2.954   3.902  12.841 -0.7885 -0.4264 -1.2953
 5551TIP3   OH238143   2.747   2.476  14.513 -0.2964  0.1743 -0.1275
 5551TIP3    H138144   2.806   2.516  14.577  0.4159 -1.1441  0.0574
 5551TIP3    H238145   2.731   2.388  14.548 -1.3755  0.0897 -0.8251
 5552TIP3   OH238146   0.714   6.344  12.579  0.2795 -0.1744  0.2565
 5552TIP3    H138147   0.738   6.321  12.489 -0.2508  0.3337 -0.0259
 5552TIP3    H238148   0.796   6.344  12.627  0.7194  0.6604 -0.4874
 5553TIP3   OH238149   1.422   1.526  16.868 -0.6543 -0.1640  0.3451
 5553TIP3    H138150   1.510   1.530  16.832 -0.7168 -2.0144 -0.0860
 5553TIP3    H238151   1.396   1.618  16.879  1.5609  0.3887  1.1433
 5554TIP3   OH238152   2.885   5.570  11.487  0.2473 -0.6073  0.2123
 5554TIP3    H138153   2.872   5.477  11.469 -0.7051 -0.2924 -0.7745
 5554TIP3    H238154   2.880   5.613  11.401 -2.0936  0.6581  0.9145
 5555TIP3   OH238155   0.595   0.623   2.136 -0.6951 -0.7826 -0.0122
 5555TIP3    H138156   0.588   0.542   2.186  1.7823  0.3976  2.3569
 5555TIP3    H238157   0.642   0.599   2.057 -0.2824 -1.7241  0.5224
 5556TIP3   OH238158   5.821   3.348  10.814  0.7216 -0.2023  0.5407
 5556TIP3    H138159   5.802   3.430  10.767  1.7439 -1.0571 -1.4343
 5556TIP3    H238160   5.916   3.337  10.806  0.3848 -2.4770 -0.7851
 5557TIP3   OH238161   3.214   4.474   1.879  0.2570  0.1936 -0.7568
 5557TIP3    H138162   3.197   4.410   1.810  0.4321  0.7320 -1.3104
 5557TIP3    H238163   3.295   4.518   1.852  0.1410  0.6430 -0.3895
 5558TIP3   OH238164   5.416   3.786   0.760  0.5577  0.2044  0.5850
 5558TIP3    H138165   5.413   3.861   0.701  0.2999  0.1168  0.4861
 5558TIP3    H238166   5.504   3.750   0.748 -0.0966 -0.9226 -1.1514
 5559TIP3   OH238167   6.640   2.616   4.641  0.3841  0.0679 -0.4731
 5559TIP3    H138168   6.692   2.676   4.589  2.4402 -1.8448 -0.7312
 5559TIP3    H238169   6.635   2.536   4.588 -1.7274 -0.2231  0.1202
 5560TIP3   OH238170   5.121   3.186   0.429  0.1888  0.0501  0.1631
 5560TIP3    H138171   5.108   3.133   0.350  0.0439 -2.0331  1.5400
 5560TIP3    H238172   5.202   3.153   0.467  0.6782  1.5839  0.4841
 5561TIP3   OH238173   4.778   1.387   2.281 -0.2045 -0.6134 -0.4911
 5561TIP3    H138174   4.788   1.477   2.251  1.7531 -1.0402 -1.1668
 5561TIP3    H238175   4.814   1.387   2.370 -2.0666 -0.3028  0.2907
 5562TIP3   OH238176   5.648   2.451   5.514  0.1527  0.1499 -0.4874
 5562TIP3    H138177   5.628   2.357   5.507  1.7098 -0.1928 -0.6786
 5562TIP3    H238178   5.727   2.462   5.460  0.2624  1.4732 -0.0690
 5563TIP3   OH238179   2.301   0.404  11.724 -0.6292  0.3679  0.6489
 5563TIP3    H138180   2.381   0.388  11.674  0.0290  1.2383  1.4138
 5563TIP3    H238181   2.232   0.360  11.674  0.4513 -1.0742  0.4169
 5564TIP3   OH238182   6.482   0.419   3.546  0.3163  0.0239  0.2349
 5564TIP3    H138183   6.408   0.383   3.497 -1.7302  2.2120  1.6284
 5564TIP3    H238184   6.450   0.424   3.636  2.7885 -0.6219  1.1913
 5565TIP3   OH238185   2.964   5.819   5.438  0.0173  0.4048 -0.1863
 5565TIP3    H138186   2.969   5.859   5.351 -0.7980  0.0522 -0.4008
 5565TIP3    H238187   2.931   5.888   5.495  3.0679  1.4587  0.3963
 5566TIP3   OH238188   4.337   0.092   6.324  0.0950 -0.2269 -0.2338
 5566TIP3    H138189   4.373   0.178   6.345  2.3169 -1.0439 -0.5730
 5566TIP3    H238190   4.330   0.091   6.228 -0.2552 -0.2959 -0.2078
 5567TIP3   OH238191   3.072   2.241  12.927 -0.3127 -0.1277  0.0372
 5567TIP3    H138192   3.155   2.193  12.937  0.3089  0.7476 -0.7494
 5567TIP3    H238193   3.087   2.297  12.851 -0.9406  1.4726  1.0796
 5568TIP3   OH238194   3.960   2.364   0.812 -0.0085  0.5455  0.4986
 5568TIP3    H138195   3.967   2.450   0.855 -0.5716 -0.1620  2.0429
 5568TIP3    H238196   3.873   2.363   0.773 -0.5618  0.1109  1.7395
 5569TIP3   OH238197   6.251   0.062   4.225 -0.4526  0.6119  0.1613
 5569TIP3    H138198   6.224   0.151   4.250 -1.6677  0.3843 -0.2814
 5569TIP3    H238199   6.189   0.005   4.269  1.8431 -0.1738  2.4428
 5570TIP3   OH238200   2.652   5.844   0.110  0.2372 -0.1488  0.1866
 5570TIP3    H138201   2.687   5.933   0.119 -0.4067  0.1242  0.0713
 5570TIP3    H238202   2.683   5.798   0.187  2.1127 -0.3516 -0.6708
 5571TIP3   OH238203   6.143   0.390   3.507  0.0854 -0.2779 -1.1688
 5571TIP3    H138204   6.192   0.466   3.474  1.9717 -1.2285 -0.6347
 5571TIP3    H238205   6.113   0.417   3.594 -0.1928  0.2505 -1.4257
 5572TIP3   OH238206   4.848   5.639   0.865 -0.3079  0.0455 -0.1748
 5572TIP3    H138207   4.829   5.628   0.772 -0.5742 -0.9076 -0.0070
 5572TIP3    H238208   4.874   5.552   0.895  1.0906  0.6191  0.3501
 5573TIP3   OH238209   3.622   1.752   0.224 -0.1983  0.0204 -0.3721
 5573TIP3    H138210   3.707   1.708   0.214  0.4831  0.8055  1.6302
 5573TIP3    H238211   3.616   1.809   0.147  1.0532 -0.1310 -0.6033
 5574TIP3   OH238212   5.400   5.169  15.366  0.2449  0.4465 -0.5692
 5574TIP3    H138213   5.412   5.078  15.394  0.6223  0.3575 -1.0121
 5574TIP3    H238214   5.488   5.200  15.348  0.0049  0.4948 -1.6841
 5575TIP3   OH238215   3.269   5.834  16.903  0.0209 -0.0029 -0.0312
 5575TIP3    H138216   3.255   5.871  16.990  0.1859  0.3976 -0.1757
 5575TIP3    H238217   3.360   5.804  16.904 -0.5753 -1.8814  0.6284
 5576TIP3   OH238218   4.056   3.904  15.370 -0.2563  0.3939  0.3022
 5576TIP3    H138219   4.150   3.916  15.370 -0.2724  0.5213  1.8534
 5576TIP3    H238220   4.044   3.810  15.384 -0.3456  0.1584 -1.2501
 5577TIP3   OH238221   5.593   1.442  15.674 -0.3502  0.3438  0.2166
 5577TIP3    H138222   5.630   1.403  15.595 -0.0596  0.6658  0.1933
 5577TIP3    H238223   5.617   1.535  15.669 -0.4836  0.4009  0.5925
 5578TIP3   OH238224   2.611   6.150  11.641 -0.3047 -0.3691  0.1914
 5578TIP3    H138225   2.527   6.196  11.638  1.3328  2.7996  1.0047
 5578TIP3    H238226   2.649   6.164  11.554  0.0080 -0.5414  0.3000
 5579TIP3   OH238227   0.446   6.619  11.489 -0.0881  0.1781 -0.6902
 5579TIP3    H138228   0.468   6.637  11.398  2.0429 -0.4823 -0.3390
 5579TIP3    H238229   0.530   6.598  11.530 -1.1691 -0.6031  1.1759
 5580TIP3   OH238230   1.511   1.690  13.212 -0.1146 -0.5989  0.1871
 5580TIP3    H138231   1.524   1.597  13.228 -0.1840 -0.3468  1.8285
 5580TIP3    H238232   1.580   1.733  13.264  0.1252  0.2498 -0.8157
 5581TIP3   OH238233   0.756   2.857  16.487  0.3069  0.6462  0.2669
 5581TIP3    H138234   0.826   2.921  16.491  1.7907 -0.5832 -3.5176
 5581TIP3    H238235   0.699   2.887  16.416 -0.9940 -0.2835  0.8842
 5582TIP3   OH238236   1.358   4.437  15.939 -0.6305 -0.7573 -0.0977
 5582TIP3    H138237   1.372   4.427  15.845 -0.8779 -2.6214  0.0619
 5582TIP3    H238238   1.278   4.388  15.957 -0.6650 -0.2846  1.0617
 5583TIP3   OH238239   4.460   5.317  14.304  0.5793  0.2628  0.0087
 5583TIP3    H138240   4.365   5.321  14.288  0.7587  0.6503 -0.9566
 5583TIP3    H238241   4.496   5.279  14.224  1.1519 -0.7564  0.7378
 5584TIP3   OH238242   4.826   3.951  11.065 -0.0759  0.1224 -0.5472
 5584TIP3    H138243   4.852   4.043  11.054 -1.2929  0.4408 -0.8332
 5584TIP3    H238244   4.870   3.905  10.993  1.0652  0.3732 -0.0078
 5585TIP3   OH238245   6.717   0.295  14.273  0.5967  0.5931  0.4501
 5585TIP3    H138246   6.764   0.340  14.203 -0.0233  2.9326  1.4792
 5585TIP3    H238247   6.674   0.366  14.322 -2.7820 -1.3115  0.4203
 5586TIP3   OH238248   4.975   0.730  15.472 -0.3366  0.0169  0.5837
 5586TIP3    H138249   4.955   0.810  15.423 -2.1145 -0.5381  0.3652
 5586TIP3    H238250   4.897   0.715  15.526  0.1085 -1.4048  0.8482
 5587TIP3   OH238251   4.864   3.977  12.838  0.6824  0.1548 -0.1429
 5587TIP3    H138252   4.843   4.068  12.819 -2.5225 -0.4156  0.4109
 5587TIP3    H238253   4.856   3.969  12.933 -0.6500 -1.0464 -0.3378
 5588TIP3   OH238254   0.881   5.861   5.722  0.4128  0.0458 -0.5877
 5588TIP3    H138255   0.882   5.835   5.630  2.4347  1.1076 -0.9056
 5588TIP3    H238256   0.854   5.783   5.769  1.5034 -1.1457 -1.9130
 5589TIP3   OH238257   5.916   2.622   2.290  0.0558 -0.1574  0.4109
 5589TIP3    H138258   5.850   2.638   2.223 -0.2482  0.1231  0.7744
 5589TIP3    H238259   5.866   2.607   2.370  0.3558 -2.0052  0.2784
 5590TIP3   OH238260   5.058   5.783  11.361 -0.1374  0.1318 -0.3089
 5590TIP3    H138261   5.103   5.764  11.443 -0.6888  1.2580  0.2577
 5590TIP3    H238262   5.128   5.809  11.301 -0.0552  2.2755  0.6851
 5591TIP3   OH238263   3.273   2.221  13.955 -0.2800  0.3508 -0.0323
 5591TIP3    H138264   3.244   2.161  13.886  0.3513 -2.1192  1.7614
 5591TIP3    H238265   3.359   2.251  13.926 -0.5541  0.3115 -0.8994
 5592TIP3   OH238266   0.351   6.009   2.182 -0.3837  0.3366  0.3063
 5592TIP3    H138267   0.364   5.974   2.094  0.5499 -0.7760  0.8745
 5592TIP3    H238268   0.411   6.084   2.187 -0.4686  0.4255 -0.0206
 5593TIP3   OH238269   0.208   1.619   2.993 -0.1503 -0.1136  0.0321
 5593TIP3    H138270   0.266   1.653   3.061 -1.5371  0.7835  0.7943
 5593TIP3    H238271   0.124   1.664   3.008 -0.5248 -0.0115 -2.1730
 5594TIP3   OH238272   2.716   4.935   1.529 -1.3364  0.8086 -0.7582
 5594TIP3    H138273   2.757   4.930   1.443 -1.1733  0.3281 -0.6554
 5594TIP3    H238274   2.779   4.981   1.584 -0.5541 -0.6753 -0.3851
 5595TIP3   OH238275   6.707   3.228   4.853  0.2976  0.3611  0.6311
 5595TIP3    H138276   6.676   3.138   4.855  0.3272  0.3225 -0.4590
 5595TIP3    H238277   6.801   3.222   4.872  0.4834  0.0789 -0.3978
 5596TIP3   OH238278   5.729   6.069   4.432  0.5943  0.1490 -0.5016
 5596TIP3    H138279   5.756   5.996   4.488  1.7472  0.1461 -1.0301
 5596TIP3    H238280   5.635   6.056   4.419  0.2466  0.3219  1.6716
 5597TIP3   OH238281   5.394   6.251  14.823  0.4902 -0.5274 -0.1465
 5597TIP3    H138282   5.366   6.320  14.763  0.1622 -1.1319 -0.6881
 5597TIP3    H238283   5.316   6.197  14.835  1.1850 -1.7167 -0.9755
 5598TIP3   OH238284   3.481   6.068  16.053 -0.1326 -0.4464  0.4361
 5598TIP3    H138285   3.568   6.029  16.045 -0.4497 -1.0095 -0.3310
 5598TIP3    H238286   3.467   6.077  16.147 -0.2753 -2.7059  0.6535
 5599TIP3   OH238287   1.896   1.971  14.878  0.8076  0.4038 -0.0269
 5599TIP3    H138288   1.922   2.063  14.865  0.6394  0.2211 -1.7686
 5599TIP3    H238289   1.841   1.951  14.803 -0.3741 -0.7062  1.1125
 5600TIP3   OH238290   1.603   6.238   5.509  0.5456 -0.4435 -0.3537
 5600TIP3    H138291   1.684   6.233   5.560  0.3897  0.9326  0.0434
 5600TIP3    H238292   1.587   6.332   5.498 -0.7245 -0.7082 -0.8587
 5601TIP3   OH238293   2.013   5.554  16.298 -0.4220  0.3271 -0.5497
 5601TIP3    H138294   1.923   5.531  16.320  0.2308 -1.1587  0.6028
 5601TIP3    H238295   2.066   5.509  16.363  1.0996  2.2909 -0.3983
 5602TIP3   OH238296   5.268   4.418  12.346 -0.2542 -0.6246 -0.5014
 5602TIP3    H138297   5.272   4.476  12.270 -1.1085  1.7484  1.1809
 5602TIP3    H238298   5.174   4.405  12.361 -0.1277 -0.0605  0.8518
 5603TIP3   OH238299   2.606   0.336  13.554 -0.1256 -0.3004  0.7532
 5603TIP3    H138300   2.631   0.360  13.643 -0.3998  1.1797  0.4402
 5603TIP3    H238301   2.518   0.372  13.543 -0.4643 -1.2856  0.2007
 5604TIP3   OH238302   2.604   0.032  15.573  0.0697  0.0080 -0.3808
 5604TIP3    H138303   2.524   0.033  15.627  0.7358 -0.7200  0.6405
 5604TIP3    H238304   2.626   0.124  15.562 -1.4065  0.2620 -1.4290
 5605TIP3   OH238305   5.721   5.788  13.247 -0.2182  0.3306 -0.6083
 5605TIP3    H138306   5.794   5.842  13.217 -0.8224 -0.4153 -3.5001
 5605TIP3    H238307   5.755   5.744  13.326  2.2916  0.3514 -1.6342
 5606TIP3   OH238308   1.878   2.700  16.424 -0.0687 -0.4577  0.2232
 5606TIP3    H138309   1.968   2.732  16.426  0.1668 -0.7954 -2.5979
 5606TIP3    H238310   1.879   2.628  16.360 -2.4563 -0.0279 -0.3598
 5607TIP3   OH238311   3.117   4.448  11.894  0.5859 -0.1286 -0.1671
 5607TIP3    H138312   3.155   4.360  11.887 -1.6968 -1.0120 -1.9011
 5607TIP3    H238313   3.053   4.453  11.823 -0.9859  2.1146  1.3302
 5608TIP3   OH238314   4.162   5.822   2.151 -0.0018  0.1974 -0.3309
 5608TIP3    H138315   4.101   5.781   2.089 -1.1353 -0.8301  1.4088
 5608TIP3    H238316   4.238   5.846   2.098 -1.4336  0.4411 -2.3338
 5609TIP3   OH238317   2.930   2.788   4.364 -0.0041  0.4051  0.1929
 5609TIP3    H138318   2.871   2.825   4.298  1.9075 -0.5045 -2.1539
 5609TIP3    H238319   2.903   2.696   4.370  1.1772 -0.0423 -0.9767
 5610TIP3   OH238320   4.235   3.601  16.324 -0.3287 -0.6531 -0.1566
 5610TIP3    H138321   4.259   3.579  16.414 -2.1307 -0.9077  0.2898
 5610TIP3    H238322   4.139   3.606  16.326 -0.3538 -0.1536 -1.9484
 5611TIP3   OH238323   6.545   5.796   3.950 -0.1702  0.1996  0.0145
 5611TIP3    H138324   6.503   5.880   3.934 -2.1847 -0.5884  0.9587
 5611TIP3    H238325   6.473   5.739   3.978  1.3665 -1.4943  0.5601
 5612TIP3   OH238326   5.567   4.969  16.157 -0.1183 -0.7042  0.1814
 5612TIP3    H138327   5.590   5.022  16.233 -3.0753  0.3483  0.4045
 5612TIP3    H238328   5.608   5.014  16.083 -1.7367  1.4222  0.5012
 5613TIP3   OH238329   1.115   5.983   1.069  0.1724 -0.1043 -0.3431
 5613TIP3    H138330   1.093   6.048   1.002 -1.9445 -2.8928 -2.4897
 5613TIP3    H238331   1.059   6.005   1.143  0.1217  1.0400 -0.7114
 5614TIP3   OH238332   1.861   4.886  11.514  0.1145 -0.1735 -0.4819
 5614TIP3    H138333   1.932   4.947  11.494 -1.4897  1.9363  0.0809
 5614TIP3    H238334   1.872   4.866  11.607 -0.1084  0.2497 -0.3658
 5615TIP3   OH238335   3.115   1.825   3.473  0.0995 -0.0684  0.3478
 5615TIP3    H138336   3.176   1.865   3.534 -0.5201 -1.0396  1.6069
 5615TIP3    H238337   3.166   1.810   3.394  1.0369  0.6882  0.8011
 5616TIP3   OH238338   6.051   6.328  15.821  0.4029  0.5760 -0.3661
 5616TIP3    H138339   6.075   6.262  15.756  2.0224  1.5244 -0.7709
 5616TIP3    H238340   6.120   6.321  15.887  0.1551  1.3351 -0.0312
 5617TIP3   OH238341   1.542   0.841  16.845 -0.2996 -0.0692 -0.9685
 5617TIP3    H138342   1.568   0.783  16.773 -0.7870 -1.9880  0.3481
 5617TIP3    H238343   1.623   0.879  16.877  0.3153 -1.7981 -0.4021
 5618TIP3   OH238344   2.010   5.915   4.780  0.4439 -0.0582 -0.4343
 5618TIP3    H138345   1.991   5.993   4.727 -1.7926 -0.4161 -0.1962
 5618TIP3    H238346   2.097   5.932   4.816  0.6928  1.5862 -1.7215
 5619TIP3   OH238347   0.048   4.291   4.363 -0.0026 -0.0362 -0.2223
 5619TIP3    H138348   0.000   4.341   4.429 -0.2525 -1.3968  0.6594
 5619TIP3    H238349   0.018   4.201   4.375 -0.0753 -0.3187 -2.2203
 5620TIP3   OH238350   6.038   2.333  15.244 -0.1880  0.2030  0.3288
 5620TIP3    H138351   5.964   2.362  15.297 -2.0052  0.2496 -2.1494
 5620TIP3    H238352   6.046   2.240  15.263 -0.8588  0.2078  0.6439
 5621TIP3   OH238353   6.748   3.584   0.108  0.0702  0.3382  0.4781
 5621TIP3    H138354   6.674   3.598   0.049  0.3266 -1.1470 -0.2310
 5621TIP3    H238355   6.767   3.670   0.144 -0.3020  1.2277 -1.3785
 5622TIP3   OH238356   1.953   2.188   3.523 -0.0786 -0.3957  0.2495
 5622TIP3    H138357   2.027   2.176   3.583 -0.1699 -0.8570  0.2691
 5622TIP3    H238358   1.973   2.131   3.449  0.4269  0.7790 -0.5259
 5623TIP3   OH238359   3.635   1.143   3.737  0.4588 -0.5026 -0.1931
 5623TIP3    H138360   3.569   1.107   3.796  0.8234  0.5063  0.8383
 5623TIP3    H238361   3.584   1.181   3.665  0.0171 -1.7348 -0.5485
 5624TIP3   OH238362   0.362   5.735   1.073  0.2878  0.3852 -0.0023
 5624TIP3    H138363   0.287   5.790   1.095  0.8078  1.3078 -0.5098
 5624TIP3    H238364   0.358   5.662   1.134 -0.6380  0.7875  0.4111
 5625TIP3   OH238365   2.173   4.523   4.328 -0.5085  0.4982  0.4897
 5625TIP3    H138366   2.157   4.489   4.416  0.8548  0.4333  0.7203
 5625TIP3    H238367   2.105   4.588   4.314 -1.5775 -0.4756  1.0527
 5626TIP3   OH238368   5.516   1.640  12.481 -0.0196  0.5812 -0.1967
 5626TIP3    H138369   5.509   1.606  12.392  0.1948  0.5934 -0.2189
 5626TIP3    H238370   5.472   1.725  12.478 -1.3209 -0.0858  0.0696
 5627TIP3   OH238371   2.028   0.926   3.242 -0.2384  0.0280  0.2683
 5627TIP3    H138372   2.022   1.009   3.194  0.8190  0.4075  0.7809
 5627TIP3    H238373   2.088   0.945   3.315  1.3724 -1.6600 -0.5973
 5628TIP3   OH238374   4.693   5.333  14.764  0.1066  0.3988 -0.3709
 5628TIP3    H138375   4.770   5.334  14.707  0.1878  1.7059 -0.2505
 5628TIP3    H238376   4.657   5.244  14.755  1.0190  0.1162 -1.2383
 5629TIP3   OH238377   3.502   3.489  14.449 -0.3835  0.4793  0.2404
 5629TIP3    H138378   3.473   3.430  14.379  1.5958 -1.7107  1.1782
 5629TIP3    H238379   3.422   3.514  14.494 -1.3217 -1.1712 -0.4620
 5630TIP3   OH238380   2.227   3.469   4.643  0.5047 -0.4377 -0.3029
 5630TIP3    H138381   2.191   3.472   4.554 -0.8626  2.5195  0.2939
 5630TIP3    H238382   2.318   3.441   4.631 -0.1374 -1.6567 -2.4698
 5631TIP3   OH238383   2.465   4.601  15.409 -0.3330 -0.0514  0.4362
 5631TIP3    H138384   2.506   4.568  15.489 -0.5784  0.8892  0.9463
 5631TIP3    H238385   2.372   4.578  15.418 -0.4409  0.4727  0.6260
 5632TIP3   OH238386   3.724   1.162   6.562  0.0967  0.1317 -0.1540
 5632TIP3    H138387   3.650   1.219   6.583 -0.1772 -0.3938  0.3148
 5632TIP3    H238388   3.686   1.076   6.548  0.6744 -0.2560  0.6275
 5633TIP3   OH238389   4.801   1.131   1.480  0.2177 -0.0232  0.1363
 5633TIP3    H138390   4.721   1.182   1.472 -0.1743 -0.7242 -0.4931
 5633TIP3    H238391   4.853   1.155   1.403  0.3575 -0.0038  0.2372
 5634TIP3   OH238392   2.477   1.210   0.615  0.1668  0.2544  0.5415
 5634TIP3    H138393   2.477   1.116   0.598 -0.7637  0.0825  1.4003
 5634TIP3    H238394   2.450   1.250   0.533 -1.4504 -0.3658  0.7598
 5635TIP3   OH238395   2.718   4.611   3.932  0.5120 -0.1188  0.0661
 5635TIP3    H138396   2.810   4.595   3.953  0.0330  0.9114  3.1503
 5635TIP3    H238397   2.715   4.704   3.908  0.5281 -0.5668 -1.7889
 5636TIP3   OH238398   0.785   4.920   0.453  0.5093  0.0181 -0.2265
 5636TIP3    H138399   0.811   4.991   0.511 -0.9270  0.4160 -0.0449
 5636TIP3    H238400   0.787   4.842   0.509  0.6610  0.1492 -0.0477
 5637TIP3   OH238401   2.440   6.122  16.163 -0.1218 -0.0555 -0.6204
 5637TIP3    H138402   2.470   6.055  16.223  0.0780 -0.6964 -1.4321
 5637TIP3    H238403   2.499   6.117  16.089  0.2057  1.3617 -0.4687
 5638TIP3   OH238404   5.293   5.964   4.637 -0.0528  0.7097 -0.6283
 5638TIP3    H138405   5.255   6.004   4.715  0.2228  1.5067 -0.8960
 5638TIP3    H238406   5.218   5.934   4.586 -0.2319  0.2052 -0.0655
 5639TIP3   OH238407   3.457   5.120  12.639  0.4767 -0.5388 -0.4708
 5639TIP3    H138408   3.480   5.157  12.554 -0.1742  1.6749  0.2946
 5639TIP3    H238409   3.532   5.140  12.695  0.5449 -1.2583 -0.3047
 5640TIP3   OH238410   0.835   1.873   4.747 -0.1945  0.2643 -0.0221
 5640TIP3    H138411   0.749   1.913   4.732  0.2121  1.8011  1.5777
 5640TIP3    H238412   0.886   1.897   4.669 -0.3761  1.7288  0.2992
 5641TIP3   OH238413   4.960   3.591  14.144  0.3344 -0.1345 -0.0255
 5641TIP3    H138414   5.036   3.536  14.124 -0.6733 -1.4707 -0.2500
 5641TIP3    H238415   4.897   3.531  14.185 -0.4503  1.0358  0.5022
 5642TIP3   OH238416   4.667   4.113  15.898 -0.0172 -0.2699 -0.1982
 5642TIP3    H138417   4.581   4.146  15.924  0.4310  0.4362  0.4068
 5642TIP3    H238418   4.691   4.052  15.968 -0.2204 -0.8122 -0.5978
 5643TIP3   OH238419   5.557   6.666  12.267 -0.3357  0.7132  0.3457
 5643TIP3    H138420   5.547   6.664  12.362 -1.4410  0.2566  0.2297
 5643TIP3    H238421   5.612   6.591  12.247 -0.0711  0.8321  0.6316
 5644TIP3   OH238422   1.665   5.849  12.132 -0.3814 -0.9348 -0.1626
 5644TIP3    H138423   1.705   5.767  12.101 -1.3830 -1.2345 -0.6800
 5644TIP3    H238424   1.710   5.867  12.215  2.0485 -0.3546 -1.5362
 5645TIP3   OH238425   4.534   3.805  16.524 -0.2474  0.0625 -0.3101
 5645TIP3    H138426   4.472   3.752  16.573  2.1464 -0.7164  2.0131
 5645TIP3    H238427   4.574   3.862  16.590 -0.3042  2.3617 -2.1913
 5646TIP3   OH238428   3.023   1.595   1.964 -0.2306  0.4821  0.3534
 5646TIP3    H138429   2.981   1.520   1.922 -1.4483  0.3384  1.8086
 5646TIP3    H238430   3.114   1.569   1.975 -0.1097  0.1499 -1.2925
 5647TIP3   OH238431   6.457   3.130  12.909  0.0538  0.3755  0.1344
 5647TIP3    H138432   6.453   3.093  12.997 -2.5823  0.8368  0.2396
 5647TIP3    H238433   6.481   3.222  12.924  1.3080  0.0567  0.2162
 5648TIP3   OH238434   5.043   0.456  16.594 -1.0003 -0.0408  0.1797
 5648TIP3    H138435   5.092   0.509  16.657 -1.8473  2.9468 -1.5566
 5648TIP3    H238436   5.076   0.484  16.509 -1.9174 -1.9052 -0.8116
 5649TIP3   OH238437   1.189   0.535  10.951 -0.0365 -0.2477  0.2198
 5649TIP3    H138438   1.156   0.469  10.890  1.7576 -1.0628  0.1073
 5649TIP3    H238439   1.158   0.618  10.915 -1.3654 -0.9258 -0.2488
 5650TIP3   OH238440   3.914   5.801   1.252 -0.0466  0.2279 -0.0659
 5650TIP3    H138441   3.937   5.892   1.236 -1.0975  0.6353  0.6755
 5650TIP3    H238442   3.838   5.805   1.311 -1.1399 -1.0894 -1.3339
 5651TIP3   OH238443   6.473   5.033   4.397 -0.6269  0.2761 -0.2279
 5651TIP3    H138444   6.464   5.047   4.303 -0.9569  1.3103 -0.0430
 5651TIP3    H238445   6.474   4.938   4.406 -0.0796  0.1611 -1.3225
 5652TIP3   OH238446   0.164   1.559   4.919  0.1220 -0.3437 -0.7659
 5652TIP3    H138447   0.233   1.568   4.853 -0.5496  2.0897 -1.1743
 5652TIP3    H238448   0.134   1.648   4.936 -1.1830 -1.1175  1.2959
 5653TIP3   OH238449   0.111   6.716   4.348  1.2299 -0.3634  0.0062
 5653TIP3    H138450   0.181   6.719   4.282 -0.9257  0.2760 -2.3603
 5653TIP3    H238451   0.081   6.806   4.354  0.4619 -0.6752  0.8250
 5654TIP3   OH238452   2.950   0.318   3.281 -0.3011 -0.7566  0.0087
 5654TIP3    H138453   2.962   0.395   3.337 -1.6100 -0.1552 -0.5145
 5654TIP3    H238454   2.971   0.243   3.337 -0.3257 -0.0847  0.9121
 5655TIP3   OH238455   3.727   5.226  15.265  0.3593  0.1905 -0.1600
 5655TIP3    H138456   3.664   5.270  15.322 -0.1385  1.4549 -1.6589
 5655TIP3    H238457   3.796   5.291  15.252  1.0935 -0.5511  0.0169
 5656TIP3   OH238458   5.926   5.302  15.166 -0.1514  0.5804  0.3876
 5656TIP3    H138459   6.017   5.314  15.192 -0.4109  1.1040  1.0693
 5656TIP3    H238460   5.931   5.262  15.080  0.7253 -0.1667  0.7769
 5657TIP3   OH238461   4.822   6.048  15.349  0.2515  0.8147 -0.1181
 5657TIP3    H138462   4.905   6.003  15.366  0.7163  1.4643 -0.6516
 5657TIP3    H238463   4.756   5.989  15.385  0.7900 -0.7297 -1.5747
 5658TIP3   OH238464   3.899   0.520   4.155 -0.3520  0.8639 -0.2670
 5658TIP3    H138465   3.929   0.433   4.127 -1.1413 -1.6086  5.7416
 5658TIP3    H238466   3.979   0.572   4.159  0.5097 -0.3184 -1.6096
 5659TIP3   OH238467   5.561   5.898  11.773  0.4304  0.2135 -0.5312
 5659TIP3    H138468   5.594   5.862  11.691 -0.4738  2.2471 -1.8237
 5659TIP3    H238469   5.605   5.847  11.841  1.8329 -0.9347 -2.2612
 5660TIP3   OH238470   0.754   5.401  12.477 -0.3889 -0.4332 -0.1073
 5660TIP3    H138471   0.815   5.475  12.491 -2.3165  1.1549  0.0983
 5660TIP3    H238472   0.712   5.390  12.562 -0.8092 -1.1365 -0.4121
 5661TIP3   OH238473   1.368   3.487   5.552  0.4166  0.3387  0.5345
 5661TIP3    H138474   1.292   3.471   5.496  0.0577 -0.1197  1.1519
 5661TIP3    H238475   1.411   3.564   5.513  1.6720 -1.5596 -1.9032
 5662TIP3   OH238476   0.883   4.289  11.861  0.2312 -0.2045 -0.2200
 5662TIP3    H138477   0.787   4.291  11.870  0.2675  0.4503  0.0119
 5662TIP3    H238478   0.915   4.292  11.951  0.4254 -3.3557 -0.1208
 5663TIP3   OH238479   3.325   5.222   2.546  0.8879 -0.1993 -0.2253
 5663TIP3    H138480   3.413   5.203   2.516  1.2669  3.2846 -1.5471
 5663TIP3    H238481   3.285   5.271   2.474 -1.5135 -0.1730  1.0739
 5664TIP3   OH238482   0.694   4.773   3.971  0.2593  0.5434  0.1383
 5664TIP3    H138483   0.615   4.752   3.921  0.1266  3.6927 -1.1150
 5664TIP3    H238484   0.757   4.706   3.945 -0.5725  0.7135 -2.4953
 5665TIP3   OH238485   1.988   6.549  15.865  0.2095  0.0042 -0.1603
 5665TIP3    H138486   1.904   6.507  15.850 -0.2601  0.8270  0.1180
 5665TIP3    H238487   2.033   6.491  15.927 -0.3784 -0.1613  0.1215
 5666TIP3   OH238488   4.477   0.595  16.340 -0.2599 -0.3677  0.4783
 5666TIP3    H138489   4.471   0.577  16.246  1.3061 -2.7018  0.7959
 5666TIP3    H238490   4.394   0.639  16.361 -0.6598  0.1229 -1.9657
 5667TIP3   OH238491   3.838   3.206  12.259  0.5905 -0.3320  0.1015
 5667TIP3    H138492   3.927   3.184  12.287  0.4722  0.0014  0.7296
 5667TIP3    H238493   3.795   3.121  12.248  0.3674 -0.4482  1.7957
 5668TIP3   OH238494   2.879   6.184   5.064 -0.0397  0.0362  0.1668
 5668TIP3    H138495   2.876   6.208   5.157  4.0353  0.0435  0.3956
 5668TIP3    H238496   2.930   6.254   5.023  0.7550 -1.4866 -1.5107
 5669TIP3   OH238497   4.120   2.023  11.559 -0.5517 -0.1650  0.1459
 5669TIP3    H138498   4.174   1.944  11.570 -1.0743 -0.2690  2.2643
 5669TIP3    H238499   4.054   1.998  11.495 -1.0605 -1.6667  1.2208
 5670TIP3   OH238500   2.202   1.294  11.947  0.0086 -0.1674 -0.3907
 5670TIP3    H138501   2.226   1.202  11.945  3.0963  0.5911 -1.4811
 5670TIP3    H238502   2.191   1.318  11.855  0.8793  0.9327 -0.2211
 5671TIP3   OH238503   3.209   4.947   2.958 -0.3861 -0.0623 -0.3904
 5671TIP3    H138504   3.220   4.852   2.963 -2.6603 -0.4520 -1.8297
 5671TIP3    H238505   3.239   4.970   2.871  0.6008  0.6192  0.1266
 5672TIP3   OH238506   1.101   3.133   4.507  0.4111 -0.2750 -0.3374
 5672TIP3    H138507   1.131   3.119   4.597  0.6782 -1.7689 -0.6415
 5672TIP3    H238508   1.136   3.218   4.483 -0.0865  0.3773  1.1459
 5673TIP3   OH238509   6.342   0.328  15.088 -0.4297  0.2914  0.1190
 5673TIP3    H138510   6.432   0.296  15.081 -0.5010  0.3963 -1.3232
 5673TIP3    H238511   6.303   0.274  15.157 -0.4536 -2.6473 -2.0626
 5674TIP3   OH238512   3.994   4.462   2.891  0.0957  0.1498  1.1792
 5674TIP3    H138513   4.057   4.497   2.954  0.2173  1.2888  0.4308
 5674TIP3    H238514   3.915   4.513   2.906 -0.7792 -1.4898  2.3364
 5675TIP3   OH238515   5.374   2.482   5.497 -0.1824  0.0693 -0.7177
 5675TIP3    H138516   5.330   2.446   5.574  0.4142  1.6753  0.4136
 5675TIP3    H238517   5.468   2.470   5.515 -0.0195  0.9906 -0.8940
 5676TIP3   OH238518   2.955   5.406   3.376  0.4450 -0.4016 -0.1008
 5676TIP3    H138519   2.927   5.483   3.425 -0.7871 -0.0935 -1.2590
 5676TIP3    H238520   2.886   5.393   3.311  2.0010 -0.8780 -1.6786
 5677TIP3   OH238521   4.136   1.037  12.128 -0.1449 -0.9308 -0.2603
 5677TIP3    H138522   4.068   1.027  12.061 -0.1828  0.7006 -0.4772
 5677TIP3    H238523   4.088   1.058  12.208  0.1001  0.3308 -0.4370
 5678TIP3   OH238524   2.663   1.910  13.368  0.7648  0.4584  0.0489
 5678TIP3    H138525   2.675   1.993  13.322 -3.4693  0.9928 -0.2721
 5678TIP3    H238526   2.632   1.849  13.300 -1.2637  0.0723  1.2772
 5679TIP3   OH238527   6.643   6.546   4.357  0.5113  0.0744 -0.0032
 5679TIP3    H138528   6.715   6.586   4.308  2.8736 -3.6344  0.2623
 5679TIP3    H238529   6.570   6.543   4.294  1.7477  0.4659 -1.4800
 5680TIP3   OH238530   5.424   3.684  11.949 -0.3270  0.2056 -0.2036
 5680TIP3    H138531   5.434   3.704  12.042 -0.3143  1.4217 -0.4569
 5680TIP3    H238532   5.334   3.653  11.940  0.1722 -1.4490  0.4774
 5681TIP3   OH238533   0.526   0.687  12.089 -0.2121  0.3616  0.4413
 5681TIP3    H138534   0.598   0.649  12.139  0.1398  1.4109  0.7408
 5681TIP3    H238535   0.568   0.747  12.028 -0.6561 -0.7324 -0.9735
 5682TIP3   OH238536   1.203   3.299  12.796 -0.8407 -0.2487 -0.3788
 5682TIP3    H138537   1.266   3.284  12.725  0.4438  1.8469  0.2569
 5682TIP3    H238538   1.258   3.324  12.870 -2.4013  1.2681  0.2864
 5683TIP3   OH238539   4.168   4.437  13.628  0.2908 -0.4611 -0.5247
 5683TIP3    H138540   4.213   4.515  13.598 -0.2021 -0.4677 -1.2941
 5683TIP3    H238541   4.089   4.433  13.575  1.4384 -2.7672 -2.1548
 5684TIP3   OH238542   3.695   5.594   3.432 -0.6549 -0.0372  0.6333
 5684TIP3    H138543   3.774   5.645   3.453  1.3429 -2.1075 -1.5218
 5684TIP3    H238544   3.655   5.640   3.359 -1.4261  0.9661  1.6701
 5685TIP3   OH238545   1.102   1.914  16.104  0.1335  0.0313  0.1585
 5685TIP3    H138546   1.069   1.975  16.037  0.8572  0.8421  0.5235
 5685TIP3    H238547   1.131   1.971  16.176 -1.5401 -0.8744  1.5807
 5686TIP3   OH238548   1.416   0.895   4.147 -0.4182 -0.0037 -0.4286
 5686TIP3    H138549   1.382   0.829   4.208 -0.8368  1.0032  0.4472
 5686TIP3    H238550   1.438   0.970   4.203 -0.4831  0.8083 -1.4825
 5687TIP3   OH238551   3.947   5.557   5.180  0.3507 -0.3572  0.5211
 5687TIP3    H138552   3.995   5.635   5.155 -1.4078  0.5747 -0.0406
 5687TIP3    H238553   3.892   5.585   5.253  1.2215 -1.6042  1.6775
 5688TIP3   OH238554   5.172   1.625   0.726  0.0918 -0.2570  0.1182
 5688TIP3    H138555   5.136   1.561   0.787 -0.1718 -0.7933 -0.5874
 5688TIP3    H238556   5.229   1.681   0.779 -2.2961  1.0449  1.3896
 5689TIP3   OH238557   1.927   6.026  13.499 -0.0608 -0.1048  0.4082
 5689TIP3    H138558   1.932   5.931  13.508 -1.1408 -0.1766  0.2932
 5689TIP3    H238559   1.995   6.059  13.558  0.5716 -0.9513  0.1710
 5690TIP3   OH238560   6.427   0.838  16.751 -0.0983  0.0468  0.1104
 5690TIP3    H138561   6.371   0.819  16.827  1.3284 -2.4178  0.6281
 5690TIP3    H238562   6.443   0.752  16.712  0.8803  1.0623 -1.7996
 5691TIP3   OH238563   2.813   1.542   0.400  0.1087  0.0999  0.5060
 5691TIP3    H138564   2.748   1.504   0.459 -0.6822  1.1065  0.3116
 5691TIP3    H238565   2.790   1.507   0.314  0.1461  0.0433  0.5192
 5692TIP3   OH238566   6.677   2.156  14.890  0.0689  0.5196  0.3209
 5692TIP3    H138567   6.711   2.224  14.949  0.5686  0.1544  0.4628
 5692TIP3    H238568   6.714   2.075  14.924  2.0893  0.5296 -1.7225
 5693TIP3   OH238569   5.898   5.238   0.258  0.7509  0.3230 -0.1999
 5693TIP3    H138570   5.912   5.325   0.295 -0.9077  0.9538 -0.9810
 5693TIP3    H238571   5.876   5.254   0.166 -1.7091 -0.7429  0.1530
 5694TIP3   OH238572   0.949   5.918  15.607  0.1757  0.2295 -0.1195
 5694TIP3    H138573   0.934   5.842  15.552  0.0545  0.5520 -0.5334
 5694TIP3    H238574   0.884   5.911  15.677 -0.1319  0.1939 -0.4082
 5695TIP3   OH238575   2.321   1.794   2.846 -0.0856  0.3644 -0.2133
 5695TIP3    H138576   2.319   1.730   2.775 -1.0658  0.7424 -0.5419
 5695TIP3    H238577   2.366   1.870   2.808  1.8806 -0.4267  0.4560
 5696TIP3   OH238578   4.984   2.225   4.392  0.1783 -0.4255 -1.1554
 5696TIP3    H138579   4.993   2.130   4.398  2.0797 -0.2472 -0.7085
 5696TIP3    H238580   4.984   2.255   4.483  1.3748  0.1374 -1.3356
 5697TIP3   OH238581   4.892   4.826  12.320  0.6490  0.1700  0.6244
 5697TIP3    H138582   4.880   4.812  12.414 -0.5603  0.4342  0.5202
 5697TIP3    H238583   4.811   4.867  12.291  1.7000  1.7472 -0.2049
 5698TIP3   OH238584   4.385   3.744   3.372 -0.0353  0.0378 -0.1431
 5698TIP3    H138585   4.377   3.686   3.297  1.2363 -0.6188  0.2308
 5698TIP3    H238586   4.389   3.832   3.334  1.0988 -0.3269 -0.8740
 5699TIP3   OH238587   0.672   0.696  14.981  0.3228  0.3169  0.0117
 5699TIP3    H138588   0.709   0.705  15.068  0.2593  1.1840 -0.0445
 5699TIP3    H238589   0.741   0.725  14.922  0.4731 -0.5531 -0.2526
 5700TIP3   OH238590   0.044   3.332  12.581 -0.4847  0.3207 -0.4889
 5700TIP3    H138591  -0.038   3.349  12.626 -0.6395  0.5763 -0.8624
 5700TIP3    H238592   0.058   3.238  12.590 -2.0208 -0.1128 -2.4531
 5701TIP3   OH238593   1.256   6.156   4.200  0.0736  0.1845  0.5281
 5701TIP3    H138594   1.205   6.095   4.253 -0.3016  0.6715  0.7387
 5701TIP3    H238595   1.223   6.242   4.225 -0.0886  0.4254 -0.4735
 5702TIP3   OH238596   2.389   5.870   2.807  0.3454 -0.4079  0.5353
 5702TIP3    H138597   2.338   5.910   2.736 -0.1710  2.8190  2.6128
 5702TIP3    H238598   2.472   5.844   2.765  0.4916  2.4224 -1.0537
 5703TIP3   OH238599   3.715   0.244  14.155 -0.1467  0.3592  0.7061
 5703TIP3    H138600   3.751   0.169  14.109 -1.5545 -0.5423  1.0486
 5703TIP3    H238601   3.774   0.257  14.230  0.6400  0.2098  0.1242
 5704TIP3   OH238602   2.897   0.182  16.503  0.1309  0.2015  0.5818
 5704TIP3    H138603   2.872   0.245  16.436 -0.0683 -0.4926  0.0045
 5704TIP3    H238604   2.992   0.188  16.508  0.1037  0.6233  0.6050
 5705TIP3   OH238605   0.240   2.626  14.256 -0.3337  0.4412  0.0630
 5705TIP3    H138606   0.284   2.544  14.276 -0.9075 -0.3709 -1.8813
 5705TIP3    H238607   0.147   2.603  14.255 -0.4886  1.0702 -0.6495
 5706TIP3   OH238608   0.903   1.511   0.060  0.3329  0.4154  0.2875
 5706TIP3    H138609   0.994   1.483   0.057 -0.3708 -2.0484  0.8325
 5706TIP3    H238610   0.878   1.502   0.152 -0.7384  0.1265 -0.0240
 5707TIP3   OH238611   4.706   1.238   4.558  0.7802 -0.9928 -0.4486
 5707TIP3    H138612   4.711   1.193   4.643  0.1291  1.4715  0.9440
 5707TIP3    H238613   4.797   1.258   4.536  0.8482 -0.2587  0.4584
 5708TIP3   OH238614   1.611   0.727  15.144  0.1591 -0.2709  0.0588
 5708TIP3    H138615   1.576   0.640  15.164 -0.0739  0.1920  1.7897
 5708TIP3    H238616   1.699   0.727  15.184  0.1507  0.2876  0.0820
 5709TIP3   OH238617   3.014   2.798  15.044  0.6748 -0.2521 -0.3107
 5709TIP3    H138618   2.950   2.729  15.032 -0.1731  0.4299  0.2302
 5709TIP3    H238619   3.037   2.826  14.956 -0.4495  0.1190 -0.4920
 5710TIP3   OH238620   0.595   5.033   3.301 -0.0214 -0.2742  0.6000
 5710TIP3    H138621   0.685   5.004   3.285  0.1394  0.7735 -0.4747
 5710TIP3    H238622   0.542   4.977   3.244  0.3241  1.7340 -1.7773
 5711TIP3   OH238623   4.223   2.876   6.477 -0.3604 -0.1662 -0.5879
 5711TIP3    H138624   4.197   2.954   6.525  0.4111 -1.1422  1.4500
 5711TIP3    H238625   4.170   2.806   6.515  0.5603 -1.0214 -0.8595
 5712TIP3   OH238626   1.043   2.183   0.672  0.0946 -0.5499  0.0591
 5712TIP3    H138627   1.007   2.192   0.760  2.3693 -0.0159  0.9648
 5712TIP3    H238628   1.095   2.103   0.676  1.4826  0.3217 -0.3308
 5713TIP3   OH238629   6.358   2.708   5.540 -0.5674  0.0747 -0.2444
 5713TIP3    H138630   6.296   2.706   5.468 -0.6350 -0.3940 -0.1759
 5713TIP3    H238631   6.428   2.766   5.511  0.7051 -2.1497 -1.7494
 5714TIP3   OH238632   3.904   4.582  14.941 -0.1035 -0.3261  0.2975
 5714TIP3    H138633   3.975   4.636  14.905 -0.6928  1.0672  1.1664
 5714TIP3    H238634   3.921   4.494  14.907  2.6955 -0.2587  1.4289
 5715TIP3   OH238635   2.318   2.601  12.648 -0.0911 -0.5048  0.4959
 5715TIP3    H138636   2.310   2.667  12.716  0.9067 -1.2381  1.3492
 5715TIP3    H238637   2.250   2.622  12.584 -0.3727  0.7808  1.2246
 5716TIP3   OH238638   6.191   4.796  15.277  0.0222 -0.1628 -0.4991
 5716TIP3    H138639   6.280   4.827  15.291  0.5490 -0.7888 -2.2907
 5716TIP3    H238640   6.152   4.861  15.218 -0.1440 -0.7925 -1.0928
 5717TIP3   OH238641   6.255   4.052  11.573  0.0651 -0.2014  0.4822
 5717TIP3    H138642   6.217   4.137  11.552  1.4204  0.7551  1.8828
 5717TIP3    H238643   6.227   4.035  11.663  0.3447 -0.9517  0.4283
 5718TIP3   OH238644   4.717   5.194  12.361 -0.3259  0.2109  0.4034
 5718TIP3    H138645   4.747   5.159  12.445 -0.2976  1.2888  0.8520
 5718TIP3    H238646   4.707   5.288  12.377 -1.7607  0.2021 -0.3718
 5719TIP3   OH238647   0.769   4.928  12.244  0.1799  0.1408  0.8895
 5719TIP3    H138648   0.849   4.946  12.196 -0.2393  0.9898  0.5028
 5719TIP3    H238649   0.763   4.999  12.308 -0.3953  0.2286  0.7448
 5720TIP3   OH238650   3.940   2.140  12.407  0.1571 -0.2448  0.0480
 5720TIP3    H138651   3.868   2.191  12.444  1.0388 -0.3174  1.9148
 5720TIP3    H238652   3.914   2.049  12.419 -1.2806 -0.3252 -3.0209
 5721TIP3   OH238653   2.138   4.793   4.945 -0.5078 -0.1279  0.5797
 5721TIP3    H138654   2.218   4.776   4.894 -0.7837  0.8666 -0.2157
 5721TIP3    H238655   2.084   4.846   4.886 -1.5555 -0.4121  1.2934
 5722TIP3   OH238656   2.585   1.704   0.627 -0.2701  0.0491  0.4982
 5722TIP3    H138657   2.576   1.609   0.632  1.3910 -0.0753  1.3944
 5722TIP3    H238658   2.600   1.721   0.534 -0.9586 -0.5039  0.2724
 5723TIP3   OH238659   5.814   2.560  12.919  0.0170 -0.4432 -0.0398
 5723TIP3    H138660   5.719   2.569  12.919  0.0532  0.3398  2.0252
 5723TIP3    H238661   5.845   2.633  12.973  1.7449 -1.0059 -0.2311
 5724TIP3   OH238662   1.146   1.562  14.377  0.3890 -0.1290  0.2122
 5724TIP3    H138663   1.076   1.624  14.356  1.5504  1.4248  0.8118
 5724TIP3    H238664   1.225   1.604  14.344  1.2741 -1.0403  1.1402
 5725TIP3   OH238665   2.721   1.514  12.666 -0.0268  0.2520  0.2600
 5725TIP3    H138666   2.759   1.449  12.725  0.9060  0.2711 -0.3267
 5725TIP3    H238667   2.688   1.582  12.725  0.0157 -0.1981  0.8145
 5726TIP3   OH238668   2.257   0.947  16.936 -0.2095 -0.3192  0.3767
 5726TIP3    H138669   2.344   0.948  16.976 -0.1366  0.4147  0.2150
 5726TIP3    H238670   2.248   1.034  16.896 -1.1916 -0.2341  0.7696
 5727TIP3   OH238671   3.200   4.455   0.613 -0.4178  0.3065 -0.0052
 5727TIP3    H138672   3.206   4.408   0.696 -1.3875 -2.1816 -1.2910
 5727TIP3    H238673   3.111   4.441   0.583 -0.6202  2.6706 -0.6613
 5728TIP3   OH238674   1.478   1.955   0.187 -0.2143 -0.3915 -0.2758
 5728TIP3    H138675   1.486   2.013   0.112 -0.9405  0.0923  0.0220
 5728TIP3    H238676   1.384   1.938   0.194 -0.3741  1.1684  1.7276
 5729TIP3   OH238677   0.939   4.984   6.485 -0.0617  0.3316 -0.1090
 5729TIP3    H138678   0.871   4.972   6.552 -0.6199  0.6197 -0.6225
 5729TIP3    H238679   0.991   5.058   6.517  0.3852 -0.2649  0.5853
 5730TIP3   OH238680   4.442   5.471   5.391  0.4464 -0.5457  0.6900
 5730TIP3    H138681   4.368   5.454   5.449  0.1698 -0.3394  0.3937
 5730TIP3    H238682   4.403   5.497   5.308  0.7837 -2.8807 -0.2398
 5731TIP3   OH238683   2.939   3.559   1.385  0.4743  0.6425  0.1728
 5731TIP3    H138684   3.028   3.551   1.420  0.9803  1.3567 -0.9401
 5731TIP3    H238685   2.884   3.571   1.463  1.0230 -2.3409  1.0773
 5732TIP3   OH238686   4.531   2.589  14.042 -0.0322  0.1424 -0.6153
 5732TIP3    H138687   4.540   2.494  14.052  0.6600  0.1492 -1.1310
 5732TIP3    H238688   4.450   2.610  14.089  0.4530 -0.5251  0.5522
 5733TIP3   OH238689   0.958   5.187  14.157  0.7443 -0.5133  0.0420
 5733TIP3    H138690   0.873   5.197  14.202 -0.9644 -0.9377 -2.9870
 5733TIP3    H238691   0.972   5.093  14.153  1.6063 -0.4256  0.9626
 5734TIP3   OH238692   0.134   2.401  14.583 -0.0535  0.4657  0.3952
 5734TIP3    H138693   0.136   2.326  14.523 -0.7361  0.2893  0.5937
 5734TIP3    H238694   0.041   2.422  14.593 -0.0297 -0.2316  2.2810
 5735TIP3   OH238695   3.560   1.996  16.194  0.0192 -0.6095  0.3553
 5735TIP3    H138696   3.643   2.002  16.242 -0.7980  0.2209  1.6898
 5735TIP3    H238697   3.521   2.083  16.202 -0.3972 -0.6175 -1.3718
 5736TIP3   OH238698   6.565   1.904  11.437 -0.0008  0.3507  0.7761
 5736TIP3    H138699   6.511   1.886  11.361  1.1704  1.5242 -0.3557
 5736TIP3    H238700   6.591   1.818  11.469  1.0674 -0.1270 -1.3056
 5737TIP3   OH238701   5.160   5.639   1.931  0.4476 -0.0192  0.2670
 5737TIP3    H138702   5.118   5.722   1.952  1.0613  0.1713  0.7690
 5737TIP3    H238703   5.136   5.622   1.840 -1.6427 -0.4823  0.8791
 5738TIP3   OH238704   4.069   3.140  10.471 -0.6460 -0.5479  0.6235
 5738TIP3    H138705   4.086   3.076  10.402 -0.2419 -1.1621  1.2834
 5738TIP3    H238706   4.131   3.118  10.540 -0.3749  0.6846  0.7844
 5739TIP3   OH238707   6.433   1.577  16.370  0.0239 -0.3521 -0.0957
 5739TIP3    H138708   6.394   1.610  16.450  2.4751  0.1892  0.9056
 5739TIP3    H238709   6.471   1.492  16.394  0.5021 -0.3376 -0.7684
 5740TIP3   OH238710   6.049   0.809  10.959  0.0621 -0.1462  0.0371
 5740TIP3    H138711   6.089   0.836  11.042  0.3962  0.4972 -0.3338
 5740TIP3    H238712   5.976   0.870  10.946  1.4724  1.2889 -1.3370
 5741TIP3   OH238713   6.126   6.331  12.665 -0.2683  0.8936  0.5534
 5741TIP3    H138714   6.168   6.347  12.580  1.3103  1.7273  1.4688
 5741TIP3    H238715   6.049   6.279  12.643  1.9526 -1.8966 -1.0507
 5742TIP3   OH238716   6.544   4.729  14.295 -0.0793 -0.0733  0.2019
 5742TIP3    H138717   6.606   4.734  14.368 -1.3615  0.9681  1.2569
 5742TIP3    H238718   6.585   4.670  14.232  1.3145 -0.5307  1.5130
 5743TIP3   OH238719   6.530   4.704  10.990 -0.1714  1.0989 -0.2204
 5743TIP3    H138720   6.564   4.671  10.906  0.8851 -0.2052  0.6983
 5743TIP3    H238721   6.452   4.652  11.006  0.2164  0.6182  0.1145
 5744TIP3   OH238722   0.206   5.778  14.190 -0.2980 -0.2684  0.2804
 5744TIP3    H138723   0.171   5.860  14.226  2.8796  1.3700 -0.2728
 5744TIP3    H238724   0.209   5.792  14.096  1.3620 -0.5554  0.2748
 5745TIP3   OH238725   6.526   2.147  15.907 -0.1246 -0.2570  0.1396
 5745TIP3    H138726   6.452   2.185  15.955  2.3334 -0.2546  4.2165
 5745TIP3    H238727   6.583   2.222  15.889 -0.0514 -0.5743 -0.9473
 5746TIP3   OH238728   1.011   4.540   0.125 -0.0512 -0.3500 -0.0302
 5746TIP3    H138729   1.028   4.547   0.219 -0.6320 -0.7917  0.1062
 5746TIP3    H238730   0.980   4.627   0.100 -2.1921 -0.8813  0.6559
 5747TIP3   OH238731   1.293   1.803  15.948  0.1253  0.4236 -0.6289
 5747TIP3    H138732   1.234   1.753  15.892  0.9706 -0.9733 -0.3219
 5747TIP3    H238733   1.236   1.848  16.010 -0.7178  0.7650 -1.6538
 5748TIP3   OH238734   5.538   0.687  16.240 -0.2804  0.8078 -1.0117
 5748TIP3    H138735   5.460   0.643  16.207 -0.2744 -0.0085  0.0605
 5748TIP3    H238736   5.506   0.747  16.308  0.2657 -1.3534  1.2246
 5749TIP3   OH238737   5.036   6.358  14.428 -0.2943  0.0293 -0.1280
 5749TIP3    H138738   5.008   6.449  14.416  0.0801  0.1619 -0.0049
 5749TIP3    H238739   5.122   6.365  14.468 -1.2870 -0.4044  2.1289
 5750TIP3   OH238740   2.402   0.679   2.657 -0.4162  0.3142 -0.4286
 5750TIP3    H138741   2.331   0.665   2.595  0.6380 -2.9286 -1.0413
 5750TIP3    H238742   2.360   0.716   2.734 -2.5566 -0.2935 -1.2637
 5751TIP3   OH238743   3.836   0.073  15.989  0.5531  0.6026  0.0484
 5751TIP3    H138744   3.775   0.067  15.916  2.3619 -0.2036 -1.4476
 5751TIP3    H238745   3.832   0.164  16.017 -1.7008  0.4341  0.3121
 5752TIP3   OH238746   1.481   4.827  15.045 -0.3144 -0.5716 -0.0567
 5752TIP3    H138747   1.419   4.808  15.115 -0.8523  1.2864  0.0010
 5752TIP3    H238748   1.475   4.751  14.987  1.5179 -3.0109  2.7939
 5753TIP3   OH238749   0.729   6.295   3.255 -0.1603 -0.0670 -0.1539
 5753TIP3    H138750   0.753   6.220   3.310  1.5866  1.6800  1.5362
 5753TIP3    H238751   0.678   6.352   3.312  1.7131  1.7910 -0.2760
 5754TIP3   OH238752   1.470   6.760  14.210 -0.2897  0.2754 -0.3926
 5754TIP3    H138753   1.434   6.841  14.246 -1.6261 -0.5577  0.1858
 5754TIP3    H238754   1.411   6.691  14.242  0.8018 -0.9204 -0.9060
 5755TIP3   OH238755   5.069   4.019   1.398  0.5939 -0.1373  0.0328
 5755TIP3    H138756   5.013   4.077   1.346 -0.2376  0.4878  1.6003
 5755TIP3    H238757   5.113   4.077   1.459  1.1444 -0.9327  0.3920
 5756TIP3   OH238758   6.271   4.005  15.359 -0.2228  0.3327 -0.3455
 5756TIP3    H138759   6.329   4.079  15.340  0.5920 -0.2842 -0.2959
 5756TIP3    H238760   6.331   3.933  15.379 -0.9742 -0.7040 -1.7634
 5757TIP3   OH238761   4.938   5.569  16.853  0.6949  0.6804 -0.0006
 5757TIP3    H138762   4.885   5.613  16.787  0.5733 -0.6844 -0.8252
 5757TIP3    H238763   4.889   5.579  16.935 -1.3114 -1.3252 -0.9115
 5758TIP3   OH238764   2.207   1.956   3.803 -0.0339 -0.0044 -0.5497
 5758TIP3    H138765   2.181   1.902   3.877  0.4282  1.6175  0.8359
 5758TIP3    H238766   2.129   1.963   3.749 -0.5131 -0.8046  0.0351
 5759TIP3   OH238767   3.998   1.628   0.251 -0.2118 -0.0349 -0.0301
 5759TIP3    H138768   3.985   1.565   0.322  0.7436 -0.2404 -0.0422
 5759TIP3    H238769   3.944   1.595   0.179 -0.0503 -0.6071  0.1097
 5760TIP3   OH238770   3.372   6.394   2.167 -0.4340  0.0796  0.2364
 5760TIP3    H138771   3.378   6.424   2.076 -2.0034 -0.3650 -0.0196
 5760TIP3    H238772   3.316   6.458   2.210 -1.5878 -0.9588  0.3272
 5761TIP3   OH238773   5.971   2.943  12.612 -0.3832 -0.1520  0.7309
 5761TIP3    H138774   5.907   2.873  12.603  1.0386 -1.1718 -2.4295
 5761TIP3    H238775   6.054   2.898  12.630 -0.1441  0.9903  2.5778
 5762TIP3   OH238776   4.132   5.351  11.681  0.8822 -0.1110 -0.1944
 5762TIP3    H138777   4.066   5.387  11.622 -0.8626 -0.1234  1.6773
 5762TIP3    H238778   4.192   5.424  11.698  1.2222 -0.0273 -1.7144
 5763TIP3   OH238779   3.567   4.272   4.027  0.2332 -0.2778 -0.1256
 5763TIP3    H138780   3.627   4.336   4.066  0.0567  0.8810 -1.7345
 5763TIP3    H238781   3.580   4.281   3.933 -0.6525 -1.7939 -0.4104
 5764TIP3   OH238782   3.661   1.244   2.952 -0.0838 -0.1369  0.1245
 5764TIP3    H138783   3.710   1.326   2.959 -0.3674  0.0259  0.2264
 5764TIP3    H238784   3.726   1.179   2.927  0.3195 -0.0689  0.9911
 5765TIP3   OH238785   5.025   5.324  16.758 -0.4021  0.8662  0.1866
 5765TIP3    H138786   4.982   5.402  16.794 -0.9401  0.1890  1.0035
 5765TIP3    H238787   4.983   5.250  16.802 -0.0572  0.0945 -0.7608
 5766TIP3   OH238788   6.415   3.956  10.733  0.1378  0.0597  0.2548
 5766TIP3    H138789   6.491   3.998  10.773  0.8038 -1.9377  1.2077
 5766TIP3    H238790   6.378   4.021  10.674  1.7877  1.5269  0.8205
 5767TIP3   OH238791   1.040   1.720   3.999  0.9266  0.0563  0.4139
 5767TIP3    H138792   0.968   1.758   3.949 -0.1082 -1.1815  0.9453
 5767TIP3    H238793   1.082   1.796   4.041 -0.5053  0.7109  0.6808
 5768TIP3   OH238794   0.794   0.310   3.549 -0.0927  0.5974 -0.0956
 5768TIP3    H138795   0.698   0.311   3.554 -0.0473  0.2709  1.0313
 5768TIP3    H238796   0.823   0.351   3.631  0.7262  0.2530 -0.2060
 5769TIP3   OH238797   0.095   1.178   3.871  0.2957 -0.5572 -0.0783
 5769TIP3    H138798   0.167   1.155   3.812  2.0863  1.2345  1.3099
 5769TIP3    H238799   0.085   1.100   3.926  4.3142  0.6804  2.6671
 5770TIP3   OH238800   3.472   6.269  13.339 -0.2101 -0.0820 -0.4505
 5770TIP3    H138801   3.403   6.333  13.321 -0.5362 -0.0759  0.7719
 5770TIP3    H238802   3.534   6.280  13.267 -0.5470  1.2169 -0.5606
 5771TIP3   OH238803   4.490   6.085  15.611 -0.2540 -0.6468  0.3898
 5771TIP3    H138804   4.529   6.172  15.621  0.1644 -0.7126 -0.6098
 5771TIP3    H238805   4.475   6.055  15.701  0.7190 -0.0556  0.7584
 5772TIP3   OH238806   1.077   5.000   5.725 -0.1746 -0.3240 -0.2425
 5772TIP3    H138807   0.981   4.996   5.723 -0.1695 -0.5805 -0.1336
 5772TIP3    H238808   1.102   5.035   5.640 -0.3389 -0.9050 -0.5374
 5773TIP3   OH238809   5.760   0.441   4.652 -0.4222 -0.0720  0.1377
 5773TIP3    H138810   5.708   0.368   4.685 -0.8330  0.7489  1.3263
 5773TIP3    H238811   5.846   0.403   4.632 -0.8890 -1.0370 -0.0407
 5774TIP3   OH238812   1.352   4.033  12.417 -0.2955 -0.0415  0.8452
 5774TIP3    H138813   1.347   3.959  12.478 -1.0721 -1.3299 -0.7266
 5774TIP3    H238814   1.445   4.055  12.414 -0.2251 -0.1132  2.3169
 5775TIP3   OH238815   2.894   4.929   1.290  0.5726  0.3223 -0.8775
 5775TIP3    H138816   2.824   4.870   1.262  0.7373 -0.4658  0.3650
 5775TIP3    H238817   2.933   4.959   1.207 -0.7228  0.1754 -1.5592
 5776TIP3   OH238818   2.933   1.461  13.199 -0.6405  0.4117  0.2675
 5776TIP3    H138819   2.849   1.449  13.243 -0.2892  1.1676  1.1594
 5776TIP3    H238820   2.971   1.539  13.241 -0.1109  0.8838 -1.0777
 5777TIP3   OH238821   0.226   1.794  12.930  0.0487 -0.3579  0.3336
 5777TIP3    H138822   0.224   1.795  12.834  1.6215  0.6429  0.2831
 5777TIP3    H238823   0.135   1.782  12.957 -0.4746 -0.0481 -1.2787
 5778TIP3   OH238824   5.256   4.693   1.820  0.6218  0.2330 -0.2388
 5778TIP3    H138825   5.169   4.653   1.818  0.6136  0.1458  1.4062
 5778TIP3    H238826   5.316   4.619   1.806  0.4655  0.1716 -0.5913
 5779TIP3   OH238827   2.111   2.525   0.448 -0.5812  0.2842 -0.2541
 5779TIP3    H138828   2.141   2.447   0.495 -0.8384  0.8507  0.8755
 5779TIP3    H238829   2.172   2.594   0.476 -0.3165  0.4798 -1.2903
 5780TIP3   OH238830   3.724   5.673   4.336  0.1723  0.4605 -0.0691
 5780TIP3    H138831   3.693   5.678   4.426 -0.4247  0.2008 -0.2563
 5780TIP3    H238832   3.723   5.764   4.305  0.8871  0.6145  0.3490
 5781TIP3   OH238833   1.312   0.277  13.051  0.4749 -0.5011  0.0872
 5781TIP3    H138834   1.278   0.223  12.980  2.6311 -1.4922 -0.2404
 5781TIP3    H238835   1.394   0.313  13.018 -0.5036  2.3606  0.6174
 5782TIP3   OH238836   2.261   1.131  13.101  0.1061 -0.0132  0.6233
 5782TIP3    H138837   2.166   1.125  13.113 -0.2112 -0.9524 -2.0795
 5782TIP3    H238838   2.279   1.224  13.088 -0.1364  0.4337  3.2236
 5783TIP3   OH238839   1.183   3.386  14.474  0.2139  0.2758 -0.1139
 5783TIP3    H138840   1.277   3.375  14.462  0.0149 -0.9512 -0.6345
 5783TIP3    H238841   1.147   3.382  14.385 -0.2417  1.7741 -0.0242
 5784TIP3   OH238842   5.710   1.205   2.436 -0.4779  0.1765  0.5119
 5784TIP3    H138843   5.718   1.146   2.361 -0.8949  1.6614 -0.7228
 5784TIP3    H238844   5.725   1.149   2.512  0.8468 -1.1786 -0.7164
 5785TIP3   OH238845   4.993   5.996  11.756 -0.1145 -0.3628  0.7749
 5785TIP3    H138846   4.975   5.905  11.782 -2.0998 -0.9196 -2.2529
 5785TIP3    H238847   5.088   5.999  11.744 -0.0031 -1.9820  1.1638
 5786TIP3   OH238848   5.592   4.434  10.864  0.9034  0.0435  0.4484
 5786TIP3    H138849   5.644   4.359  10.893  0.7426  0.1717  1.0762
 5786TIP3    H238850   5.569   4.479  10.945  1.5559  1.1332  0.0417
 5787TIP3   OH238851   3.311   5.647   0.546  1.0778 -0.3810  0.3623
 5787TIP3    H138852   3.293   5.618   0.456  0.8512 -1.7954  0.8471
 5787TIP3    H238853   3.349   5.570   0.588  1.0126  0.2261  1.5358
 5788TIP3   OH238854   4.740   2.088   2.247  0.1475 -1.0561  0.0003
 5788TIP3    H138855   4.830   2.068   2.270 -0.0285 -1.4086  0.3882
 5788TIP3    H238856   4.744   2.118   2.156  0.8026  0.0304  0.3749
 5789TIP3   OH238857   1.844   2.590   1.992  0.0977  0.3784 -0.1419
 5789TIP3    H138858   1.827   2.504   1.954 -0.1505  1.3655 -2.3430
 5789TIP3    H238859   1.890   2.571   2.074 -1.0825 -1.8765  0.0362
 5790TIP3   OH238860   3.558   5.023   3.960 -0.2883  0.1869  0.0501
 5790TIP3    H138861   3.589   4.947   3.911  1.4869  1.3955 -0.7727
 5790TIP3    H238862   3.635   5.081   3.965 -1.9931  2.6104 -0.6978
 5791TIP3   OH238863   3.410   2.564  15.239  0.1357 -0.8179  0.1930
 5791TIP3    H138864   3.412   2.586  15.332  0.4767 -1.4390  0.3400
 5791TIP3    H238865   3.439   2.472  15.236 -1.2302 -1.2439 -0.4010
 5792TIP3   OH238866   3.492   4.453  12.028 -0.1670 -0.1877  0.4785
 5792TIP3    H138867   3.448   4.527  11.986 -0.4074  0.2124  1.4333
 5792TIP3    H238868   3.444   4.376  11.997 -1.7663  0.2610  1.7589
 5793TIP3   OH238869   3.131   2.985  13.009 -0.3368 -0.2484  0.2454
 5793TIP3    H138870   3.176   2.901  13.013 -0.7360 -0.4453  0.6013
 5793TIP3    H238871   3.052   2.967  12.959 -0.8538 -0.2777  1.0742
 5794TIP3   OH238872   0.336   1.799   5.083  0.1522 -0.6335  0.1222
 5794TIP3    H138873   0.379   1.713   5.080 -1.4936 -1.4835  0.6380
 5794TIP3    H238874   0.281   1.801   5.005  0.6606  0.2313 -0.2303
 5795TIP3   OH238875   5.022   0.428   4.901  0.3454  0.1167  0.0820
 5795TIP3    H138876   4.934   0.442   4.867  0.4063  0.6222  0.1318
 5795TIP3    H238877   5.012   0.364   4.971  0.3131 -1.5201 -1.3869
 5796TIP3   OH238878   2.730   5.273  13.148 -0.6226  0.1911  0.5871
 5796TIP3    H138879   2.795   5.309  13.209  0.2324  0.4534 -0.4591
 5796TIP3    H238880   2.649   5.272  13.198  0.2745 -0.5816  2.0854
 5797TIP3   OH238881   0.445   2.059  11.405 -0.2252  0.3004 -0.3435
 5797TIP3    H138882   0.497   2.129  11.366 -0.4462 -0.0967 -1.3698
 5797TIP3    H238883   0.402   2.016  11.330 -0.0832 -0.9345  0.2609
 5798TIP3   OH238884   4.882   0.562   3.943 -0.4461  0.0983 -0.1103
 5798TIP3    H138885   4.953   0.528   3.997 -0.9313  0.2125  0.6026
 5798TIP3    H238886   4.820   0.600   4.005 -1.8705 -1.3383 -0.5833
 5799TIP3   OH238887   1.242   6.089   1.357  0.0474  0.7568  0.5219
 5799TIP3    H138888   1.203   6.174   1.382  0.8268  1.6261 -1.1726
 5799TIP3    H238889   1.265   6.099   1.265  0.3488 -1.2485  0.3625
 5800TIP3   OH238890   2.180   1.432  16.509  0.2575 -0.7683  0.0326
 5800TIP3    H138891   2.135   1.411  16.591  2.9699 -2.9222  1.0147
 5800TIP3    H238892   2.123   1.395  16.441 -1.1813 -0.4052  1.0077
 5801TIP3   OH238893   5.293   0.573   3.454  0.2588  0.3405  0.3402
 5801TIP3    H138894   5.375   0.600   3.497 -0.5315 -0.2704  2.2657
 5801TIP3    H238895   5.321   0.508   3.388  1.6573  2.4503 -1.2294
 5802TIP3   OH238896   5.362   6.428  11.338 -0.6404  0.0528 -0.7200
 5802TIP3    H138897   5.376   6.498  11.401  1.3542 -0.7950 -0.1577
 5802TIP3    H238898   5.437   6.436  11.278 -0.6577 -1.2798 -0.9257
 5803TIP3   OH238899   5.629   4.502   0.319  0.2670  0.6229 -0.5351
 5803TIP3    H138900   5.642   4.548   0.235 -1.6838  0.9746 -0.6609
 5803TIP3    H238901   5.704   4.444   0.326  1.7886  2.4324 -1.3124
 5804TIP3   OH238902   1.632   1.114   1.214 -0.6806 -0.1679  0.1462
 5804TIP3    H138903   1.714   1.104   1.166 -1.3589  1.2144 -1.3354
 5804TIP3    H238904   1.579   1.172   1.159 -3.0818 -1.9160  0.5128
 5805TIP3   OH238905   6.525   4.084  15.678 -0.4925  0.9617  0.1624
 5805TIP3    H138906   6.546   4.056  15.589 -1.1121 -0.3431  0.4147
 5805TIP3    H238907   6.460   4.154  15.666 -0.6128  0.7591 -0.4003
 5806TIP3   OH238908   5.140   4.462  13.580  0.0590  0.2042  0.4237
 5806TIP3    H138909   5.096   4.538  13.619 -0.0872  0.0298  0.6050
 5806TIP3    H238910   5.213   4.445  13.639  1.8161  1.9867 -1.1944
 5807TIP3   OH238911   6.203   5.280   0.498 -0.1401 -0.0051 -0.3431
 5807TIP3    H138912   6.168   5.332   0.426  1.5136  0.1371 -1.0683
 5807TIP3    H238913   6.143   5.206   0.506 -1.1289  0.7291 -0.9108
 5808TIP3   OH238914   5.046   4.256   5.542 -0.0453  0.2792  0.0108
 5808TIP3    H138915   5.042   4.329   5.605 -1.5568  1.0553 -0.9672
 5808TIP3    H238916   5.101   4.289   5.471 -1.3642  0.7707 -0.7974
 5809TIP3   OH238917   2.725   1.272   2.829 -0.2577 -0.1461 -0.0631
 5809TIP3    H138918   2.703   1.364   2.845 -0.4421 -0.2462  0.2634
 5809TIP3    H238919   2.644   1.232   2.801  0.1567  0.1156 -1.6868
 5810TIP3   OH238920   5.409   4.833   6.323  0.2220 -0.1840  0.5635
 5810TIP3    H138921   5.414   4.744   6.356  0.0368 -0.9810 -1.4434
 5810TIP3    H238922   5.448   4.828   6.235  2.0729  2.1225  1.1877
 5811TIP3   OH238923   0.675   1.652  14.454  0.1956  0.0830 -0.2385
 5811TIP3    H138924   0.677   1.729  14.511 -1.0466  0.1429 -0.2693
 5811TIP3    H238925   0.603   1.599  14.488 -0.9177  0.3735 -2.0783
 5812TIP3   OH238926   2.067   0.545   0.748  0.1035 -0.2356 -0.3334
 5812TIP3    H138927   2.038   0.614   0.689 -1.0188 -0.1263  0.3350
 5812TIP3    H238928   2.027   0.465   0.714 -0.1795 -0.2434  0.0168
 5813TIP3   OH238929   1.438   5.500  13.530 -0.6071 -0.0867 -0.2018
 5813TIP3    H138930   1.447   5.496  13.625  0.2129  1.6122 -0.2051
 5813TIP3    H238931   1.497   5.570  13.502 -1.4866  0.0253 -1.8774
 5814TIP3   OH238932   6.806   5.546  15.317 -0.3127 -0.7526  0.2863
 5814TIP3    H138933   6.804   5.640  15.332  1.3171 -0.2124 -2.6586
 5814TIP3    H238934   6.847   5.510  15.396 -1.3251  0.9368  1.6003
 5815TIP3   OH238935   3.136   4.309  15.072 -0.3861 -0.0642 -0.2249
 5815TIP3    H138936   3.223   4.336  15.044  0.6318 -1.4959  1.4705
 5815TIP3    H238937   3.088   4.391  15.082  0.4855  0.6875 -2.0117
 5816TIP3   OH238938   6.466   4.789  13.006  0.2664 -0.2047 -0.6448
 5816TIP3    H138939   6.424   4.720  13.057  0.9254 -1.0947 -1.2869
 5816TIP3    H238940   6.497   4.852  13.071 -0.9574 -0.1643 -0.0964
 5817TIP3   OH238941   3.782   1.547   0.098 -0.5930  0.1937 -0.8252
 5817TIP3    H138942   3.780   1.490   0.021  1.4112 -2.6044  1.1020
 5817TIP3    H238943   3.748   1.493   0.169  4.3263  0.1852  1.7147
 5818TIP3   OH238944   0.120   3.354  14.242  0.1289 -0.7812  0.4426
 5818TIP3    H138945   0.080   3.293  14.180  1.2501  0.1610 -1.2528
 5818TIP3    H238946   0.050   3.414  14.266  0.0473 -0.2058 -1.1547
 5819TIP3   OH238947   5.604   6.787  15.753  0.5131 -0.0297 -0.2677
 5819TIP3    H138948   5.662   6.792  15.830  0.6835 -4.1436 -0.0435
 5819TIP3    H238949   5.664   6.787  15.678  0.5519 -0.1808 -0.2372
 5820TIP3   OH238950   2.022   6.371   0.894 -0.2596 -0.5172  0.0566
 5820TIP3    H138951   2.080   6.337   0.827 -1.5599 -1.4302 -0.6388
 5820TIP3    H238952   2.037   6.466   0.894  2.5424 -0.9102  1.1831
 5821TIP3   OH238953   5.169   3.244   1.605  0.4880 -0.5935  0.2753
 5821TIP3    H138954   5.229   3.179   1.568  0.0873 -0.6706 -0.2435
 5821TIP3    H238955   5.212   3.272   1.686  0.6912 -1.4633  0.4823
 5822TIP3   OH238956   4.309   0.581   1.905  0.2369 -0.0355  0.0738
 5822TIP3    H138957   4.300   0.519   1.978  0.3624 -0.7743 -0.5310
 5822TIP3    H238958   4.242   0.648   1.922 -1.2511 -1.3868 -0.2836
 5823TIP3   OH238959   0.815   2.564   0.754  0.1401 -0.3001  0.8100
 5823TIP3    H138960   0.825   2.615   0.674  0.6836 -0.2342  0.9175
 5823TIP3    H238961   0.896   2.513   0.761 -0.2535 -0.9335  0.8764
 5824TIP3   OH238962   6.366   2.760  12.347  0.3687  0.5298 -0.7511
 5824TIP3    H138963   6.456   2.764  12.316  1.6024 -0.3822  2.4764
 5824TIP3    H238964   6.338   2.670  12.331 -0.5275  1.2102 -3.1350
 5825TIP3   OH238965   4.477   4.610  11.496  0.3609 -0.0190  0.0645
 5825TIP3    H138966   4.473   4.696  11.539 -0.0654  0.0530 -0.1127
 5825TIP3    H238967   4.422   4.621  11.418  2.3820  0.3503 -1.3659
 5826TIP3   OH238968   5.787   5.610  13.436  0.0002 -0.5821  0.3773
 5826TIP3    H138969   5.799   5.544  13.368 -0.9157 -0.5091  0.1379
 5826TIP3    H238970   5.862   5.599  13.494  0.5123 -0.9855 -0.3624
 5827TIP3   OH238971   0.249   4.692  10.614 -0.4300 -1.0003  0.3983
 5827TIP3    H138972   0.344   4.707  10.613 -0.4093 -0.9330 -2.3716
 5827TIP3    H238973   0.240   4.604  10.651  0.7117 -0.9144  0.9149
 5828TIP3   OH238974   2.685   5.795  11.434 -0.2025 -0.0643 -0.2882
 5828TIP3    H138975   2.668   5.703  11.413  0.8168 -0.2334 -0.4014
 5828TIP3    H238976   2.627   5.814  11.508 -0.4336 -0.7905 -0.2826
 5829TIP3   OH238977   6.073   5.923  12.752  0.3353  0.0414  0.7135
 5829TIP3    H138978   6.108   5.844  12.793  0.6921  0.1908  0.7022
 5829TIP3    H238979   6.126   5.935  12.673  1.4095  1.2402  1.5986
 5830TIP3   OH238980   1.770   1.464   4.127  0.5516  0.0688 -0.1015
 5830TIP3    H138981   1.783   1.473   4.033  0.0094  1.3023 -0.0718
 5830TIP3    H238982   1.701   1.400   4.137  0.7176 -0.1762 -0.5361
 5831TIP3   OH238983   1.836   6.269   5.655 -0.4762 -0.0045 -0.3229
 5831TIP3    H138984   1.838   6.342   5.717 -1.0300 -1.0077  0.8875
 5831TIP3    H238985   1.869   6.195   5.704  1.3586 -0.2988 -1.9471
 5832TIP3   OH238986   3.263   3.621  14.584  0.1260  0.0463 -0.6179
 5832TIP3    H138987   3.189   3.632  14.524  0.2932 -1.3761 -1.1096
 5832TIP3    H238988   3.305   3.707  14.586 -1.4697  0.8325 -0.4090
 5833TIP3   OH238989   1.531   2.947  13.240  0.7378  0.1469 -0.4807
 5833TIP3    H138990   1.623   2.961  13.263  0.7353  1.5980 -1.2570
 5833TIP3    H238991   1.523   2.986  13.152 -0.7930  0.7179 -0.1006
 5834TIP3   OH238992   6.793   1.162   4.894 -0.4346 -0.5943 -0.1322
 5834TIP3    H138993   6.878   1.138   4.855  1.3217  2.2617  1.7786
 5834TIP3    H238994   6.784   1.255   4.876 -2.0851 -0.3844  1.6858
 5835TIP3   OH238995   6.263   1.609   3.984  0.0660  0.5169  0.0535
 5835TIP3    H138996   6.290   1.644   3.899 -0.9738  2.4040  0.4817
 5835TIP3    H238997   6.343   1.610   4.037  0.5696 -0.0485 -0.6914
 5836TIP3   OH238998   2.238   5.716  12.466  0.2997  0.1556 -0.3481
 5836TIP3    H138999   2.259   5.650  12.400  1.0697  1.0616 -0.9951
 5836TIP3    H239000   2.169   5.674  12.519  0.0711 -0.7811 -1.3636
 5837TIP3   OH239001   0.604   3.818  17.208 -0.5124  0.1302  0.2287
 5837TIP3    H139002   0.566   3.835  17.294 -0.4857 -0.7195  0.4190
 5837TIP3    H239003   0.605   3.722  17.201  0.0981  0.1777 -0.4398
 5838TIP3   OH239004   5.670   4.963   4.624  0.2826  0.2696  0.6043
 5838TIP3    H139005   5.692   4.955   4.532 -0.4034  0.6229  0.4121
 5838TIP3    H239006   5.636   5.052   4.634  1.7933  0.7702  1.4984
 5839TIP3   OH239007   1.246   0.050   1.995 -0.5070  0.0852 -0.5206
 5839TIP3    H139008   1.165   0.100   1.991  0.6124  1.9174 -1.1267
 5839TIP3    H239009   1.269   0.035   1.904 -0.3658 -0.7657 -0.3461
 5840TIP3   OH239010   2.271   3.932   4.865 -0.1685  0.7238  0.3792
 5840TIP3    H139011   2.325   3.937   4.944 -1.6732  0.5279  1.4483
 5840TIP3    H239012   2.243   3.840   4.861  0.2262  0.6470 -0.6046
 5841TIP3   OH239013   3.309   1.127   4.944 -0.6108 -0.0011  0.6236
 5841TIP3    H139014   3.287   1.111   5.035 -0.5968 -0.5790  0.5226
 5841TIP3    H239015   3.395   1.087   4.932 -0.5014  0.2887  0.4207
 5842TIP3   OH239016   0.825   1.004  14.948  0.1779 -0.6869 -0.8587
 5842TIP3    H139017   0.843   0.910  14.946 -0.3896 -0.7837 -2.5491
 5842TIP3    H239018   0.788   1.023  14.861 -0.8728  0.8637 -0.0950
 5843TIP3   OH239019   2.533   3.479  15.738 -0.5448  0.2801  0.1849
 5843TIP3    H139020   2.504   3.542  15.804 -0.0970  2.4272 -1.6096
 5843TIP3    H239021   2.628   3.490  15.734 -0.3658 -1.0655  0.3902
 5844TIP3   OH239022   6.008   6.766  13.880  0.5945 -0.0450  0.3501
 5844TIP3    H139023   5.953   6.757  13.958  1.5232  0.0061  1.0188
 5844TIP3    H239024   6.028   6.860  13.877  0.7749 -0.0894  0.2002
 5845TIP3   OH239025   5.262   3.277  13.548  0.4448 -0.0086 -0.1373
 5845TIP3    H139026   5.276   3.366  13.581 -0.7011  0.9308 -2.0606
 5845TIP3    H239027   5.350   3.242  13.535  0.9073  1.1038 -0.0409
 5846TIP3   OH239028   0.596   0.401   2.907 -0.0368  0.5253 -0.5986
 5846TIP3    H139029   0.548   0.413   2.988  0.2245  0.2089 -0.3947
 5846TIP3    H239030   0.656   0.328   2.925  0.9610  1.3286 -0.6459
 5847TIP3   OH239031   0.654   1.820   0.604  0.3875  0.1695 -0.6868
 5847TIP3    H139032   0.596   1.785   0.536 -4.0260  1.4018  2.2128
 5847TIP3    H239033   0.648   1.756   0.675  0.5476  1.6164  0.6356
 5848TIP3   OH239034   4.312   6.367   5.517 -0.2576 -0.3837  0.1786
 5848TIP3    H139035   4.228   6.393   5.478  0.0853  0.3978 -0.0500
 5848TIP3    H239036   4.289   6.295   5.576 -0.9022 -1.0379 -0.8359
 5849TIP3   OH239037   0.104   4.682   4.232  0.3394  0.4710 -0.3890
 5849TIP3    H139038   0.156   4.608   4.265  0.5620  1.0980  0.7229
 5849TIP3    H239039   0.056   4.713   4.309 -0.2342  1.0881 -0.9909
 5850TIP3   OH239040   4.164   4.532  16.903 -0.7835  0.7899  0.1859
 5850TIP3    H139041   4.200   4.467  16.963  1.2964  0.9057 -0.8878
 5850TIP3    H239042   4.109   4.588  16.958 -0.2373 -0.0947  1.6597
 5851TIP3   OH239043   3.618   6.274   2.436 -0.1090 -0.8972 -0.0066
 5851TIP3    H139044   3.620   6.179   2.438  1.8747 -0.8720  1.6933
 5851TIP3    H239045   3.568   6.299   2.514  0.6336 -0.5616  0.3764
 5852TIP3   OH239046   0.624   4.185  14.620  0.7738  0.0184  0.2100
 5852TIP3    H139047   0.694   4.194  14.685  1.1254  1.9317 -0.4089
 5852TIP3    H239048   0.543   4.189  14.671  1.0617  0.7070  0.6175
 5853TIP3   OH239049   3.551   0.889   1.670 -0.2985 -0.1208  0.2163
 5853TIP3    H139050   3.541   0.794   1.660 -0.3396 -0.0813 -0.1399
 5853TIP3    H239051   3.481   0.915   1.729  0.6844 -0.5464  1.6069
 5854TIP3   OH239052   6.621   1.193  16.478  0.3516 -0.1219 -0.1583
 5854TIP3    H139053   6.618   1.120  16.540 -0.6714 -1.2214 -1.4846
 5854TIP3    H239054   6.531   1.202  16.447  0.5352  1.5046 -0.2586
 5855TIP3   OH239055   1.896   3.186   0.788  0.3577  0.0464  0.0638
 5855TIP3    H139056   1.827   3.132   0.750 -1.3278  1.0876  1.5553
 5855TIP3    H239057   1.904   3.155   0.878  2.2631 -0.4361 -0.2480
 5856TIP3   OH239058   5.199   6.636  11.492 -0.1619 -0.7638 -0.1791
 5856TIP3    H139059   5.151   6.555  11.512 -2.0134  0.6191  1.2782
 5856TIP3    H239060   5.149   6.705  11.537  0.5507  1.3892 -2.5405
 5857TIP3   OH239061   5.844   2.734   5.209 -0.3881 -0.4975 -0.3159
 5857TIP3    H139062   5.839   2.773   5.121  1.9844 -0.1929 -0.3393
 5857TIP3    H239063   5.839   2.809   5.268 -0.5683 -0.5776 -0.2303
 5858TIP3   OH239064   0.750   4.625  14.633  0.0338  0.4828 -0.4707
 5858TIP3    H139065   0.745   4.720  14.644 -0.2218  0.3834  0.3720
 5858TIP3    H239066   0.792   4.594  14.714  0.3381 -0.0941 -0.8489
 5859TIP3   OH239067   3.947   1.376   6.020  1.1716  0.3637  0.2607
 5859TIP3    H139068   3.952   1.339   6.109 -1.0034 -1.8761 -0.4925
 5859TIP3    H239069   3.858   1.410   6.014  1.7685  1.8131 -0.6135
 5860TIP3   OH239070   2.423   4.085  16.169 -0.4555 -0.8753  0.2266
 5860TIP3    H139071   2.421   4.156  16.233  0.3315 -0.8534  0.2357
 5860TIP3    H239072   2.334   4.051  16.167 -0.6416 -0.4209  0.8217
 5861TIP3   OH239073   4.559   0.987  11.149 -0.5396  0.1194  0.1817
 5861TIP3    H139074   4.501   1.038  11.091  0.8060  1.3080 -0.1628
 5861TIP3    H239075   4.569   0.903  11.105 -2.5169 -0.3206  0.5684
 5862TIP3   OH239076   4.838   6.398   1.125  0.2480  0.2213  0.0422
 5862TIP3    H139077   4.831   6.425   1.033 -0.6902 -1.3755 -0.3622
 5862TIP3    H239078   4.856   6.304   1.121  2.0905  0.4953  1.4756
 5863TIP3   OH239079   5.886   2.504  16.780 -0.0936  0.0254  0.3387
 5863TIP3    H139080   5.967   2.483  16.733 -0.2187  0.0582  0.1070
 5863TIP3    H239081   5.835   2.555  16.718 -0.0360  0.5287  0.6947
 5864TIP3   OH239082   3.451   6.731   2.525  0.4332 -0.1902 -0.5465
 5864TIP3    H139083   3.523   6.706   2.582 -0.4561 -1.5810  0.0099
 5864TIP3    H239084   3.489   6.793   2.463  2.0385 -0.7010 -0.0912
 5865TIP3   OH239085   1.474   5.020  16.304  0.2971 -0.2390  0.0076
 5865TIP3    H139086   1.551   4.996  16.355  0.7116  0.7505 -0.1500
 5865TIP3    H239087   1.502   5.096  16.252 -0.8181  0.1948  0.0333
 5866TIP3   OH239088   0.085   4.730   1.455 -0.2032  0.3260  0.2467
 5866TIP3    H139089   0.031   4.787   1.401  3.8240  1.6061 -2.7105
 5866TIP3    H239090   0.125   4.789   1.519  1.0928  0.2163 -0.4429
 5867TIP3   OH239091   0.645   5.722  14.160  0.5276  0.2126  0.1447
 5867TIP3    H139092   0.722   5.721  14.104 -0.3291  2.0288 -1.0814
 5867TIP3    H239093   0.623   5.629  14.171  1.5277 -0.2203 -1.3332
 5868TIP3   OH239094   4.148   6.148   4.896  0.4118 -0.5109 -0.0839
 5868TIP3    H139095   4.129   6.166   4.804  1.7501 -3.2674 -0.9538
 5868TIP3    H239096   4.227   6.199   4.914 -0.2560  0.6079 -0.2129
 5869TIP3   OH239097   4.457   6.148   5.694 -0.1610  0.5472  0.7461
 5869TIP3    H139098   4.427   6.094   5.767 -0.5735  1.6471  1.4165
 5869TIP3    H239099   4.551   6.156   5.706  0.5053 -3.1311 -1.5036
 5870TIP3   OH239100   2.675   2.899   1.781 -0.1818  0.4431  0.0201
 5870TIP3    H139101   2.625   2.861   1.853  0.7178 -0.8946 -0.0422
 5870TIP3    H239102   2.640   2.855   1.703  0.7903 -0.1939 -0.0642
 5871TIP3   OH239103   6.531   3.699   6.337  0.2046  0.1836 -0.0824
 5871TIP3    H139104   6.506   3.782   6.376 -0.4505 -0.4130  0.7958
 5871TIP3    H239105   6.605   3.668   6.389  0.5543  0.2880 -0.5102
 5872TIP3   OH239106   0.962   5.161  15.493 -0.0635 -0.1552  0.0134
 5872TIP3    H139107   1.036   5.176  15.434  0.8100 -0.3848  1.0411
 5872TIP3    H239108   0.889   5.138  15.435  0.9696 -1.0892 -0.9223
 5873TIP3   OH239109   0.568   1.438  14.645 -0.5612  0.1491  0.4172
 5873TIP3    H139110   0.606   1.396  14.568 -3.1779  1.4599 -1.6927
 5873TIP3    H239111   0.576   1.373  14.715  1.4733 -1.2487 -1.0675
 5874TIP3   OH239112   0.914   3.864   0.059  0.6406  0.2362  0.4229
 5874TIP3    H139113   0.996   3.850   0.012  0.2144 -0.6417 -0.0603
 5874TIP3    H239114   0.846   3.864  -0.008 -0.0396 -1.5993  1.0716
 5875TIP3   OH239115   2.293   5.444   4.919 -0.0678  0.1659 -1.0753
 5875TIP3    H139116   2.290   5.539   4.933 -1.4031 -0.2153  1.5563
 5875TIP3    H239117   2.383   5.420   4.937 -0.3254  0.6023  0.9152
 5876TIP3   OH239118   3.948   0.896   6.335  0.5985  0.2088 -0.4601
 5876TIP3    H139119   3.883   0.826   6.345  1.7365 -1.1445 -2.3810
 5876TIP3    H239120   3.989   0.902   6.421  0.7802 -1.7881 -0.3841
 5877TIP3   OH239121   3.772   3.222   3.412  0.5041 -0.3023 -0.2642
 5877TIP3    H139122   3.804   3.225   3.503  0.1833  0.1097 -0.1653
 5877TIP3    H239123   3.828   3.157   3.370 -1.1050 -2.5332  0.9078
 5878TIP3   OH239124   2.266   4.293   0.398  0.4093 -0.2632 -0.2140
 5878TIP3    H139125   2.186   4.254   0.433  0.2591  0.9847  0.8806
 5878TIP3    H239126   2.239   4.334   0.316  0.7155 -3.0145 -1.7404
 5879TIP3   OH239127   2.238   4.145  13.469 -0.3384 -0.1973 -0.1656
 5879TIP3    H139128   2.179   4.154  13.544 -0.3635  0.6468 -0.2782
 5879TIP3    H239129   2.182   4.159  13.392 -0.2302 -0.6166 -0.3207
 5880TIP3   OH239130   1.853   6.660  12.171 -0.1369  0.3610  0.1231
 5880TIP3    H139131   1.841   6.716  12.095  1.1693 -0.9814 -1.0942
 5880TIP3    H239132   1.941   6.624  12.161 -1.0751 -2.2175  0.6632
 5881TIP3   OH239133   4.501   4.611   5.453  0.7029 -0.0362  0.3452
 5881TIP3    H139134   4.428   4.640   5.508  0.5745 -1.5582  1.0007
 5881TIP3    H239135   4.507   4.517   5.469  0.3170 -0.6160 -2.6613
 5882TIP3   OH239136   6.113   4.611   0.267  0.3761  0.0483  0.2453
 5882TIP3    H139137   6.057   4.541   0.237 -0.3610  1.4428 -1.7419
 5882TIP3    H239138   6.053   4.678   0.301  1.0580 -0.1797  1.9909
 5883TIP3   OH239139   5.550   2.346  15.304  0.6677 -0.4429 -0.1762
 5883TIP3    H139140   5.626   2.292  15.327  0.3499 -1.6963 -1.9795
 5883TIP3    H239141   5.587   2.422  15.260  0.8383 -1.5071 -1.8997
 5884TIP3   OH239142   2.698   5.316  15.186  0.0634  0.0367  0.2940
 5884TIP3    H139143   2.626   5.349  15.239 -0.6302 -1.0339  0.0251
 5884TIP3    H239144   2.705   5.223  15.208  0.7643 -0.0751 -0.3534
 5885TIP3   OH239145   4.744   3.455  16.080 -0.2251 -0.3456 -0.3037
 5885TIP3    H139146   4.800   3.379  16.094 -0.2396 -0.3231 -0.1303
 5885TIP3    H239147   4.683   3.454  16.154 -0.6365 -0.5307 -0.6461
 5886TIP3   OH239148   5.342   0.360  13.017 -0.0142  0.1436 -0.2579
 5886TIP3    H139149   5.250   0.340  12.998 -0.2984  0.8767  0.3242
 5886TIP3    H239150   5.339   0.442  13.066  0.8980 -0.2333  0.4367
 5887TIP3   OH239151   3.268   0.894   6.661 -0.1735 -0.3754  1.2108
 5887TIP3    H139152   3.244   0.952   6.734 -1.6837 -0.2665  0.6475
 5887TIP3    H239153   3.306   0.953   6.596 -0.9071 -0.1238  0.9988
 5888TIP3   OH239154   4.395   6.231  16.182  0.0888 -0.2453  0.1448
 5888TIP3    H139155   4.444   6.298  16.229 -0.0996  0.0045 -0.0142
 5888TIP3    H239156   4.304   6.259  16.188  0.0710 -0.1764 -0.4307
 5889TIP3   OH239157   4.891   3.252  15.612 -0.2210 -0.2694  0.1960
 5889TIP3    H139158   4.805   3.210  15.609 -1.3898  2.0523  0.6831
 5889TIP3    H239159   4.911   3.259  15.705  0.5390 -0.8097  0.0862
 5890TIP3   OH239160   5.434   6.404   1.589 -0.1254  0.6795 -0.0887
 5890TIP3    H139161   5.437   6.323   1.537 -0.2832  0.7469 -0.2010
 5890TIP3    H239162   5.509   6.455   1.557  1.5356 -0.5166  1.7559
 5891TIP3   OH239163   6.338   3.259   3.841  0.0264  0.2733 -0.1218
 5891TIP3    H139164   6.252   3.296   3.824 -0.0794  0.2068  0.2704
 5891TIP3    H239165   6.399   3.332   3.828  0.0216  0.0461 -1.5189
 5892TIP3   OH239166   2.055   1.071  14.805  0.2132  0.0636 -0.0868
 5892TIP3    H139167   2.029   1.084  14.714 -2.3952 -0.7491  0.5120
 5892TIP3    H239168   2.082   0.980  14.810  1.2784  0.3582 -0.2341
 5893TIP3   OH239169   3.094   6.299   0.853 -0.1790  0.2615 -0.6299
 5893TIP3    H139170   3.124   6.377   0.806  0.2254  0.7175  0.3844
 5893TIP3    H239171   3.171   6.242   0.858  0.3117  1.0566  1.1976
 5894TIP3   OH239172   1.006   4.927   3.480  0.0244  0.0294 -0.0389
 5894TIP3    H139173   1.066   4.969   3.542  1.4996 -1.1163 -0.6808
 5894TIP3    H239174   1.052   4.849   3.450 -2.4931 -1.8411  0.7763
 5895TIP3   OH239175   5.140   2.482  11.823 -0.3895  0.0421 -0.3113
 5895TIP3    H139176   5.181   2.562  11.790  0.3542 -0.3527 -0.3324
 5895TIP3    H239177   5.207   2.415  11.817 -1.7571 -1.1797 -2.5802
 5896TIP3   OH239178   1.173   1.228   3.002 -0.3732 -0.6319  0.0700
 5896TIP3    H139179   1.154   1.175   3.079  1.4985 -0.8011  0.4389
 5896TIP3    H239180   1.130   1.312   3.019  0.2767 -0.5663  1.4296
 5897TIP3   OH239181   0.857   4.977   3.252 -0.4441  0.1022 -0.4286
 5897TIP3    H139182   0.914   5.031   3.196  0.9253 -0.1920  0.6557
 5897TIP3    H239183   0.914   4.950   3.324 -2.1006  0.1894  0.9290
 5898TIP3   OH239184   6.018   1.172   1.547  0.0209  0.2155  0.0714
 5898TIP3    H139185   6.046   1.221   1.470  0.7234  0.1563  0.2915
 5898TIP3    H239186   6.097   1.163   1.601 -0.1618 -0.9442  0.1543
 5899TIP3   OH239187   2.044   5.136   0.437  0.4845 -0.6591 -0.0564
 5899TIP3    H139188   1.987   5.091   0.500  0.7518 -2.5103 -1.1168
 5899TIP3    H239189   1.998   5.218   0.418  0.1905 -0.2665  2.2007
 5900TIP3   OH239190   1.377   0.370   1.684 -0.2779  0.3391  0.0940
 5900TIP3    H139191   1.374   0.458   1.723  0.2829  0.5731 -0.3923
 5900TIP3    H239192   1.309   0.370   1.618 -0.3465  0.3735  0.1648
 5901TIP3   OH239193   2.000   6.080  12.942  0.2373  0.0404 -0.1785
 5901TIP3    H139194   2.070   6.095  12.879  0.2217 -0.6060 -0.3500
 5901TIP3    H239195   1.938   6.152  12.926 -1.8176 -2.4039 -3.7483
 5902TIP3   OH239196   3.525   1.219   3.508 -0.2178 -0.8310  0.4203
 5902TIP3    H139197   3.434   1.196   3.488 -0.1077 -0.1674 -0.8553
 5902TIP3    H239198   3.527   1.314   3.502  0.2975 -0.7585  1.6158
 5903TIP3   OH239199   1.716   6.478   4.862 -0.2589  0.2924  0.0488
 5903TIP3    H139200   1.623   6.467   4.880 -0.8284  1.7087 -1.8586
 5903TIP3    H239201   1.738   6.563   4.899  0.3043 -0.0733  0.5689
 5904TIP3   OH239202   3.201   3.960   0.650 -0.1570  0.6115  0.8668
 5904TIP3    H139203   3.260   4.034   0.664 -0.5773  0.9225  0.9679
 5904TIP3    H239204   3.171   3.971   0.560 -2.7197  2.3478  1.8753
 5905TIP3   OH239205   6.051   3.656  12.967 -0.0780 -0.1969  0.8977
 5905TIP3    H139206   6.048   3.613  13.053  1.0327  1.2417  1.6954
 5905TIP3    H239207   6.127   3.714  12.973 -0.8216  0.9457 -0.5759
 5906TIP3   OH239208   3.467   1.856  12.054  0.0400  0.0874  0.2659
 5906TIP3    H139209   3.414   1.927  12.018 -1.2429 -0.5392  0.8759
 5906TIP3    H239210   3.432   1.776  12.015 -0.1626 -0.4331  1.4637
 5907TIP3   OH239211   5.872   4.761  12.031  0.8051 -0.0112 -0.1545
 5907TIP3    H139212   5.950   4.749  11.977  1.4936 -1.7308  1.1757
 5907TIP3    H239213   5.888   4.842  12.079  0.5397  1.1045 -1.9054
 5908TIP3   OH239214   0.943   1.046  15.835  0.3642 -0.0243 -0.7897
 5908TIP3    H139215   0.908   0.957  15.842  0.1296  0.1855  1.0498
 5908TIP3    H239216   1.036   1.037  15.854  0.0010  0.3580  1.2554
 5909TIP3   OH239217   3.029   0.904   5.483  0.4447  0.2485 -0.3163
 5909TIP3    H139218   3.051   0.981   5.535  0.9106 -0.1582  0.0980
 5909TIP3    H239219   3.077   0.833   5.525 -0.0681 -0.2841 -0.6313
 5910TIP3   OH239220   4.099   1.992  15.995 -0.7411 -0.4261 -0.4926
 5910TIP3    H139221   4.036   1.929  16.029 -0.3900 -1.5982 -1.9561
 5910TIP3    H239222   4.056   2.030  15.919 -0.1969 -0.2979 -0.7397
 5911TIP3   OH239223   0.907   4.280   1.199  0.2550 -0.1530  0.4629
 5911TIP3    H139224   0.952   4.254   1.119 -0.0252  1.7465 -0.3226
 5911TIP3    H239225   0.816   4.252   1.187  0.4737 -0.9736  0.6556
 5912TIP3   OH239226   1.726   5.661  14.213 -0.8264  0.1740  0.4548
 5912TIP3    H139227   1.817   5.639  14.191 -1.4636  0.1337 -2.2358
 5912TIP3    H239228   1.689   5.578  14.244 -0.4228 -0.2234 -0.1045
 5913TIP3   OH239229   3.113   2.089   2.002  0.3172  0.4593 -0.2859
 5913TIP3    H139230   3.208   2.088   2.013  0.2518 -0.1907  0.2369
 5913TIP3    H239231   3.079   2.110   2.089  0.0023  1.4786 -0.6418
 5914TIP3   OH239232   1.329   1.695  12.160 -0.3317 -0.1266 -0.8741
 5914TIP3    H139233   1.296   1.703  12.250  0.5209 -2.6487 -0.2998
 5914TIP3    H239234   1.257   1.727  12.105 -1.0011  1.1052  0.6567
 5915TIP3   OH239235   0.140   4.105   1.168 -0.5074  0.3530  0.1006
 5915TIP3    H139236   0.053   4.115   1.205  0.0238  0.1446  1.4188
 5915TIP3    H239237   0.160   4.012   1.179 -0.1583  0.3820 -0.2900
 5916TIP3   OH239238   3.426   4.261  11.845  0.0760  0.4588 -0.1242
 5916TIP3    H139239   3.420   4.177  11.891 -1.0532  1.7894  2.2975
 5916TIP3    H239240   3.364   4.254  11.773 -0.3817 -0.5991  0.3648
 5917TIP3   OH239241   2.077   4.953  17.030  0.1895 -0.0039 -0.4649
 5917TIP3    H139242   2.165   4.965  17.066 -0.5990  0.8336  1.2589
 5917TIP3    H239243   2.070   5.020  16.962  0.8731 -0.0379 -0.5729
 5918TIP3   OH239244   1.888   1.799  13.777  0.1780 -0.5174 -0.5136
 5918TIP3    H139245   1.982   1.795  13.761  0.2910 -1.2036  0.2680
 5918TIP3    H239246   1.864   1.889  13.757  1.3641  0.2024  1.1505
 5919TIP3   OH239247   0.373   4.196  13.580  0.3366 -0.2813 -0.1684
 5919TIP3    H139248   0.314   4.173  13.508 -0.7989  1.9196  0.0200
 5919TIP3    H239249   0.343   4.142  13.653 -2.0841  1.4866  0.1897
 5920TIP3   OH239250   5.202   2.244   4.269  0.3949 -0.1907  0.6125
 5920TIP3    H139251   5.116   2.230   4.309  0.2890  1.5373  1.0539
 5920TIP3    H239252   5.185   2.243   4.175 -0.4009  1.6237  0.7065
 5921TIP3   OH239253   5.348   2.982   4.150 -0.1307 -0.1201  0.3291
 5921TIP3    H139254   5.291   2.905   4.156 -0.1473 -0.1380 -0.0770
 5921TIP3    H239255   5.289   3.056   4.164 -0.9361  0.0962 -3.6013
 5922TIP3   OH239256   5.060   5.076  14.263 -0.0148  0.2487  0.4365
 5922TIP3    H139257   5.084   5.056  14.353 -2.2440  0.7476  1.1737
 5922TIP3    H239258   5.038   5.170  14.264 -0.5241  0.1500 -0.5104
 5923TIP3   OH239259   1.313   5.444   0.822  0.5723  0.0096  0.0882
 5923TIP3    H139260   1.293   5.373   0.761  0.8011  2.8143 -3.3950
 5923TIP3    H239261   1.389   5.488   0.784  0.3928  2.2031  2.1052
 5924TIP3   OH239262   6.031   1.888  11.076 -0.3580 -0.1277  0.1405
 5924TIP3    H139263   6.122   1.867  11.055 -0.5095 -0.2829 -0.3682
 5924TIP3    H239264   5.980   1.836  11.015 -0.7954 -0.1738  0.5420
 5925TIP3   OH239265   3.678   3.218  11.999 -0.6141 -0.6356 -0.0928
 5925TIP3    H139266   3.659   3.229  12.092 -2.3807 -1.7771 -0.3008
 5925TIP3    H239267   3.748   3.152  11.997 -1.0856 -1.1557  0.4051
 5926TIP3   OH239268   0.053   5.614  17.138  0.2893 -0.2829  0.2811
 5926TIP3    H139269   0.097   5.579  17.216 -0.5173 -1.5085  0.2029
 5926TIP3    H239270   0.096   5.569  17.065  0.1941 -0.0716  0.0944
 5927TIP3   OH239271   4.863   0.129  11.271 -0.2952  0.5206 -0.1245
 5927TIP3    H139272   4.822   0.206  11.312 -1.3114  0.1759 -0.4940
 5927TIP3    H239273   4.862   0.063  11.340 -1.7048  0.0456 -0.5913
 5928TIP3   OH239274   1.094   3.143  13.724 -0.1958 -0.9374  0.2395
 5928TIP3    H139275   1.031   3.144  13.796  1.0286 -1.3938  1.3399
 5928TIP3    H239276   1.159   3.078  13.750  0.6294 -0.6061 -0.9592
 5929TIP3   OH239277   6.226   3.479  13.102  0.2352  0.1624 -0.4856
 5929TIP3    H139278   6.275   3.411  13.147 -1.4442 -0.3795  0.5914
 5929TIP3    H239279   6.204   3.441  13.017  0.8854  0.0573 -0.6040
 5930TIP3   OH239280   3.804   5.472   3.913  0.3559 -0.2585  0.2834
 5930TIP3    H139281   3.747   5.511   3.846 -0.1599  0.2438  0.9971
 5930TIP3    H239282   3.773   5.382   3.921  0.1302 -0.1939  0.1534
 5931TIP3   OH239283   3.723   2.802   0.425 -0.5428  0.2961 -0.2197
 5931TIP3    H139284   3.649   2.842   0.379 -0.5691  0.5122  0.0109
 5931TIP3    H239285   3.773   2.876   0.459 -0.4870  0.1369  0.0446
 5932TIP3   OH239286   0.002   0.086  13.694 -0.3348 -0.6563 -0.2360
 5932TIP3    H139287   0.035  -0.003  13.709 -0.9179 -1.0379 -1.1191
 5932TIP3    H239288  -0.088   0.084  13.726  0.0686  0.0024  0.9571
 5933TIP3   OH239289   5.109   1.544   4.390  0.4518 -0.2669  0.5333
 5933TIP3    H139290   5.143   1.511   4.307 -1.9084  2.1759 -1.5080
 5933TIP3    H239291   5.175   1.607   4.420  1.4850 -1.4231  0.7314
 5934TIP3   OH239292   6.230   0.258  12.802 -0.0577  0.3248 -0.5942
 5934TIP3    H139293   6.170   0.280  12.730 -1.0589  1.1566  0.4593
 5934TIP3    H239294   6.315   0.244  12.759 -0.6959  0.5231 -1.9638
 5935TIP3   OH239295   4.575   4.515   0.061  0.2097 -0.0728  0.3558
 5935TIP3    H139296   4.536   4.536   0.145 -0.1367 -0.1062  0.2053
 5935TIP3    H239297   4.669   4.532   0.072  0.0823  0.4882  0.5677
 5936TIP3   OH239298   4.043   5.677   3.897 -0.1715  0.3498  0.2587
 5936TIP3    H139299   3.982   5.603   3.902 -0.1361  0.1550 -1.7386
 5936TIP3    H239300   4.129   5.639   3.917 -0.4629  0.3001  1.4361
 5937TIP3   OH239301   4.844   0.413   4.412 -0.0202 -0.0596 -0.1395
 5937TIP3    H139302   4.922   0.385   4.460  0.9968 -0.2550 -1.8294
 5937TIP3    H239303   4.808   0.484   4.464  0.5584 -0.8234  1.3358
 5938TIP3   OH239304   1.952   0.181  15.606 -0.2077  0.8103 -0.4064
 5938TIP3    H139305   1.971   0.257  15.661 -0.7605  1.8459 -1.6174
 5938TIP3    H239306   2.019   0.183  15.538  0.8097 -0.7890  0.5219
 5939TIP3   OH239307   6.773   5.864   3.100 -0.1834  0.2983 -0.0834
 5939TIP3    H139308   6.801   5.888   3.012 -2.0435  1.6305 -0.3298
 5939TIP3    H239309   6.855   5.847   3.147  0.8262 -0.6736 -2.1053
 5940TIP3   OH239310   0.139   6.542   0.198 -0.4340  0.3945  0.1704
 5940TIP3    H139311   0.140   6.626   0.244 -2.4164  0.8886 -0.6222
 5940TIP3    H239312   0.207   6.551   0.131  0.9656  0.4746  1.5514
 5941TIP3   OH239313   6.190   1.941  16.669 -0.2682  0.0596  0.4818
 5941TIP3    H139314   6.134   2.018  16.673  2.3896  2.1633 -1.3498
 5941TIP3    H239315   6.216   1.925  16.759  0.9281  2.6751  0.6309
 5942TIP3   OH239316   4.398   1.324   1.898 -0.4314  0.2688  0.7959
 5942TIP3    H139317   4.366   1.240   1.930 -1.6777  0.3452 -0.2178
 5942TIP3    H239318   4.492   1.312   1.889 -0.8283 -1.6414 -1.1440
 5943TIP3   OH239319   6.601   2.214   4.160 -0.1112 -0.7255 -0.2205
 5943TIP3    H139320   6.622   2.122   4.147  0.7364 -0.1929 -2.8539
 5943TIP3    H239321   6.529   2.232   4.100 -0.7089  0.1721  0.7451
 5944TIP3   OH239322   5.981   2.809  10.384 -0.1385 -0.3288  0.2242
 5944TIP3    H139323   6.031   2.796  10.465 -1.5278 -0.7438  1.0251
 5944TIP3    H239324   5.977   2.904  10.374 -0.4343 -0.2601  0.9516
 5945TIP3   OH239325   5.785   4.814  10.851 -0.3609  0.0080 -0.1473
 5945TIP3    H139326   5.877   4.789  10.840 -0.6123 -2.8135  3.3810
 5945TIP3    H239327   5.738   4.760  10.787  0.1833 -0.7956  0.1121
 5946TIP3   OH239328   1.809   1.282   6.176  0.5186  0.2741  0.1126
 5946TIP3    H139329   1.751   1.221   6.222  1.1230  0.0498  0.5821
 5946TIP3    H239330   1.897   1.254   6.200  0.9063 -0.8741 -2.4443
 5947TIP3   OH239331   6.241   4.260   0.091 -0.5790  0.7915 -0.0294
 5947TIP3    H139332   6.235   4.192   0.157 -2.1708  0.2424 -0.6997
 5947TIP3    H239333   6.288   4.219   0.018 -1.8376  0.2801 -0.5673
 5948TIP3   OH239334   1.022   1.275   2.286 -0.4819 -0.5394  0.5357
 5948TIP3    H139335   1.106   1.272   2.332 -0.5896  1.2949  0.8911
 5948TIP3    H239336   1.039   1.327   2.207 -0.8657 -1.6782 -0.3137
 5949TIP3   OH239337   6.604   0.239   1.551 -0.2884 -0.0862 -0.1231
 5949TIP3    H139338   6.609   0.193   1.635  0.7986 -0.0974 -0.1842
 5949TIP3    H239339   6.662   0.315   1.562  0.6804 -0.6567 -1.2155
 5950TIP3   OH239340   5.278   2.453  16.966  0.1560  0.0940 -0.1186
 5950TIP3    H139341   5.188   2.485  16.972  1.0759  2.7650  0.0104
 5950TIP3    H239342   5.286   2.390  17.038 -0.9711  1.4616  1.2326
 5951TIP3   OH239343   6.623   3.398  12.670  0.1796 -0.0980  0.6294
 5951TIP3    H139344   6.531   3.374  12.674  0.2377 -0.7083 -1.2749
 5951TIP3    H239345   6.646   3.422  12.760 -1.5572 -0.9401  1.3065
 5952TIP3   OH239346   5.725   2.484  13.234 -0.1109  0.7352  0.3957
 5952TIP3    H139347   5.745   2.576  13.217  0.0249  0.6371  0.0237
 5952TIP3    H239348   5.811   2.442  13.240 -0.1896  0.4458 -0.4783
 5953TIP3   OH239349   1.006   5.870   3.944  0.4269  0.4665 -0.2649
 5953TIP3    H139350   1.015   5.964   3.928 -0.9016  0.8273  0.9951
 5953TIP3    H239351   1.054   5.855   4.026  0.4552  0.0729 -0.3512
 5954TIP3   OH239352   2.398   5.359  15.213 -0.3394  0.1388  0.3393
 5954TIP3    H139353   2.369   5.372  15.123  1.0916 -1.7829 -0.4216
 5954TIP3    H239354   2.349   5.425  15.263 -0.2785  2.0163 -1.9846
 5955TIP3   OH239355   4.210   0.567  13.082  0.2760 -0.6700 -0.4417
 5955TIP3    H139356   4.273   0.545  13.149 -1.4172 -0.4766  1.2570
 5955TIP3    H239357   4.195   0.485  13.035 -0.7892 -1.5601  1.3868
 5956TIP3   OH239358   5.501   6.393  12.079 -0.1712 -0.5969  0.2819
 5956TIP3    H139359   5.406   6.387  12.073 -0.1795  0.4995 -0.6992
 5956TIP3    H239360   5.533   6.316  12.032 -0.5365  0.1926 -1.2806
 5957TIP3   OH239361   3.822   5.602   5.774  0.1963  0.4086  0.1179
 5957TIP3    H139362   3.865   5.677   5.816 -1.0775  0.3747  1.5224
 5957TIP3    H239363   3.760   5.570   5.840 -0.9157 -0.4563 -1.3236
 5958TIP3   OH239364   5.981   1.903   4.788  0.0056  0.6630 -0.0256
 5958TIP3    H139365   5.932   1.968   4.839 -0.9006 -0.8282  1.0342
 5958TIP3    H239366   5.977   1.823   4.840  0.9076 -0.3265 -1.4303
 5959TIP3   OH239367   6.672   3.936  15.983 -0.1080  0.0044  0.2901
 5959TIP3    H139368   6.610   3.873  16.019  0.1527 -1.7498 -2.2005
 5959TIP3    H239369   6.639   4.021  16.012 -2.2101 -1.0792  1.1635
 5960TIP3   OH239370   2.666   6.275   3.746  0.0417 -0.1327  0.1167
 5960TIP3    H139371   2.641   6.184   3.729  0.2031 -0.1543 -0.0046
 5960TIP3    H239372   2.640   6.323   3.668 -0.7892  0.0709  0.5104
 5961TIP3   OH239373   3.977   6.423  14.827 -0.3040  0.2152  0.0252
 5961TIP3    H139374   4.044   6.405  14.893 -0.6004  0.7877  0.4856
 5961TIP3    H239375   4.026   6.456  14.751  0.0134 -0.2154  0.0396
 5962TIP3   OH239376   6.210   2.760  12.657  0.0187 -0.6428  0.1368
 5962TIP3    H139377   6.291   2.743  12.705  0.4525 -0.7404 -0.6252
 5962TIP3    H239378   6.183   2.674  12.625  0.3508 -0.4136 -0.7699
 5963TIP3   OH239379   5.931   6.720  10.717  0.0999 -0.1981  0.2665
 5963TIP3    H139380   5.980   6.641  10.693 -1.1377 -0.3800 -1.8788
 5963TIP3    H239381   5.966   6.788  10.659  0.3184  0.5253  1.2501
 5964TIP3   OH239382   0.974   6.682   6.449 -0.0366 -0.2984 -0.1970
 5964TIP3    H139383   0.982   6.596   6.407  0.3637 -0.9571  1.1908
 5964TIP3    H239384   0.916   6.732   6.392  1.3798 -0.8018 -2.1109
 5965TIP3   OH239385   2.636   4.981   4.787 -0.4752 -0.2032 -0.1780
 5965TIP3    H139386   2.553   5.018   4.756  1.2871  2.3117 -2.0921
 5965TIP3    H239387   2.659   5.034   4.863 -0.3681 -0.5685  0.0442
 5966TIP3   OH239388   5.660   2.526  14.765 -0.2927 -0.4463  0.6840
 5966TIP3    H139389   5.712   2.445  14.765 -0.0679 -0.3128 -0.7762
 5966TIP3    H239390   5.710   2.585  14.822  1.2750 -0.2647 -0.8369
 5967TIP3   OH239391   1.057   4.097   5.935  0.4388  0.0449  0.3431
 5967TIP3    H139392   1.018   4.011   5.924  2.8652 -0.6000 -4.7867
 5967TIP3    H239393   1.020   4.150   5.865  0.2172  2.7879  2.4193
 5968TIP3   OH239394   1.611   5.278  15.231 -0.0213 -0.3226  0.0041
 5968TIP3    H139395   1.641   5.357  15.187  1.2982 -0.5163  0.5396
 5968TIP3    H239396   1.647   5.206  15.179  0.9172 -0.5550  0.9667
 5969TIP3   OH239397   6.572   2.506   0.272  0.1269 -0.0665  0.5048
 5969TIP3    H139398   6.633   2.543   0.209 -1.1202 -0.9729 -1.2899
 5969TIP3    H239399   6.610   2.526   0.358  1.9234  1.0575 -0.5305
 5970TIP3   OH239400   2.066   6.229   3.595 -0.0548 -0.6205  0.0176
 5970TIP3    H139401   2.035   6.143   3.623  0.2877 -0.4523  0.9351
 5970TIP3    H239402   1.990   6.269   3.551 -1.2429 -0.1267  2.4338
 5971TIP3   OH239403   5.021   4.379  14.824 -0.1200  0.6842  0.3392
 5971TIP3    H139404   5.023   4.295  14.869 -0.1662 -0.2220 -1.3260
 5971TIP3    H239405   4.955   4.368  14.756  1.2714  1.4074 -1.1531
 5972TIP3   OH239406   1.060   5.780  10.349 -0.4132 -0.1774 -0.3329
 5972TIP3    H139407   0.996   5.819  10.290 -2.2216 -1.4394  0.7672
 5972TIP3    H239408   1.011   5.715  10.398  1.6411 -0.9120  0.7877
 5973TIP3   OH239409   3.476   2.401  13.508 -0.1890 -0.0795  0.2699
 5973TIP3    H139410   3.525   2.417  13.427  3.2129  1.2822  2.4794
 5973TIP3    H239411   3.449   2.489  13.536  0.9767 -0.2213  1.9347
 5974TIP3   OH239412   3.138   0.461   0.118 -0.4359  0.0166  0.0208
 5974TIP3    H139413   3.231   0.469   0.095 -0.6783 -0.1907 -1.0132
 5974TIP3    H239414   3.091   0.504   0.047 -1.1483  0.0645  0.5068
 5975TIP3   OH239415   2.351   3.864   0.911 -0.0041 -0.4484 -0.0120
 5975TIP3    H139416   2.356   3.810   0.990 -1.3660 -2.9732 -1.5569
 5975TIP3    H239417   2.264   3.846   0.876 -0.7327  3.2773 -0.3027
 5976TIP3   OH239418   3.476   5.204  12.367  0.1801 -0.1349  0.0523
 5976TIP3    H139419   3.482   5.116  12.330  0.1723  0.1620 -0.6600
 5976TIP3    H239420   3.497   5.262  12.294 -1.0043  0.5073  0.2173
 5977TIP3   OH239421   6.502   4.462   6.405  0.2193  0.3304 -0.5382
 5977TIP3    H139422   6.473   4.528   6.467 -1.4851 -1.7708  0.9811
 5977TIP3    H239423   6.566   4.410   6.453  0.4432 -0.0519 -1.2407
 5978TIP3   OH239424   2.050   6.693   0.960 -0.2807 -0.2561  0.1041
 5978TIP3    H139425   2.113   6.688   0.888 -2.6460 -0.1250 -2.0536
 5978TIP3    H239426   2.052   6.785   0.986 -1.3108  0.2971 -1.6364
 5979TIP3   OH239427   3.348   6.699  17.029 -0.3336  0.1269  0.4048
 5979TIP3    H139428   3.376   6.756  16.958 -3.0591  0.5486 -0.3974
 5979TIP3    H239429   3.396   6.617  17.015  0.7379  0.9227 -0.6514
 5980TIP3   OH239430   6.463   4.638   2.986 -0.5897  0.1276  0.5203
 5980TIP3    H139431   6.520   4.667   3.057  0.9328  0.1246 -0.6691
 5980TIP3    H239432   6.461   4.542   2.995  0.5976  0.0263 -0.1564
 5981TIP3   OH239433   2.103   2.808  14.777  0.3665  0.0659 -0.0601
 5981TIP3    H139434   2.194   2.839  14.771  0.7253 -1.3609 -3.5093
 5981TIP3    H239435   2.051   2.878  14.738  0.4955 -0.8431 -1.9488
 5982TIP3   OH239436   5.682   2.214  16.329 -0.4025 -0.0408 -0.0073
 5982TIP3    H139437   5.679   2.263  16.247 -0.0875 -0.4970 -0.2925
 5982TIP3    H239438   5.596   2.173  16.336 -0.6227  0.4395  0.1676
 5983TIP3   OH239439   5.841   6.399   0.270 -0.0129  0.2605 -0.1030
 5983TIP3    H139440   5.896   6.323   0.253  0.0314 -0.1386  1.7539
 5983TIP3    H239441   5.756   6.375   0.234  0.4505  0.0563 -1.1094
 5984TIP3   OH239442   0.476   4.009  10.571 -0.0575 -0.2142 -0.3962
 5984TIP3    H139443   0.416   4.077  10.601 -0.5897 -0.1203 -1.6611
 5984TIP3    H239444   0.454   3.933  10.625 -1.9479 -0.4566 -1.4780
 5985TIP3   OH239445   1.652   0.309   4.102  0.0373 -0.0136 -0.4523
 5985TIP3    H139446   1.571   0.278   4.142 -0.0171 -0.0047 -0.5555
 5985TIP3    H239447   1.700   0.230   4.078  1.0269 -0.0560  1.5483
 5986TIP3   OH239448   3.131   6.727   3.311 -0.0466  0.6184 -0.9345
 5986TIP3    H139449   3.089   6.808   3.339 -2.2599 -0.9406  0.4118
 5986TIP3    H239450   3.148   6.680   3.392 -2.6514 -2.0961 -1.8796
 5987TIP3   OH239451   1.151   0.915  16.135  0.0221  0.6154  0.3641
 5987TIP3    H139452   1.139   0.946  16.225 -2.8846  2.5998 -0.6424
 5987TIP3    H239453   1.155   0.994  16.082 -1.1026 -0.5753 -1.5739
 5988TIP3   OH239454   6.687   1.330  14.854  0.1651 -0.4276 -0.5128
 5988TIP3    H139455   6.663   1.298  14.767  0.2774 -0.7245 -0.4352
 5988TIP3    H239456   6.767   1.380  14.841  0.8863 -1.5475 -0.3797
 5989TIP3   OH239457   3.640   2.666  11.061  0.4999  1.0256  0.2297
 5989TIP3    H139458   3.648   2.753  11.100 -0.3004  1.0633  0.3007
 5989TIP3    H239459   3.702   2.667  10.988 -0.5661  2.1555 -0.6661
 5990TIP3   OH239460   3.565   4.648  16.363 -1.0270 -0.4299  0.1167
 5990TIP3    H139461   3.631   4.673  16.299 -1.0973  0.4704  0.3818
 5990TIP3    H239462   3.611   4.594  16.427 -0.8610 -0.9707 -0.4652
 5991TIP3   OH239463   3.239   4.949  11.424 -0.1832  0.4643  0.3034
 5991TIP3    H139464   3.190   4.906  11.354  0.5550 -1.1769  0.7679
 5991TIP3    H239465   3.173   4.998  11.473 -0.8951  0.6247 -0.7890
 5992TIP3   OH239466   5.308   2.229  12.500 -0.4281  0.2715 -0.1782
 5992TIP3    H139467   5.254   2.153  12.481 -0.1638  0.6830 -2.7116
 5992TIP3    H239468   5.267   2.301  12.453  1.2624  0.9699 -0.6510
 5993TIP3   OH239469   5.395   3.304   0.571  0.3876 -0.2703 -0.1172
 5993TIP3    H139470   5.471   3.268   0.525  1.0398  2.2878 -1.1194
 5993TIP3    H239471   5.432   3.352   0.645 -0.2433  0.7652 -0.4573
 5994TIP3   OH239472   6.621   0.527  12.066  0.1412 -0.3667  0.4007
 5994TIP3    H139473   6.716   0.529  12.061  0.0835  0.4951 -0.3835
 5994TIP3    H239474   6.597   0.440  12.032  0.4943  0.5375 -2.2373
 5995TIP3   OH239475   1.420   3.141  11.840 -0.3057  0.2052 -0.3918
 5995TIP3    H139476   1.360   3.131  11.766  0.2699 -2.2204 -0.5697
 5995TIP3    H239477   1.408   3.061  11.891  3.1044 -0.5270 -0.6784
 5996TIP3   OH239478   4.250   4.966   0.221 -0.3999 -0.0415 -0.2547
 5996TIP3    H139479   4.222   4.876   0.204 -0.4260 -0.1149  0.1950
 5996TIP3    H239480   4.191   5.019   0.167 -0.1414 -0.3152 -0.8067
 5997TIP3   OH239481   5.607   1.112  15.751 -0.3675  0.0858  0.0554
 5997TIP3    H139482   5.577   1.172  15.683  0.6640  1.2949  0.6401
 5997TIP3    H239483   5.557   1.138  15.829  0.0845  0.1866  0.3113
 5998TIP3   OH239484   3.052   2.969   6.091 -0.2353 -0.6282  0.6538
 5998TIP3    H139485   3.082   3.059   6.079  1.4556 -1.3922 -1.2438
 5998TIP3    H239486   2.957   2.973   6.079 -0.3128  1.0696  1.7298
 5999TIP3   OH239487   3.219   0.150   1.208  0.1891  0.4248 -0.1041
 5999TIP3    H139488   3.165   0.209   1.155 -0.5044 -0.3053 -0.2356
 5999TIP3    H239489   3.228   0.072   1.153  0.6866  0.2261  0.2618
 6000TIP3   OH239490   3.967   2.094   5.298 -0.9844  0.0614  0.2661
 6000TIP3    H139491   4.013   2.026   5.348  1.2415  2.3005  1.3889
 6000TIP3    H239492   3.956   2.166   5.360  0.6288  2.4019 -2.0635
 6001TIP3   OH239493   3.242   5.973  15.929 -0.2549 -0.0805 -0.1722
 6001TIP3    H139494   3.238   6.066  15.909 -0.4665  0.1371  0.8541
 6001TIP3    H239495   3.311   5.966  15.995  0.4144 -0.7775 -0.9292
 6002TIP3   OH239496   3.950   6.715  16.183  0.1756 -0.1300  0.3206
 6002TIP3    H139497   3.942   6.627  16.146  0.9957 -0.5854  1.1920
 6002TIP3    H239498   3.910   6.772  16.118 -2.5476 -1.4013  0.8042
 6003TIP3   OH239499   2.085   3.249  15.578  0.3285  0.2272  0.0478
 6003TIP3    H139500   2.135   3.183  15.529  0.6525 -0.9228  1.8852
 6003TIP3    H239501   2.136   3.330  15.568  0.6701 -0.1108 -1.0543
 6004TIP3   OH239502   1.643   3.529  16.169 -0.0001 -0.7810  0.5917
 6004TIP3    H139503   1.674   3.446  16.133 -0.6072 -0.5764 -0.4168
 6004TIP3    H239504   1.580   3.561  16.105  3.2410  2.5243 -1.1158
 6005TIP3   OH239505   2.693   3.684  11.259  0.4952  0.3239  0.3788
 6005TIP3    H139506   2.788   3.673  11.261  0.2435 -3.5426 -2.5572
 6005TIP3    H239507   2.679   3.764  11.209  2.1779  1.9471  2.4276
 6006TIP3   OH239508   2.137   0.823   6.021  0.3052 -0.1401  0.2051
 6006TIP3    H139509   2.061   0.770   6.046 -0.0260  0.2349 -0.0136
 6006TIP3    H239510   2.190   0.828   6.101 -1.1827  1.8028  1.1075
 6007TIP3   OH239511   6.610   4.224  11.505  1.1652  0.3016 -0.0479
 6007TIP3    H139512   6.594   4.165  11.579  1.1455 -1.3672 -1.3407
 6007TIP3    H239513   6.590   4.311  11.538 -2.8820 -0.8156  0.7365
 6008TIP3   OH239514   1.964   6.702   0.580 -0.6062  0.2694 -0.5275
 6008TIP3    H139515   2.051   6.687   0.617  0.1719  1.0881 -2.0043
 6008TIP3    H239516   1.906   6.649   0.635  0.6007  0.9042  1.4273
 6009TIP3   OH239517   6.014   1.759   6.322 -0.4971 -0.3034 -0.1607
 6009TIP3    H139518   6.094   1.733   6.367  0.5558  2.0064 -0.6146
 6009TIP3    H239519   5.982   1.834   6.371 -0.8621  0.5133 -1.6186
 6010TIP3   OH239520   0.015   3.520   2.233  0.1063  0.2036 -0.2180
 6010TIP3    H139521  -0.056   3.584   2.242 -0.3486 -0.2693 -0.3659
 6010TIP3    H239522   0.095   3.569   2.250 -0.1432  1.0984 -1.6191
 6011TIP3   OH239523   3.763   2.438  12.998  0.1906 -0.6811 -0.2403
 6011TIP3    H139524   3.776   2.435  13.093 -0.4569  1.0348 -0.0722
 6011TIP3    H239525   3.831   2.382  12.962  0.5029 -1.2642  1.2434
 6012TIP3   OH239526   6.056   3.124  11.319  0.8692  0.6029 -0.0438
 6012TIP3    H139527   5.965   3.106  11.342  0.6677  1.7521  0.0639
 6012TIP3    H239528   6.052   3.187  11.247  1.5840  2.1233  1.2111
 6013TIP3   OH239529   0.673   0.351  12.804  0.4865  0.3224  0.7231
 6013TIP3    H139530   0.642   0.439  12.823  0.2607 -0.1025  2.3809
 6013TIP3    H239531   0.758   0.345  12.848  0.1352 -0.5395  1.3140
 6014TIP3   OH239532   4.024   6.121   0.887 -0.8363  0.2537 -0.3444
 6014TIP3    H139533   4.092   6.099   0.824 -1.7301 -1.2075 -0.8182
 6014TIP3    H239534   3.956   6.165   0.835 -0.1642  1.9763  0.1762
 6015TIP3   OH239535   3.282   4.149  14.050  0.0406  0.0429  0.5678
 6015TIP3    H139536   3.328   4.201  13.985  1.8018 -0.0205  1.7240
 6015TIP3    H239537   3.230   4.087  13.999  3.6327 -1.9783 -0.8215
 6016TIP3   OH239538   1.424   1.158   6.091 -0.0012  0.6188  0.2309
 6016TIP3    H139539   1.465   1.148   6.177 -2.4799 -0.6123  1.3314
 6016TIP3    H239540   1.448   1.079   6.044  0.4762  0.7913  0.1867
 6017TIP3   OH239541   3.521   4.701  12.809 -0.1610 -0.2356 -0.0924
 6017TIP3    H139542   3.437   4.679  12.769 -0.8444  1.6194  0.2494
 6017TIP3    H239543   3.586   4.658  12.754 -1.3343 -1.6587 -0.3836
 6018TIP3   OH239544   4.599   2.457  11.495  0.1251 -0.7993 -0.1232
 6018TIP3    H139545   4.687   2.466  11.532 -0.2782  0.8570  0.4684
 6018TIP3    H239546   4.541   2.453  11.571 -0.3831 -1.1720 -0.5247
 6019TIP3   OH239547   6.065   0.521  11.092 -0.0647 -0.1424 -0.5193
 6019TIP3    H139548   5.991   0.461  11.098  0.0359 -0.2227  0.0375
 6019TIP3    H239549   6.046   0.578  11.018 -1.3836  0.7732  0.4965
 6020TIP3   OH239550   5.515   1.167   3.400 -1.1653  0.4324  0.4635
 6020TIP3    H139551   5.438   1.144   3.347 -1.1361  0.4724  0.4039
 6020TIP3    H239552   5.575   1.208   3.338  0.4211 -2.8726 -0.2967
 6021TIP3   OH239553   6.242   0.553   5.212 -0.6876 -0.7039 -0.1440
 6021TIP3    H139554   6.293   0.476   5.238 -0.5119 -0.4570  0.2682
 6021TIP3    H239555   6.286   0.626   5.257  0.3846 -0.0740 -2.1424
 6022TIP3   OH239556   5.095   2.213   1.945 -0.6327  0.6532  0.3775
 6022TIP3    H139557   5.188   2.200   1.964 -0.4583  0.3023 -0.6765
 6022TIP3    H239558   5.065   2.128   1.913 -0.8493  1.2775 -1.1386
 6023TIP3   OH239559   4.166   3.323  11.390 -0.4176 -0.4566 -0.3786
 6023TIP3    H139560   4.223   3.258  11.349 -0.9150  0.4001 -2.5258
 6023TIP3    H239561   4.090   3.273  11.421 -0.4582 -1.0130 -1.3617
 6024TIP3   OH239562   0.562   6.793  11.743  0.1568  0.6971 -0.1375
 6024TIP3    H139563   0.468   6.784  11.730  0.1717 -0.0243  0.1979
 6024TIP3    H239564   0.578   6.887  11.742 -0.5198  0.8148 -0.5171
 6025TIP3   OH239565   5.138   1.257  13.069  0.1383 -0.3172  0.3017
 6025TIP3    H139566   5.195   1.324  13.106  0.8311  0.5443 -2.2150
 6025TIP3    H239567   5.067   1.306  13.028  0.9713 -1.0467 -2.0853
 6026TIP3   OH239568   4.220   2.842  15.858 -0.0022 -0.7929 -0.0674
 6026TIP3    H139569   4.136   2.826  15.814  0.7795 -0.5931 -1.6743
 6026TIP3    H239570   4.261   2.756  15.863 -0.3761 -0.9229  0.9006
 6027TIP3   OH239571   1.290   4.471  10.948 -0.5584 -0.0118 -0.1844
 6027TIP3    H139572   1.244   4.388  10.960 -1.6218  0.7353  1.0826
 6027TIP3    H239573   1.239   4.534  11.000  0.3930  1.3678 -0.8971
 6028TIP3   OH239574   3.620   1.311   6.241  0.1461 -0.2111 -0.2673
 6028TIP3    H139575   3.691   1.248   6.259 -0.3337 -0.6846 -0.0067
 6028TIP3    H239576   3.543   1.272   6.283  0.1017  1.1570  0.9549
 6029TIP3   OH239577   6.675   1.655   0.499 -0.1370 -0.1253  0.3220
 6029TIP3    H139578   6.735   1.605   0.554 -0.4175 -0.3667  0.4073
 6029TIP3    H239579   6.712   1.743   0.498  0.3702 -0.3353  0.1534
 6030TIP3   OH239580   4.323   3.023  12.494 -0.2553 -0.6709 -0.4148
 6030TIP3    H139581   4.334   2.965  12.419  0.0482  0.2479 -1.0861
 6030TIP3    H239582   4.395   3.085  12.488  0.0905 -0.9124  0.9450
 6031TIP3   OH239583   1.404   4.647  17.273 -0.0380 -0.5465 -0.0347
 6031TIP3    H139584   1.350   4.715  17.233  0.4018 -0.1389  0.0673
 6031TIP3    H239585   1.489   4.654  17.230  0.1021 -0.8305  0.1850
 6032TIP3   OH239586   4.163   1.910  10.831 -0.1587  0.3567 -0.2234
 6032TIP3    H139587   4.121   1.826  10.814 -1.4051  0.7114  0.9645
 6032TIP3    H239588   4.257   1.890  10.832 -0.4674 -1.1634  0.7287
 6033TIP3   OH239589   5.509   3.161  13.487  0.1224  0.4813  0.2083
 6033TIP3    H139590   5.604   3.148  13.488 -0.2282 -2.5897 -0.8265
 6033TIP3    H239591   5.488   3.181  13.395 -0.3426  0.1056  0.2296
 6034TIP3   OH239592   4.535   3.079  10.707 -0.9299 -0.4167 -0.6078
 6034TIP3    H139593   4.605   3.144  10.712 -1.2050 -0.0833 -1.0595
 6034TIP3    H239594   4.571   3.010  10.651 -0.1179 -1.3150  0.9902
 6035TIP3   OH239595   6.405   1.260  14.925  0.2539  0.9193  0.1594
 6035TIP3    H139596   6.500   1.265  14.931  0.2431  1.7077 -0.1812
 6035TIP3    H239597   6.383   1.320  14.854 -0.6577  2.3868  1.6408
 6036TIP3   OH239598   3.555   4.311   0.504  0.1532  0.4072 -0.5381
 6036TIP3    H139599   3.531   4.293   0.413 -1.6288  0.7961 -0.1506
 6036TIP3    H239600   3.587   4.402   0.501 -1.2940  0.9337 -0.5334
 6037TIP3   OH239601   3.310   6.041  16.632 -0.7120  0.1482 -0.1445
 6037TIP3    H139602   3.313   6.110  16.566  0.5588  1.1544  0.9379
 6037TIP3    H239603   3.376   5.978  16.604  0.6586  1.1496  0.7518
 6038TIP3   OH239604   1.941   0.196  16.220 -0.7073 -0.2259  0.5600
 6038TIP3    H139605   2.005   0.224  16.286  0.1444  0.2725 -0.4647
 6038TIP3    H239606   1.856   0.220  16.257 -0.1728  0.9100  1.0676
 6039TIP3   OH239607   0.529   3.462   4.887  0.3771  0.0889 -0.0650
 6039TIP3    H139608   0.511   3.369   4.877 -0.3713  0.0419  1.4931
 6039TIP3    H239609   0.475   3.505   4.821 -2.7420 -0.3000  2.1284
 6040TIP3   OH239610   3.249   2.102   0.188  0.1907 -0.2245  0.4075
 6040TIP3    H139611   3.153   2.101   0.189  0.1717  0.7819  1.3857
 6040TIP3    H239612   3.273   2.046   0.114 -1.1656  0.1349 -0.3299
 6041TIP3   OH239613   2.958   3.833  14.590  0.8395 -0.1641  0.1339
 6041TIP3    H139614   2.867   3.860  14.584  1.3112  1.2208 -1.4248
 6041TIP3    H239615   2.977   3.794  14.504  1.9033  0.2136  0.1901
 6042TIP3   OH239616   1.831   6.486  14.517 -0.1370 -0.1378  0.4191
 6042TIP3    H139617   1.797   6.397  14.528  1.2585 -0.6641  0.5906
 6042TIP3    H239618   1.780   6.539  14.579 -0.1104 -1.0473  1.2218
 6043TIP3   OH239619   6.751   1.735   5.784 -0.0150 -0.2352 -0.1569
 6043TIP3    H139620   6.661   1.720   5.755 -0.4486  0.5106  0.7494
 6043TIP3    H239621   6.782   1.806   5.729 -0.5501  0.6118  0.6128
 6044TIP3   OH239622   6.791   4.570  13.226  0.4590 -0.2399 -0.2662
 6044TIP3    H139623   6.792   4.485  13.181  1.3509  0.0568 -0.8178
 6044TIP3    H239624   6.698   4.595  13.229  0.1214 -1.5553  0.5254
 6045TIP3   OH239625   5.013   0.221   2.257  0.3544 -0.0877  0.1252
 6045TIP3    H139626   4.983   0.298   2.306 -0.4762 -1.2396  1.4746
 6045TIP3    H239627   5.004   0.246   2.165  0.2656  1.4887  0.5462
 6046TIP3   OH239628   1.631   5.042  14.159  0.1228 -0.1556  0.0671
 6046TIP3    H139629   1.660   4.989  14.085  1.8397  1.0058 -0.1344
 6046TIP3    H239630   1.711   5.058  14.209 -0.5038  1.5068  0.5655
 6047TIP3   OH239631   2.476   5.912  14.721 -0.1328  0.4942 -0.0788
 6047TIP3    H139632   2.565   5.879  14.710 -0.2971 -0.6429  1.7318
 6047TIP3    H239633   2.471   5.988  14.663  1.6488 -0.0992 -1.0541
 6048TIP3   OH239634   2.999   5.163   2.782  0.0009  0.5126 -0.1987
 6048TIP3    H139635   2.980   5.194   2.871  2.2567  1.0165  0.1409
 6048TIP3    H239636   3.004   5.243   2.730 -2.9137  0.1313 -1.1528
 6049TIP3   OH239637   0.775   3.668   6.284 -0.3482 -1.2216  0.6143
 6049TIP3    H139638   0.777   3.727   6.360 -1.8553  1.5582 -1.4161
 6049TIP3    H239639   0.860   3.680   6.242 -1.0045  0.2976 -0.3265
 6050TIP3   OH239640   2.212   1.728   5.807 -0.6348 -0.0590  0.5403
 6050TIP3    H139641   2.208   1.648   5.754 -1.5698  0.2421  0.1456
 6050TIP3    H239642   2.163   1.706   5.887  0.1309 -0.2637  0.9662
 6051TIP3   OH239643   0.608   3.627  16.918  0.3691 -0.1983  0.4327
 6051TIP3    H139644   0.526   3.643  16.870  0.3224  0.4384  0.7191
 6051TIP3    H239645   0.657   3.708  16.908  0.5982 -0.2692  0.9913
 6052TIP3   OH239646   1.534   5.314  14.413 -0.1228  0.5665  0.1634
 6052TIP3    H139647   1.550   5.408  14.424  0.6855  0.3441  0.9751
 6052TIP3    H239648   1.468   5.293  14.479  0.6788  0.3088  0.8918
 6053TIP3   OH239649   0.956   4.155   0.507 -0.2424 -0.1703  0.4690
 6053TIP3    H139650   1.033   4.212   0.515 -0.4731  0.3529 -0.8906
 6053TIP3    H239651   0.972   4.084   0.570  2.9122 -1.8340 -2.0412
 6054TIP3   OH239652   5.120   4.210   1.944 -0.6273 -0.2462 -0.1228
 6054TIP3    H139653   5.114   4.175   2.033  1.9317 -0.0648  0.1710
 6054TIP3    H239654   5.182   4.152   1.899 -1.5193 -0.0571 -1.6443
 6055TIP3   OH239655   6.118   5.759   4.067  0.2527 -0.0337 -0.1330
 6055TIP3    H139656   6.048   5.714   4.018 -1.0237 -1.1201  2.5767
 6055TIP3    H239657   6.191   5.697   4.067  0.5702  0.3414 -1.4268
 6056TIP3   OH239658   4.236   1.787   1.264 -0.5501 -0.0612  0.2721
 6056TIP3    H139659   4.275   1.839   1.335 -0.1505  0.1900 -0.1278
 6056TIP3    H239660   4.154   1.832   1.244  0.6255  1.4543 -1.2673
 6057TIP3   OH239661   6.756   5.740   0.997  0.2816  0.0741 -0.0312
 6057TIP3    H139662   6.775   5.719   1.089  3.2053  0.7430 -0.4397
 6057TIP3    H239663   6.721   5.829   1.000 -1.7599 -0.6982  0.5978
 6058TIP3   OH239664   0.758   0.981  12.988  0.4586 -0.2153 -0.1957
 6058TIP3    H139665   0.667   0.978  13.020  1.2070  2.8516  2.4573
 6058TIP3    H239666   0.750   1.009  12.897 -1.2350  2.2481  0.6388
 6059TIP3   OH239667   2.480   4.026  14.421  0.0886 -0.2273 -0.1964
 6059TIP3    H139668   2.466   4.085  14.347  1.7151  0.5359  0.0960
 6059TIP3    H239669   2.573   4.006  14.419 -0.0137 -0.8875  1.1365
 6060TIP3   OH239670   0.053   0.879   1.315  0.5723  0.4211 -0.1316
 6060TIP3    H139671   0.025   0.956   1.364 -0.0262  1.0956 -1.4965
 6060TIP3    H239672   0.065   0.811   1.381 -0.2257  1.3029  0.9338
 6061TIP3   OH239673   4.588   4.939   2.785  0.1006  0.1728 -0.3651
 6061TIP3    H139674   4.608   5.028   2.758 -1.1453  0.5815  0.0265
 6061TIP3    H239675   4.659   4.886   2.748  0.8130  1.3085 -0.6511
 6062TIP3   OH239676   4.030   0.525  15.132 -0.6389 -0.2538 -0.0968
 6062TIP3    H139677   4.095   0.589  15.105  0.8870 -1.9566 -0.5630
 6062TIP3    H239678   3.954   0.577  15.160  0.6153  1.7238 -0.3227
 6063TIP3   OH239679   2.798   6.338  11.730  0.5746  0.7506 -0.1645
 6063TIP3    H139680   2.763   6.388  11.804 -1.2106 -0.3851 -0.2064
 6063TIP3    H239681   2.720   6.313  11.679  1.3741 -2.2987  0.0167
 6064TIP3   OH239682   3.905   5.533   2.787  0.6017  0.0825 -0.0717
 6064TIP3    H139683   3.826   5.491   2.822  0.5988 -0.3990 -0.6568
 6064TIP3    H239684   3.908   5.507   2.695  0.4380  1.6143 -0.5299
 6065TIP3   OH239685   3.912   5.251  12.123  0.4038 -0.4653 -0.1780
 6065TIP3    H139686   3.833   5.304  12.111  0.2121 -1.1283 -1.9345
 6065TIP3    H239687   3.982   5.301  12.080  0.7600 -0.3366  0.5448
 6066TIP3   OH239688   3.577   0.291   5.561  0.0438  0.3890  0.0246
 6066TIP3    H139689   3.672   0.298   5.563  0.1236 -0.8095  1.5074
 6066TIP3    H239690   3.552   0.278   5.652 -1.4127 -0.8794 -0.5314
 6067TIP3   OH239691   0.932   6.726   1.985 -0.4161 -0.1316 -0.5246
 6067TIP3    H139692   0.975   6.660   1.930  1.5177 -0.2546  1.0822
 6067TIP3    H239693   0.956   6.810   1.945  0.1942 -0.2535 -0.4127
 6068TIP3   OH239694   6.639   6.664  16.871  0.5262  0.1364  0.2252
 6068TIP3    H139695   6.668   6.660  16.780  0.0084 -0.9660  0.1005
 6068TIP3    H239696   6.549   6.632  16.870  0.2478  0.8665  1.0165
 6069TIP3   OH239697   1.357   4.784   1.706 -0.1130  0.3751  0.1341
 6069TIP3    H139698   1.329   4.699   1.740  0.7089 -1.1765 -2.8428
 6069TIP3    H239699   1.445   4.797   1.740  0.2821 -0.6173 -0.5200
 6070TIP3   OH239700   5.561   3.517   2.635 -0.2038 -0.3506 -0.1964
 6070TIP3    H139701   5.511   3.440   2.608  1.6883 -1.9612  0.7336
 6070TIP3    H239702   5.552   3.519   2.731 -1.9773  1.8294 -0.3880
 6071TIP3   OH239703   3.838   0.281   0.761 -0.7160 -0.3427 -0.2379
 6071TIP3    H139704   3.926   0.251   0.784  0.1980  1.8084 -0.7696
 6071TIP3    H239705   3.825   0.252   0.670 -0.6008 -0.7632 -0.1185
 6072TIP3   OH239706   2.346   1.704  12.063  0.1107 -0.6851  0.0789
 6072TIP3    H139707   2.318   1.629  12.116 -0.1987 -1.1239 -0.6952
 6072TIP3    H239708   2.374   1.665  11.980 -0.2215  0.0753 -0.3966
 6073TIP3   OH239709   1.387   0.677  14.544 -0.4551  0.2007 -0.3271
 6073TIP3    H139710   1.316   0.695  14.605  1.1046 -1.6449  2.1422
 6073TIP3    H239711   1.399   0.582  14.548  2.2166  0.4706 -0.6020
 6074TIP3   OH239712   4.324   3.083  11.323  0.5126  0.0914 -0.1000
 6074TIP3    H139713   4.378   3.025  11.269  1.1405  0.3217  0.2735
 6074TIP3    H239714   4.374   3.094  11.404 -0.3439 -0.1147  0.4655
 6075TIP3   OH239715   2.123   4.493  11.248 -0.0556 -0.4421 -0.4211
 6075TIP3    H139716   2.120   4.573  11.197 -3.0062 -0.1908  0.0105
 6075TIP3    H239717   2.148   4.425  11.186  0.3213  0.4770 -1.2799
 6076TIP3   OH239718   4.576   4.940  13.612 -0.4091 -0.1019 -0.3222
 6076TIP3    H139719   4.561   4.879  13.684  2.8172 -0.2363  0.3412
 6076TIP3    H239720   4.553   4.891  13.533 -0.0378 -1.3857  0.3510
 6077TIP3   OH239721   0.363   1.146  14.285 -0.8141 -0.7000  0.3033
 6077TIP3    H139722   0.435   1.185  14.332 -1.5763 -0.2767  1.1333
 6077TIP3    H239723   0.390   1.147  14.193  1.7816 -3.8984  0.9629
 6078TIP3   OH239724   0.630   4.216  11.616  0.5329 -0.8619 -0.9535
 6078TIP3    H139725   0.557   4.229  11.677  2.7434 -1.3071  1.8867
 6078TIP3    H239726   0.672   4.302  11.610  0.8603 -1.0304 -1.1158
 6079TIP3   OH239727   5.325   2.669   2.244 -0.4590 -0.4321  0.0552
 6079TIP3    H139728   5.262   2.661   2.172  0.1089 -1.3697 -0.3416
 6079TIP3    H239729   5.399   2.614   2.218 -0.1782 -0.6493  1.2858
 6080TIP3   OH239730   1.657   5.054   6.078  0.8893 -0.0283 -0.1549
 6080TIP3    H139731   1.593   5.115   6.042 -0.6256 -0.6938  1.3646
 6080TIP3    H239732   1.628   5.039   6.168  1.3254 -2.8434 -0.4534
 6081TIP3   OH239733   5.637   0.916  15.985 -0.2415 -0.1611  0.2557
 6081TIP3    H139734   5.640   0.948  15.894 -0.6250  0.7156  0.5460
 6081TIP3    H239735   5.729   0.911  16.011 -0.1957  1.5719  0.4943
 6082TIP3   OH239736   5.284   5.976  13.809 -0.3448 -0.1861  0.1106
 6082TIP3    H139737   5.287   5.907  13.743  0.1921 -0.2140  0.1622
 6082TIP3    H239738   5.298   6.057  13.761  1.1811 -0.3045  0.3355
 6083TIP3   OH239739   2.944   2.941   4.006 -0.3504 -0.4357 -0.1163
 6083TIP3    H139740   2.970   2.849   4.005  3.8736  0.6756 -0.5201
 6083TIP3    H239741   2.945   2.968   3.914 -1.5355  0.0552  0.0003
 6084TIP3   OH239742   5.381   3.812  12.912  0.5860  0.3608  0.3430
 6084TIP3    H139743   5.443   3.871  12.868 -1.1327  1.8303 -0.1624
 6084TIP3    H239744   5.382   3.841  13.004  0.3944  0.6099  0.2669
 6085TIP3   OH239745   6.744   4.472  10.758 -0.0048  0.1732 -0.0443
 6085TIP3    H139746   6.691   4.550  10.738 -0.3809 -0.4646 -1.6099
 6085TIP3    H239747   6.683   4.412  10.801 -0.3294 -0.2048 -1.0278
 6086TIP3   OH239748   3.554   3.986   4.027 -0.2400 -0.2887  0.5365
 6086TIP3    H139749   3.577   4.079   4.028  0.5604 -0.4892  0.9486
 6086TIP3    H239750   3.553   3.962   3.935 -1.2253  0.3188  0.3804
 6087TIP3   OH239751   3.911   5.031   2.730 -0.3652 -0.0808 -0.5276
 6087TIP3    H139752   3.909   4.935   2.739 -1.8707 -0.1997 -1.8640
 6087TIP3    H239753   3.921   5.046   2.636  1.1248  1.0963 -0.1916
 6088TIP3   OH239754   0.752   4.636   0.586 -0.1019  0.3626  0.0930
 6088TIP3    H139755   0.697   4.693   0.639  1.1252  1.4009  0.2816
 6088TIP3    H239756   0.709   4.551   0.589 -1.8291  1.2125  0.0168
 6089TIP3   OH239757   6.150   5.369  16.623  0.4705 -0.4340 -0.2046
 6089TIP3    H139758   6.160   5.299  16.688  2.1284 -0.3728 -0.3866
 6089TIP3    H239759   6.239   5.396  16.602 -0.1484  1.8322 -0.0607
 6090TIP3   OH239760   4.201   0.104   5.349 -0.4837  0.0017  0.2877
 6090TIP3    H139761   4.129   0.062   5.302  0.9563  0.6962 -2.6543
 6090TIP3    H239762   4.249   0.030   5.388 -0.9574 -0.6868 -0.4076
 6091TIP3   OH239763   4.006   4.502  17.271  0.1744 -0.2304 -0.1253
 6091TIP3    H139764   3.979   4.435  17.335 -1.4500  1.8194  1.4403
 6091TIP3    H239765   3.938   4.569  17.278  0.9369  0.8569 -2.7908
 6092TIP3   OH239766   2.640   0.449  13.800  0.3515 -0.2720 -0.0237
 6092TIP3    H139767   2.726   0.428  13.837 -0.1166 -0.6711  0.8484
 6092TIP3    H239768   2.581   0.449  13.875 -0.3043  0.6279 -0.5354
 6093TIP3   OH239769   0.846   4.259  11.112  0.3317 -0.1748 -0.1331
 6093TIP3    H139770   0.849   4.261  11.207 -1.1524 -2.0552 -0.0210
 6093TIP3    H239771   0.796   4.337  11.087 -0.3391 -0.3404  0.6862
 6094TIP3   OH239772   6.633   2.834  11.680 -0.3689 -0.1662 -0.0117
 6094TIP3    H139773   6.550   2.865  11.717  0.5747  1.4702  0.7779
 6094TIP3    H239774   6.606   2.776  11.608 -2.2009  1.0160 -0.3275
 6095TIP3   OH239775   0.091   6.016   6.494  0.6195  0.0375  0.2736
 6095TIP3    H139776   0.031   5.952   6.457 -1.5426  1.1895  1.7232
 6095TIP3    H239777   0.118   6.070   6.419  0.6113 -1.0855 -0.5403
 6096TIP3   OH239778   1.662   4.304   1.864 -0.1649  0.0489 -0.2573
 6096TIP3    H139779   1.691   4.319   1.954  1.4162 -0.3084 -0.6780
 6096TIP3    H239780   1.684   4.384   1.818 -1.5259  0.4605 -0.2099
 6097TIP3   OH239781   4.292   2.347   2.321  0.0297  0.4973  0.7123
 6097TIP3    H139782   4.298   2.432   2.365  0.8211  0.8729 -0.1190
 6097TIP3    H239783   4.363   2.295   2.359 -1.0814 -0.1570  1.9653
 6098TIP3   OH239784   0.906   1.944   0.632  0.4573 -0.8267  0.2635
 6098TIP3    H139785   0.888   1.998   0.709  0.9765  0.6196 -0.5972
 6098TIP3    H239786   0.827   1.893   0.619  0.1471 -0.6437  1.4166
 6099TIP3   OH239787   4.872   6.491  12.474  0.0805 -0.0731  0.0504
 6099TIP3    H139788   4.944   6.533  12.521  0.0825  1.2419 -1.1033
 6099TIP3    H239789   4.877   6.526  12.385 -2.2648  0.4511  0.0700
 6100TIP3   OH239790   4.161   5.550  16.169 -0.0369 -0.0517  0.1104
 6100TIP3    H139791   4.152   5.601  16.250 -0.8368  1.6720 -1.0328
 6100TIP3    H239792   4.200   5.467  16.197 -3.7188 -0.9902  2.8131
 6101TIP3   OH239793   3.349   4.990   1.996  0.5186  0.2183  0.2943
 6101TIP3    H139794   3.415   4.958   2.056 -0.3030 -0.3414  0.9166
 6101TIP3    H239795   3.335   5.081   2.021 -0.0806 -0.1155  1.1934
 6102TIP3   OH239796   2.646   5.928   2.568 -0.5051  0.7271  0.9415
 6102TIP3    H139797   2.723   5.984   2.577  0.6478 -0.3385 -1.6470
 6102TIP3    H239798   2.587   5.976   2.511  0.9011 -1.0041 -2.0934
 6103TIP3   OH239799   2.203   2.850   0.187  0.5805  0.5315 -0.2823
 6103TIP3    H139800   2.163   2.766   0.164 -0.2719  0.2764  1.9922
 6103TIP3    H239801   2.135   2.914   0.167  0.6652  0.5172 -0.6063
 6104TIP3   OH239802   1.755   1.931   5.401 -0.4067 -0.0847 -0.2245
 6104TIP3    H139803   1.824   1.998   5.400  1.3308 -1.5537  4.6939
 6104TIP3    H239804   1.683   1.971   5.449 -0.8882 -0.3675 -0.7137
 6105TIP3   OH239805   5.732   2.796  16.989 -0.5183  0.5052  0.0089
 6105TIP3    H139806   5.709   2.813  17.080  0.9054  1.5807  0.1934
 6105TIP3    H239807   5.669   2.730  16.960 -0.9889  0.1676  1.7552
 6106TIP3   OH239808   4.700   0.653   1.439  0.1567  0.1228  0.4670
 6106TIP3    H139809   4.614   0.619   1.415  0.1933 -0.1080  0.6585
 6106TIP3    H239810   4.762   0.600   1.390  0.1549  0.9227 -0.4197
 6107TIP3   OH239811   5.393   4.199  14.271 -0.1731 -0.3315 -0.0259
 6107TIP3    H139812   5.334   4.274  14.259  0.1886  0.1175  0.9169
 6107TIP3    H239813   5.372   4.167  14.358  0.5185 -0.5766  0.0496
 6108TIP3   OH239814   3.355   3.442  10.558  0.1125  0.6302 -0.1856
 6108TIP3    H139815   3.312   3.436  10.473  0.0695 -0.5051 -0.0985
 6108TIP3    H239816   3.347   3.354  10.594  0.9432  0.8720  0.5917
 6109TIP3   OH239817   3.682   6.185   0.915  0.1144 -0.2014 -0.4801
 6109TIP3    H139818   3.681   6.278   0.893 -1.8885 -0.0423  0.1275
 6109TIP3    H239819   3.710   6.183   1.007  0.0196 -0.1913 -0.4511
 6110TIP3   OH239820   5.827   4.298  16.731 -0.6632  0.5448  0.1166
 6110TIP3    H139821   5.918   4.277  16.752 -1.1852 -1.4706  0.4784
 6110TIP3    H239822   5.822   4.393  16.737  1.3254  0.6373  0.4987
 6111TIP3   OH239823   1.306   4.692   1.984 -0.1581  0.2990  0.7583
 6111TIP3    H139824   1.275   4.780   2.006 -0.2121 -0.1017  2.3760
 6111TIP3    H239825   1.306   4.645   2.068 -1.2313 -1.5880 -0.2617
 6112TIP3   OH239826   6.157   4.278  12.957 -0.1142 -0.1420 -0.2144
 6112TIP3    H139827   6.229   4.228  12.918  0.0400  1.3661 -1.9453
 6112TIP3    H239828   6.079   4.247  12.910 -0.1110  0.6993 -0.7876
 6113TIP3   OH239829   3.598   6.350   5.479 -0.7384 -0.1371 -0.3257
 6113TIP3    H139830   3.581   6.444   5.478 -0.9879 -0.1551  1.6708
 6113TIP3    H239831   3.624   6.331   5.569  1.7001 -1.5631 -1.2844
 6114TIP3   OH239832   3.715   6.118   5.402  0.0539 -0.5357  0.7755
 6114TIP3    H139833   3.680   6.206   5.415 -0.0683 -0.6799  1.4720
 6114TIP3    H239834   3.754   6.119   5.315  0.4859  0.3504  0.9810
 6115TIP3   OH239835   1.630   3.287   0.880  0.6674  0.0989 -0.3956
 6115TIP3    H139836   1.666   3.243   0.803  3.2308  0.0802  0.7832
 6115TIP3    H239837   1.631   3.220   0.948 -1.6714  0.0919 -0.3116
 6116TIP3   OH239838   6.705   6.224  11.011  0.3530  0.3752  0.7403
 6116TIP3    H139839   6.716   6.129  11.000  0.5449  0.2163  2.1830
 6116TIP3    H239840   6.611   6.236  11.023  0.3018  0.3870  0.3052
 6117TIP3   OH239841   6.206   6.303   6.167  0.3666  0.5443 -0.1084
 6117TIP3    H139842   6.198   6.236   6.234  1.1166  0.3624 -0.1934
 6117TIP3    H239843   6.182   6.384   6.211  0.5913  0.3853  0.3100
 6118TIP3   OH239844   1.086   5.468  15.417  0.1752  0.3106 -0.8950
 6118TIP3    H139845   1.163   5.422  15.383 -0.2787 -0.7406 -0.5250
 6118TIP3    H239846   1.012   5.431  15.369 -0.3043 -0.0617  0.1117
 6119TIP3   OH239847   0.333   1.708  17.147 -0.3426 -0.5512  0.4184
 6119TIP3    H139848   0.296   1.706  17.059 -1.7898 -2.1244  1.0365
 6119TIP3    H239849   0.275   1.766  17.196  0.1259 -0.1354  0.4832
 6120TIP3   OH239850   1.436   0.157  14.748 -0.0029 -0.6842  0.0415
 6120TIP3    H139851   1.395   0.140  14.664 -3.1644  0.0180  1.3544
 6120TIP3    H239852   1.455   0.070  14.784  1.1994 -0.9857 -1.3028
 6121TIP3   OH239853   5.886   4.349  12.053 -0.1994 -0.2279  0.1109
 6121TIP3    H139854   5.831   4.424  12.033  0.0963 -0.1174 -0.3134
 6121TIP3    H239855   5.931   4.372  12.134 -1.3621 -0.6472  0.8861
 6122TIP3   OH239856   2.507   3.437   6.549 -0.2199  0.5313 -0.0308
 6122TIP3    H139857   2.561   3.385   6.490  0.0679 -0.0745  0.7678
 6122TIP3    H239858   2.422   3.394   6.548 -0.4894  1.0633 -0.7206
 6123TIP3   OH239859   3.955   5.428   2.077  0.2290  0.1542  0.5211
 6123TIP3    H139860   4.039   5.391   2.051  0.6636  1.3836  0.1343
 6123TIP3    H239861   3.891   5.359   2.057  1.1732 -0.9350  1.1825
 6124TIP3   OH239862   2.029   3.039  11.213  0.1860  0.4828  0.0450
 6124TIP3    H139863   2.123   3.023  11.208  0.3227  1.3757 -0.4179
 6124TIP3    H239864   1.996   2.973  11.274  1.1593  0.3692  0.4570
 6125TIP3   OH239865   6.073   3.896   1.239  0.4684 -0.4717  0.4476
 6125TIP3    H139866   6.003   3.843   1.278  0.2444  0.4658  1.3286
 6125TIP3    H239867   6.078   3.865   1.148 -0.9129 -0.7315  0.4500
 6126TIP3   OH239868   0.197   1.534   3.383  0.6556 -0.5253 -0.4628
 6126TIP3    H139869   0.280   1.563   3.420 -0.4191  1.2018  0.6821
 6126TIP3    H239870   0.161   1.612   3.340  0.4127 -1.6893 -2.4614
 6127TIP3   OH239871   1.890   4.500  14.554  0.7809  0.0509 -0.9862
 6127TIP3    H139872   1.830   4.425  14.557 -0.0416  0.7255 -0.0898
 6127TIP3    H239873   1.976   4.462  14.570  0.6003 -0.9247 -2.2113
 6128TIP3   OH239874   5.131   1.152  15.775  0.0142 -0.3564 -0.2550
 6128TIP3    H139875   5.075   1.199  15.836 -1.1945 -0.2585 -1.4166
 6128TIP3    H239876   5.210   1.206  15.769 -0.1728  0.0129  0.6498
 6129TIP3   OH239877   1.602   4.698  10.746 -0.9541 -0.2490  0.3162
 6129TIP3    H139878   1.687   4.669  10.713 -0.4582  0.8563  0.6011
 6129TIP3    H239879   1.587   4.646  10.825 -0.9840 -1.1232 -0.2686
 6130TIP3   OH239880   1.520   0.383   5.390 -0.2857 -0.4502  0.5855
 6130TIP3    H139881   1.444   0.396   5.332  0.1618  2.2419  0.5496
 6130TIP3    H239882   1.530   0.467   5.435  1.9209 -1.1827  1.4939
 6131TIP3   OH239883   1.086   2.634   4.483 -0.3817 -0.3684 -0.6024
 6131TIP3    H139884   1.104   2.665   4.394  0.7573  0.6003 -0.0571
 6131TIP3    H239885   1.163   2.582   4.507 -0.3652 -0.0621  0.0465
 6132TIP3   OH239886   0.913   4.786  12.816 -0.0377 -0.0830  0.1389
 6132TIP3    H139887   0.937   4.829  12.899 -1.8345 -0.0631  0.6618
 6132TIP3    H239888   0.961   4.836  12.749 -1.7670  2.5153  0.7801
 6133TIP3   OH239889   2.783   4.989   2.688  0.5667 -0.1108  0.2382
 6133TIP3    H139890   2.833   5.069   2.704 -2.7967  1.7219  2.0933
 6133TIP3    H239891   2.719   5.012   2.621 -1.5409 -0.6764  1.9814
 6134TIP3   OH239892   4.840   0.409   2.654  0.5601 -0.1501 -1.1418
 6134TIP3    H139893   4.887   0.456   2.723  1.1039 -3.0192  0.5207
 6134TIP3    H239894   4.773   0.471   2.624  0.9190  1.4936  1.2952
 6135TIP3   OH239895   4.698   2.272  16.128 -0.3823  0.0899 -0.1481
 6135TIP3    H139896   4.779   2.236  16.163 -0.6889  0.0187  0.4946
 6135TIP3    H239897   4.685   2.226  16.045  0.4071  0.3454 -0.4188
 6136TIP3   OH239898   5.455   6.337  11.737  0.0454  0.4275  0.2014
 6136TIP3    H139899   5.500   6.264  11.781  0.7518 -0.7161 -2.3323
 6136TIP3    H239900   5.365   6.331  11.768  0.9830  1.0635  3.2342
 6137TIP3   OH239901   2.549   1.402   1.066  0.2198  0.1395 -0.0166
 6137TIP3    H139902   2.542   1.349   1.145 -2.1488  1.1966  0.5097
 6137TIP3    H239903   2.489   1.361   1.004  1.1653  0.0290 -0.8716
 6138TIP3   OH239904   1.328   4.456   3.836  0.0132  0.4323  0.5593
 6138TIP3    H139905   1.307   4.445   3.744 -3.0006 -0.2897  1.2581
 6138TIP3    H239906   1.369   4.374   3.863  1.6723  0.9672 -0.3205
 6139TIP3   OH239907   3.557   1.031  12.696  0.6188 -0.1585  0.3739
 6139TIP3    H139908   3.534   0.997  12.782  1.0729 -0.9541  0.1905
 6139TIP3    H239909   3.500   1.107  12.684 -1.4850 -1.7221  0.1875
 6140TIP3   OH239910   4.826   0.891   1.261  0.2720 -0.2483 -0.0094
 6140TIP3    H139911   4.864   0.944   1.191 -1.0470 -2.2843 -2.3573
 6140TIP3    H239912   4.901   0.866   1.315  1.0089  3.3676  0.7951
 6141TIP3   OH239913   4.275   5.949   5.216  0.0670  0.1794 -0.1026
 6141TIP3    H139914   4.346   5.955   5.152 -0.1962  0.1220 -0.4044
 6141TIP3    H239915   4.295   6.015   5.281  0.2186  0.3947 -0.3677
 6142TIP3   OH239916   0.625   2.184   5.161 -0.2295 -0.1353  0.2526
 6142TIP3    H139917   0.621   2.088   5.159  0.8753 -0.2378  1.9490
 6142TIP3    H239918   0.704   2.203   5.211  0.9631  1.6740 -2.2731
 6143TIP3   OH239919   0.052   1.506   1.301  0.0989 -0.1264  0.0367
 6143TIP3    H139920   0.012   1.560   1.233  0.4042 -1.3134 -1.1088
 6143TIP3    H239921   0.023   1.417   1.281  0.8807 -0.5900  0.9596
 6144TIP3   OH239922   5.486   2.102  15.779 -0.5319  0.2858 -0.1000
 6144TIP3    H139923   5.476   2.137  15.690 -2.8143 -1.6147 -0.6372
 6144TIP3    H239924   5.464   2.009  15.771  0.6730 -0.2351  2.1942
 6145TIP3   OH239925   1.511   1.099   2.249 -0.1285  0.2205  0.1018
 6145TIP3    H139926   1.433   1.105   2.193 -0.3510 -0.3275  0.3523
 6145TIP3    H239927   1.555   1.183   2.237 -1.3785  0.9911  0.8712
 6146TIP3   OH239928   0.544   2.588  15.438 -0.1456 -0.5034  0.3041
 6146TIP3    H139929   0.478   2.656  15.452  1.1240  0.4945  1.5591
 6146TIP3    H239930   0.494   2.507  15.432 -1.4823  0.2196  1.4234
 6147TIP3   OH239931   1.417   3.170   3.105 -0.5320  0.0512 -0.7342
 6147TIP3    H139932   1.435   3.079   3.082 -1.2158 -0.2188 -0.2307
 6147TIP3    H239933   1.375   3.164   3.191  0.9480  0.9446  0.0747
 6148TIP3   OH239934   1.691   0.862   4.552  0.6167 -0.1099  0.6252
 6148TIP3    H139935   1.775   0.895   4.522  0.4892 -0.6884 -0.3946
 6148TIP3    H239936   1.635   0.939   4.559  0.8271  0.1053 -0.0497
 6149TIP3   OH239937   2.530   2.867   1.105  0.5570 -0.0718  0.1664
 6149TIP3    H139938   2.566   2.919   1.177 -1.2402  0.2895  0.8139
 6149TIP3    H239939   2.444   2.905   1.088  1.0116 -0.0642 -2.2835
 6150TIP3   OH239940   3.768   5.875  16.328  0.9980  0.5766 -0.4628
 6150TIP3    H139941   3.777   5.942  16.260  1.3323 -0.3452 -1.3458
 6150TIP3    H239942   3.746   5.795  16.280 -0.4374  0.2711  0.6767
 6151TIP3   OH239943   1.008   2.422   3.591 -0.3240 -0.0306 -0.0271
 6151TIP3    H139944   1.022   2.517   3.580 -0.4200 -0.0019  0.1074
 6151TIP3    H239945   1.093   2.389   3.621 -0.1063 -0.0825 -0.6798
 6152TIP3   OH239946   3.323   3.842  15.416  0.5617  0.3942 -0.1452
 6152TIP3    H139947   3.232   3.865  15.396  0.6807  1.3752  0.4406
 6152TIP3    H239948   3.375   3.891  15.352  0.6310 -1.0959 -1.2646
 6153TIP3   OH239949   1.168   2.842  16.720 -0.4593 -0.3508 -0.3697
 6153TIP3    H139950   1.143   2.930  16.691 -0.6359 -0.4791 -0.6149
 6153TIP3    H239951   1.147   2.785  16.645  0.1882 -0.5229 -0.4223
 6154TIP3   OH239952   6.302   2.094  10.795 -0.5183  0.9880  0.3660
 6154TIP3    H139953   6.384   2.139  10.774 -0.3095  0.4856  0.0805
 6154TIP3    H239954   6.293   2.104  10.890 -0.3523  1.4208  0.3371
 6155TIP3   OH239955   5.772   6.810  13.361 -0.4812 -0.0085 -0.1133
 6155TIP3    H139956   5.856   6.855  13.367 -0.9215  1.2899 -2.8786
 6155TIP3    H239957   5.787   6.724  13.400  1.6128  0.8871  1.0945
 6156TIP3   OH239958   2.565   0.450  11.376  0.4848 -0.2433  0.4264
 6156TIP3    H139959   2.590   0.543  11.374  0.4833 -0.2547 -0.7236
 6156TIP3    H239960   2.546   0.432  11.468  0.1001  1.0046  0.6027
 6157TIP3   OH239961   6.368   4.941  11.666 -0.1934 -0.3973 -0.2293
 6157TIP3    H139962   6.356   4.995  11.744  0.5331 -0.0299 -0.3652
 6157TIP3    H239963   6.281   4.907  11.646 -0.3972 -0.3948  0.6706
 6158TIP3   OH239964   5.973   2.704  13.371 -0.0260  0.2556 -0.5889
 6158TIP3    H139965   6.043   2.752  13.326 -0.4190  1.8290  0.4180
 6158TIP3    H239966   6.007   2.691  13.460  0.0150 -1.2380 -0.8125
 6159TIP3   OH239967   0.871   4.963  12.582  0.0335  0.0878  0.1393
 6159TIP3    H139968   0.797   4.992  12.529  0.1281 -1.1782 -0.7058
 6159TIP3    H239969   0.945   4.962  12.521 -0.0705 -2.3731  0.0166
 6160TIP3   OH239970   1.512   3.208   5.820 -0.9647  0.0324 -0.0909
 6160TIP3    H139971   1.548   3.188   5.906 -0.8261  1.1379  0.1144
 6160TIP3    H239972   1.515   3.303   5.814 -5.3478  0.3263  0.6011
 6161TIP3   OH239973   1.083   3.924  11.549  0.2364 -0.6184  0.0490
 6161TIP3    H139974   1.031   3.946  11.626  1.3370 -0.3221  0.7247
 6161TIP3    H239975   1.131   4.005  11.528 -0.6362 -0.4653 -1.4207
 6162TIP3   OH239976   5.584   2.247  13.461 -0.2528  0.7245  0.5611
 6162TIP3    H139977   5.549   2.253  13.372 -0.1030 -1.6085  0.3279
 6162TIP3    H239978   5.609   2.337  13.482 -1.4346  1.5258 -1.2731
 6163TIP3   OH239979   3.077   0.668  16.743  0.3693 -0.0093 -0.1143
 6163TIP3    H139980   3.129   0.638  16.668  0.8919 -1.1481  0.6852
 6163TIP3    H239981   3.015   0.597  16.759 -1.7768  1.5444 -1.3475
 6164TIP3   OH239982   0.780   0.635   1.636 -0.5259  0.4993 -0.2416
 6164TIP3    H139983   0.706   0.682   1.598 -0.5658 -0.6298 -1.5763
 6164TIP3    H239984   0.785   0.668   1.726 -1.4746  1.9527 -0.7058
 6165TIP3   OH239985   6.328   2.091   2.539 -0.2532 -0.3116  0.6269
 6165TIP3    H139986   6.320   2.170   2.593  1.7326 -0.0422  0.5462
 6165TIP3    H239987   6.340   2.020   2.601 -0.5565 -0.3588  0.6343
 6166TIP3   OH239988   1.687   4.808   5.721 -0.6183 -0.5144 -0.1288
 6166TIP3    H139989   1.690   4.731   5.664 -1.0141 -1.5491  1.2333
 6166TIP3    H239990   1.600   4.807   5.759  0.1888 -0.7570  1.7594
 6167TIP3   OH239991   0.880   3.714   2.947  0.1943 -0.2670  0.4936
 6167TIP3    H139992   0.923   3.687   3.029 -0.2626  0.0618  0.8465
 6167TIP3    H239993   0.848   3.803   2.965 -0.0460 -0.2532  0.0100
 6168TIP3   OH239994   1.259   6.256   2.588 -0.1502  0.3857 -0.5409
 6168TIP3    H139995   1.330   6.312   2.558  0.9520 -0.5519  0.2700
 6168TIP3    H239996   1.303   6.178   2.621 -1.5816 -0.3444 -0.3349
 6169TIP3   OH239997   0.825   2.935  15.013  0.6806 -0.2030  0.6797
 6169TIP3    H139998   0.867   2.944  15.099  0.8259 -3.2122  0.9807
 6169TIP3    H239999   0.731   2.943  15.031  0.8129  1.0821  0.8203
 6170TIP3   OH240000   2.095   2.471  11.820  0.3636  0.1569  0.2700
 6170TIP3    H140001   2.110   2.536  11.889 -0.6303  2.1713 -1.3319
 6170TIP3    H240002   2.002   2.480  11.799  0.5790 -0.6175 -1.1093
 6171TIP3   OH240003   6.147   3.498  15.783 -0.4062  0.8249  0.1404
 6171TIP3    H140004   6.226   3.523  15.831  0.8979  0.6132 -1.8484
 6171TIP3    H240005   6.112   3.581  15.751 -2.0588  1.1218  2.5465
 6172TIP3   OH240006   5.736   5.824  16.123  0.3922  0.3596  0.1725
 6172TIP3    H140007   5.712   5.915  16.137 -0.8235  0.0988 -0.1257
 6172TIP3    H240008   5.821   5.814  16.167  1.1602  1.9478 -0.8876
 6173TIP3   OH240009   0.043   0.659  14.286 -0.2094 -0.0775 -0.1362
 6173TIP3    H140010   0.109   0.618  14.342 -1.0799 -1.9607 -0.4388
 6173TIP3    H240011   0.064   0.628  14.198 -0.4173  0.7715 -0.4876
 6174TIP3   OH240012   4.323   1.682   2.263  0.3292  0.2237  0.2964
 6174TIP3    H140013   4.403   1.710   2.308  1.3789  0.6902 -1.7888
 6174TIP3    H240014   4.348   1.604   2.215 -0.8166 -0.3615  0.6340
 6175TIP3   OH240015   5.415   1.485  11.065  0.0369 -0.0616  0.2066
 6175TIP3    H140016   5.496   1.487  11.014  0.4513  0.7484  0.8825
 6175TIP3    H240017   5.367   1.562  11.035 -0.8558 -0.9892 -0.7811
 6176TIP3   OH240018   1.741   1.089   3.885 -0.1394 -0.5775 -0.2940
 6176TIP3    H140019   1.663   1.137   3.859 -0.0584 -0.3574 -0.1321
 6176TIP3    H240020   1.708   1.012   3.932 -0.2468 -0.2428  0.1847
 6177TIP3   OH240021   1.355   1.718   2.208 -0.1622  0.1932 -0.1345
 6177TIP3    H140022   1.367   1.770   2.128 -0.8928  0.0635 -0.3299
 6177TIP3    H240023   1.339   1.782   2.277 -2.7158  0.1732 -0.6689
 6178TIP3   OH240024   3.243   1.328   4.775 -0.4585 -0.3119 -0.5319
 6178TIP3    H140025   3.281   1.289   4.697 -0.0632  1.5039 -1.2683
 6178TIP3    H240026   3.240   1.257   4.839  2.8650 -0.8512 -0.9089
 6179TIP3   OH240027   5.707   1.551  10.657 -0.4760 -0.5714  0.0334
 6179TIP3    H140028   5.657   1.518  10.731  0.3541 -1.1713  0.3235
 6179TIP3    H240029   5.786   1.589  10.696 -1.8386  2.6916 -0.1730
 6180TIP3   OH240030   1.606   0.400  12.890 -0.0057 -0.8960 -0.1540
 6180TIP3    H140031   1.693   0.439  12.900 -1.0324  1.4778  0.0865
 6180TIP3    H240032   1.583   0.369  12.977  0.0153 -0.1601  0.1219
 6181TIP3   OH240033   6.478   0.864  15.760 -0.0059 -0.1327  0.2307
 6181TIP3    H140034   6.403   0.841  15.816  0.9015  1.6389  2.2350
 6181TIP3    H240035   6.449   0.943  15.714 -0.0482 -0.5149 -0.3997
 6182TIP3   OH240036   6.167   4.440   6.199  0.1783 -0.0423 -0.2150
 6182TIP3    H140037   6.204   4.396   6.276  0.7889  0.6546 -0.1163
 6182TIP3    H240038   6.188   4.532   6.211 -1.2553  0.3078 -0.3447
 6183TIP3   OH240039   5.172   2.640  17.201  0.7468 -0.3125  0.1325
 6183TIP3    H140040   5.123   2.564  17.231 -1.5244  0.8223 -0.5327
 6183TIP3    H240041   5.119   2.715  17.228  1.8692  0.9586 -1.0497
 6184TIP3   OH240042   5.179   6.599  16.090 -0.7176 -0.6223 -0.5061
 6184TIP3    H140043   5.141   6.682  16.061 -0.3967  0.0470  0.8963
 6184TIP3    H240044   5.274   6.613  16.084 -0.5957  0.1993  2.5074
 6185TIP3   OH240045   5.562   5.755   0.775 -0.0929  0.0280 -0.5771
 6185TIP3    H140046   5.564   5.851   0.776  0.7654  0.0448 -2.3193
 6185TIP3    H240047   5.475   5.733   0.742 -0.1625  0.2141 -0.5158
 6186TIP3   OH240048   4.249   6.001  15.515  0.1236  0.3056  0.2702
 6186TIP3    H140049   4.166   6.003  15.562 -0.2047  2.0276 -0.3332
 6186TIP3    H240050   4.316   6.001  15.584 -0.3601  1.2916  0.7432
 6187TIP3   OH240051   3.399   0.894  13.681 -0.0061 -1.2701 -0.5924
 6187TIP3    H140052   3.473   0.954  13.672  0.2592 -1.6993 -1.4020
 6187TIP3    H240053   3.396   0.848  13.596 -0.0394 -2.5523  0.0902
 6188TIP3   OH240054   3.585   3.942  13.485  0.2709 -0.2954 -0.5658
 6188TIP3    H140055   3.612   3.915  13.397 -2.0316 -1.4832 -0.9405
 6188TIP3    H240056   3.562   3.861  13.529 -0.4847  0.4808  0.4909
 6189TIP3   OH240057   3.883   0.086   3.109  0.3748  0.3067 -0.2541
 6189TIP3    H140058   3.805   0.057   3.157  0.4903 -0.1797 -0.3584
 6189TIP3    H240059   3.853   0.161   3.058 -0.1145 -0.1096 -0.5786
 6190TIP3   OH240060   3.762   0.660   4.915 -0.1622 -0.6364 -0.0472
 6190TIP3    H140061   3.674   0.648   4.877 -0.3592  2.3187 -0.6276
 6190TIP3    H240062   3.817   0.597   4.867 -1.6206 -1.2891 -0.9076
 6191TIP3   OH240063   1.431   1.155   4.989  0.1570  0.2278 -0.5300
 6191TIP3    H140064   1.392   1.104   5.060  2.0903 -0.8479 -0.2151
 6191TIP3    H240065   1.400   1.244   5.004 -0.6570 -0.2735  0.7980
 6192TIP3   OH240066   4.182   2.818  10.592 -0.2705 -0.2850  0.0047
 6192TIP3    H140067   4.132   2.853  10.665  0.2716 -0.6319  0.5446
 6192TIP3    H240068   4.144   2.731  10.576 -0.7305 -0.0018 -0.4672
 6193TIP3   OH240069   2.642   0.167   3.180  0.0302 -0.1136  0.4100
 6193TIP3    H140070   2.643   0.233   3.111 -0.4205 -0.0787  0.4311
 6193TIP3    H240071   2.595   0.093   3.141  2.0557 -1.0897 -0.2086
 6194TIP3   OH240072   1.166   0.511   4.439  0.3391  0.0289 -0.8125
 6194TIP3    H140073   1.178   0.416   4.443  1.3017  0.2169  1.7424
 6194TIP3    H240074   1.162   0.538   4.531  3.1571  2.8162 -1.4512
 6195TIP3   OH240075   2.472   1.253   1.316  0.4880 -0.2236  0.0028
 6195TIP3    H140076   2.495   1.166   1.349  1.0754  0.0770  0.3942
 6195TIP3    H240077   2.435   1.298   1.392  1.3116  0.2757  0.1147
 6196TIP3   OH240078   4.246   5.438   5.579  0.4388 -0.4610  0.8361
 6196TIP3    H140079   4.156   5.464   5.560  0.6453  0.8697  1.6135
 6196TIP3    H240080   4.240   5.345   5.601 -0.5709 -0.6709 -0.2760
 6197TIP3   OH240081   4.271   1.993  13.529  0.4032  0.1991 -0.3346
 6197TIP3    H140082   4.187   1.969  13.490 -0.1860 -0.4276  1.3124
 6197TIP3    H240083   4.333   1.987  13.456 -0.8907  0.2286 -1.4573
 6198TIP3   OH240084   3.804   5.762  16.763 -0.1139  0.0185  0.1252
 6198TIP3    H140085   3.778   5.675  16.733  0.6636 -0.5435  1.0469
 6198TIP3    H240086   3.842   5.747  16.850  0.6249  1.1975  0.0133
 6199TIP3   OH240087   4.463   5.643  14.267  0.0361  0.5272  0.0232
 6199TIP3    H140088   4.383   5.689  14.292 -0.2179  1.2503 -2.0136
 6199TIP3    H240089   4.465   5.566  14.324 -2.6955 -0.0983 -0.6302
 6200TIP3   OH240090   6.259   6.641   4.939  0.1055 -0.5975 -0.0573
 6200TIP3    H140091   6.331   6.613   4.882  0.0487 -0.6331 -0.1103
 6200TIP3    H240092   6.302   6.665   5.021  0.1223 -1.1072  0.0830
 6201TIP3   OH240093   6.322   2.708   3.619  1.3300  0.1326 -0.0639
 6201TIP3    H140094   6.307   2.765   3.694 -2.5087  1.2277 -1.5541
 6201TIP3    H240095   6.288   2.623   3.646  1.7600  0.0109  0.1053
 6202TIP3   OH240096   6.494   6.623  12.492  0.1203 -0.5083 -0.0577
 6202TIP3    H140097   6.461   6.646  12.579  1.9779 -0.1782  0.5757
 6202TIP3    H240098   6.418   6.583  12.448 -1.9398  2.8114  0.3279
 6203TIP3   OH240099   3.467   3.846   1.491  0.2154  0.6298  0.4759
 6203TIP3    H140100   3.513   3.819   1.411  1.1526  2.8576  0.2242
 6203TIP3    H240101   3.483   3.774   1.553  0.1382 -0.7623 -1.0664
 6204TIP3   OH240102   6.738   5.838  16.912  0.0207  0.4068  0.3173
 6204TIP3    H140103   6.810   5.781  16.884 -0.8029  0.1493 -1.3371
 6204TIP3    H240104   6.771   5.927  16.902 -0.3294  0.3261 -1.7349
 6205TIP3   OH240105   5.726   1.804  16.616  0.5019 -0.0845  0.0341
 6205TIP3    H140106   5.737   1.884  16.566  0.9196  0.3885  0.8741
 6205TIP3    H240107   5.806   1.754  16.600 -0.8610 -1.5215 -2.5813
 6206TIP3   OH240108   1.673   3.525   5.067 -0.4626 -0.2624 -0.0837
 6206TIP3    H140109   1.709   3.611   5.088  0.6109 -0.9245  0.8785
 6206TIP3    H240110   1.605   3.511   5.133  0.6956 -0.9616  0.9917
 6207TIP3   OH240111   0.994   1.881   4.317  0.2068  0.3030 -0.1907
 6207TIP3    H140112   0.988   1.788   4.342 -2.2083  0.1851 -1.1299
 6207TIP3    H240113   1.073   1.885   4.263  0.5214 -1.1314  0.1190
 6208TIP3   OH240114   1.567   0.417   2.950 -0.2332  0.0173  0.3424
 6208TIP3    H140115   1.538   0.508   2.936 -3.0421 -0.7714  0.7503
 6208TIP3    H240116   1.600   0.389   2.864 -4.5407 -0.3269 -1.3254
 6209TIP3   OH240117   2.203   3.599  12.927 -0.2519 -0.5554  0.4453
 6209TIP3    H140118   2.279   3.541  12.930  0.4535  0.3099 -0.0863
 6209TIP3    H240119   2.142   3.555  12.868  1.2638  0.3355 -1.9038
 6210TIP3   OH240120   2.422   2.572   3.984  0.1177  0.2499  0.0210
 6210TIP3    H140121   2.436   2.509   4.055 -0.9714  0.3865  0.3541
 6210TIP3    H240122   2.433   2.658   4.025  1.4340  0.2899 -0.3987
 6211TIP3   OH240123   5.894   3.713  16.867 -0.0957  0.4042 -0.1858
 6211TIP3    H140124   5.939   3.739  16.787  1.5879  0.4737  0.7737
 6211TIP3    H240125   5.912   3.620  16.876 -3.1115 -0.4049 -1.6569
 6212TIP3   OH240126   4.227   0.347  10.791  0.1675  0.2248  0.4770
 6212TIP3    H140127   4.202   0.420  10.734 -0.6836  0.5295  1.2251
 6212TIP3    H240128   4.300   0.381  10.843 -1.9367  1.5091  2.7334
 6213TIP3   OH240129   3.693   5.438   0.661 -0.6424 -0.7358 -0.3187
 6213TIP3    H140130   3.759   5.460   0.727  0.1304 -1.1777 -0.9390
 6213TIP3    H240131   3.610   5.462   0.702 -0.1467 -0.6977  0.6866
 6214TIP3   OH240132   4.512   4.872   2.243 -0.3298 -0.2975 -0.1395
 6214TIP3    H140133   4.558   4.850   2.324 -0.3888  1.8300  0.4821
 6214TIP3    H240134   4.578   4.861   2.174  0.1181 -0.6989  0.3504
 6215TIP3   OH240135   6.256   6.091  16.976 -0.0506  0.3726  0.1429
 6215TIP3    H140136   6.295   6.019  16.926 -0.4861  0.0935  0.1969
 6215TIP3    H240137   6.329   6.150  16.993  0.7604 -1.0644  1.8880
 6216TIP3   OH240138   3.241   5.723   1.219 -0.0452  0.1776  0.1492
 6216TIP3    H140139   3.150   5.693   1.211  0.0911 -0.4964  1.0846
 6216TIP3    H240140   3.264   5.706   1.310  0.6752  1.3329  0.1876
 6217TIP3   OH240141   3.529   6.607   5.271 -0.6480 -0.1173  0.8004
 6217TIP3    H140142   3.467   6.617   5.343 -0.6460  0.6905  0.6936
 6217TIP3    H240143   3.594   6.676   5.285 -0.9526  0.4054 -0.2784
 6218TIP3   OH240144   2.319   3.705   1.171 -0.5026  0.3759 -1.1523
 6218TIP3    H140145   2.387   3.638   1.175  0.0674  0.7333 -4.0049
 6218TIP3    H240146   2.240   3.661   1.203  0.8147 -0.3012  1.3205
 6219TIP3   OH240147   3.684   3.110  12.834 -0.3546  0.1553 -0.6330
 6219TIP3    H140148   3.659   3.020  12.815  1.9090 -0.3749 -1.1314
 6219TIP3    H240149   3.773   3.105  12.868 -0.4315  2.1426 -0.0390
 6220TIP3   OH240150   2.936   2.789   6.341  0.0669 -0.1933 -0.2287
 6220TIP3    H140151   2.866   2.751   6.288  0.7194  0.7083 -1.7645
 6220TIP3    H240152   2.903   2.784   6.431 -1.5316 -0.7186 -0.8309
 6221TIP3   OH240153   1.159   6.285  11.224 -0.8567 -1.1167 -0.2590
 6221TIP3    H140154   1.088   6.233  11.261 -3.0678 -0.4324 -3.2910
 6221TIP3    H240155   1.216   6.220  11.182 -0.3251 -1.5728  1.1576
 6222TIP3   OH240156   1.412   4.162  11.159 -0.4150  0.0201  0.7091
 6222TIP3    H140157   1.439   4.132  11.246  0.3104  0.8447  0.7794
 6222TIP3    H240158   1.367   4.087  11.121  0.4815 -0.8203  1.2636
 6223TIP3   OH240159   4.915   4.209   1.259  0.1865 -0.5677 -0.1005
 6223TIP3    H140160   4.873   4.161   1.188  0.6651 -0.8302 -0.2096
 6223TIP3    H240161   5.006   4.219   1.231  0.5229 -1.1941  0.7341
 6224TIP3   OH240162   4.925   5.225   2.171  0.1031 -0.3698  0.5721
 6224TIP3    H140163   4.925   5.319   2.190 -1.7932  0.3162 -2.3802
 6224TIP3    H240164   4.846   5.192   2.214  0.0466 -0.3477  0.4861
 6225TIP3   OH240165   5.283   1.339  13.902 -0.2881  0.0841  0.2274
 6225TIP3    H140166   5.343   1.265  13.907 -1.6851 -1.3227 -2.4780
 6225TIP3    H240167   5.237   1.328  13.818 -0.9630  3.6846  0.0031
 6226TIP3   OH240168   0.985   5.538   2.137  0.2211 -0.0681 -0.9175
 6226TIP3    H140169   0.890   5.555   2.139 -0.1476 -1.9845 -1.3887
 6226TIP3    H240170   1.002   5.495   2.221  0.8515  1.0979 -0.4387
 6227TIP3   OH240171   6.448   0.567  16.700  0.0650  0.1996 -0.3179
 6227TIP3    H140172   6.507   0.498  16.670  1.2916  0.2075  1.9822
 6227TIP3    H240173   6.363   0.524  16.708  0.7291 -0.9671  0.6878
 6228TIP3   OH240174   4.500   3.846   2.598  0.0667  0.6104  0.0457
 6228TIP3    H140175   4.567   3.900   2.556 -1.3095  0.9180 -1.8246
 6228TIP3    H240176   4.436   3.909   2.631  0.9702  0.3515  2.3723
 6229TIP3   OH240177   4.369   4.343  12.973  0.0091  0.1940  0.0003
 6229TIP3    H140178   4.451   4.308  12.937  1.1568  0.9159  1.8231
 6229TIP3    H240179   4.398   4.407  13.039 -2.0337  0.8829  0.2543
 6230TIP3   OH240180   1.119   5.440  14.676  0.0917  0.2520  0.3869
 6230TIP3    H140181   1.065   5.499  14.728  0.1029 -0.1304  0.8435
 6230TIP3    H240182   1.121   5.479  14.589 -0.1452  0.7634  0.6076
 6231TIP3   OH240183   5.509   1.208  13.334 -0.1981  0.1474  0.0661
 6231TIP3    H140184   5.456   1.262  13.276  0.2752  2.4056  1.6643
 6231TIP3    H240185   5.599   1.221  13.303 -0.2429 -1.3040 -0.7494
 6232TIP3   OH240186   1.346   4.484   5.099  0.2349  0.4448  0.3412
 6232TIP3    H140187   1.300   4.559   5.136 -0.8648  0.5540 -1.1882
 6232TIP3    H240188   1.372   4.432   5.174  0.0998  1.8318  1.3713
 6233TIP3   OH240189   4.497   5.694  11.591  0.6838  0.2430 -0.1445
 6233TIP3    H140190   4.472   5.707  11.499 -0.7007  2.0846  0.4667
 6233TIP3    H240191   4.573   5.636  11.587  0.1441 -0.3725 -2.4136
 6234TIP3   OH240192   2.405   3.409   0.390 -0.6962 -0.3324 -0.1785
 6234TIP3    H140193   2.407   3.340   0.324 -0.7555 -0.2104 -0.3064
 6234TIP3    H240194   2.480   3.390   0.447 -0.4598 -0.2512 -0.4648
 6235TIP3   OH240195   6.305   1.273  11.812 -0.3381  0.3768  0.2197
 6235TIP3    H140196   6.295   1.188  11.856  2.0394 -1.1838 -2.0680
 6235TIP3    H240197   6.263   1.336  11.870 -2.3535 -2.4068  1.8712
 6236TIP3   OH240198   3.306   1.303  14.155 -0.3650 -0.3497  0.2667
 6236TIP3    H140199   3.290   1.319  14.248 -0.7092  0.3122  0.0941
 6236TIP3    H240200   3.276   1.213  14.141  0.8631 -0.9180  1.0712
 6237TIP3   OH240201   5.467   5.129   4.211  0.5516  0.5133 -0.3717
 6237TIP3    H140202   5.402   5.169   4.153 -0.6236  1.6242  1.6900
 6237TIP3    H240203   5.440   5.153   4.299  2.6767 -0.6409  0.6432
 6238TIP3   OH240204   3.359   3.136   0.588 -0.1393  0.0691  0.5360
 6238TIP3    H140205   3.434   3.193   0.601 -1.8707  3.3626 -2.7018
 6238TIP3    H240206   3.396   3.055   0.551  1.8945  1.3907 -0.4193
 6239TIP3   OH240207   5.701   1.662   0.155  0.4836 -0.0260  0.3599
 6239TIP3    H140208   5.677   1.737   0.210 -0.9815 -0.4490  0.3170
 6239TIP3    H240209   5.633   1.659   0.088  0.4023 -1.5515  0.4983
 6240TIP3   OH240210   0.119   3.282   0.048  0.1367  0.0902  0.0681
 6240TIP3    H140211   0.084   3.234   0.123 -1.3178  1.1358  0.0966
 6240TIP3    H240212   0.214   3.284   0.062  0.0436 -1.3189  0.9118
 6241TIP3   OH240213   0.588   4.617   1.695  0.5340 -0.0479  0.3408
 6241TIP3    H140214   0.578   4.522   1.695 -0.5337  0.0612  0.7596
 6241TIP3    H240215   0.645   4.635   1.621 -0.5478 -0.8864 -0.7109
 6242TIP3   OH240216   0.549   5.606  14.609  0.1808 -0.2222  0.2299
 6242TIP3    H140217   0.523   5.544  14.541  0.8998 -0.0818 -0.1733
 6242TIP3    H240218   0.611   5.664  14.566 -0.0578  0.4290  0.7606
 6243TIP3   OH240219   5.813   3.078  16.811 -0.0545 -0.0225 -0.0550
 6243TIP3    H140220   5.747   3.037  16.867  1.2878  0.8668  2.2549
 6243TIP3    H240221   5.887   3.016  16.813  0.3792  0.4940  0.0010
 6244TIP3   OH240222   3.058   0.130   2.678 -0.3722 -0.6407 -0.1221
 6244TIP3    H140223   3.080   0.085   2.597  0.7566 -2.0940  0.9385
 6244TIP3    H240224   3.142   0.137   2.724 -0.8956  0.6985  0.6565
 6245TIP3   OH240225   5.161   6.280  12.385  0.2102  0.0532  0.1118
 6245TIP3    H140226   5.201   6.314  12.304  2.6348  1.8424  2.0052
 6245TIP3    H240227   5.208   6.324  12.455 -1.3045 -2.1094  2.5549
 6246TIP3   OH240228   4.946   5.755  15.012 -0.6709  0.0115  0.4072
 6246TIP3    H140229   4.912   5.727  14.927 -1.3351  1.4365  0.1886
 6246TIP3    H240230   4.909   5.843  15.025  1.9461  1.1020  0.7389
 6247TIP3   OH240231   2.764   6.195   5.878 -0.3416 -0.0375 -0.0828
 6247TIP3    H140232   2.841   6.251   5.867  0.3068 -1.1620 -1.4055
 6247TIP3    H240233   2.793   6.108   5.848 -1.9553 -0.5898 -0.0711
 6248TIP3   OH240234   5.942   2.699   5.644 -0.0677  0.2662 -0.3607
 6248TIP3    H140235   6.009   2.767   5.635  0.4664 -0.4917 -2.7224
 6248TIP3    H240236   5.985   2.630   5.694  0.7864 -0.0139 -1.4549
 6249TIP3   OH240237   5.989   1.430  12.267 -0.0622 -0.0193 -0.3551
 6249TIP3    H140238   6.032   1.345  12.276  0.5835  0.4477  1.2158
 6249TIP3    H240239   5.904   1.419  12.308  0.2692  0.2535  0.4217
 6250TIP3   OH240240   4.250   3.234   3.901 -0.3301  0.0804 -0.1515
 6250TIP3    H140241   4.202   3.253   3.820  1.5461  0.6346 -1.1700
 6250TIP3    H240242   4.203   3.283   3.968 -1.7720 -0.1870 -0.9314
 6251TIP3   OH240243   3.502   4.355  12.899 -0.1921 -0.3497  0.4683
 6251TIP3    H140244   3.520   4.371  12.806  1.5739 -1.1844  0.6580
 6251TIP3    H240245   3.583   4.318  12.933 -1.1799 -1.0345  2.1151
 6252TIP3   OH240246   3.770   6.076   6.052 -0.0368 -0.0816 -0.1791
 6252TIP3    H140247   3.778   5.981   6.049 -1.3637 -0.2172  0.0545
 6252TIP3    H240248   3.856   6.107   6.078  0.3343 -1.2387 -0.0061
 6253TIP3   OH240249   5.420   1.537   6.535  0.0312  0.0066  0.5159
 6253TIP3    H140250   5.495   1.478   6.535  0.1882  0.1815  1.8738
 6253TIP3    H240251   5.376   1.520   6.619 -1.5886 -0.2648 -0.3625
 6254TIP3   OH240252   3.251   3.563  12.862  0.0527  0.1790  0.4665
 6254TIP3    H140253   3.214   3.538  12.947 -2.1018  0.4596 -0.3542
 6254TIP3    H240254   3.244   3.484  12.809 -1.2184  0.7930 -0.2976
 6255TIP3   OH240255   2.390   2.579  14.801  0.4469  0.4395 -0.0724
 6255TIP3    H140256   2.419   2.548  14.887 -2.2690  0.3916  0.8769
 6255TIP3    H240257   2.360   2.668  14.817 -2.1342 -0.3114 -0.4609
 6256TIP3   OH240258   5.824   5.002  14.505  0.1324 -0.4698  0.1845
 6256TIP3    H140259   5.789   5.081  14.465 -0.0321 -0.8360 -0.3884
 6256TIP3    H240260   5.748   4.945  14.515  0.4523 -1.0107 -0.4638
 6257TIP3   OH240261   1.866   4.042   1.572  0.0131 -0.1100 -0.1822
 6257TIP3    H140262   1.921   3.964   1.574  0.3945  0.1354 -0.7135
 6257TIP3    H240263   1.814   4.033   1.492  0.0475  0.1674 -0.2391
 6258TIP3   OH240264   0.735   4.671  12.088 -0.3152 -0.4013 -0.4292
 6258TIP3    H140265   0.768   4.747  12.136 -0.1875  0.9608 -2.6516
 6258TIP3    H240266   0.769   4.596  12.137  0.6199  0.9505  1.0498
 6259TIP3   OH240267   6.285   5.735   2.704 -0.6784  0.6570  0.1574
 6259TIP3    H140268   6.220   5.673   2.737  0.5160  0.3486  1.9452
 6259TIP3    H240269   6.254   5.821   2.734 -0.2721  0.5104  1.0054
 6260TIP3   OH240270   1.405   2.857  10.856 -0.1082 -0.7506 -0.5631
 6260TIP3    H140271   1.361   2.772  10.856 -1.4850 -0.0525 -0.6047
 6260TIP3    H240272   1.489   2.842  10.812  0.0374 -2.2701  0.2103
 6261TIP3   OH240273   4.107   2.288   4.563 -0.7204 -0.1865  0.1469
 6261TIP3    H140274   4.081   2.307   4.653 -1.9324 -0.6808 -0.0800
 6261TIP3    H240275   4.131   2.373   4.526  0.4388 -0.0729  1.1275
 6262TIP3   OH240276   0.930   0.479   2.105  0.0092 -0.1104  0.0256
 6262TIP3    H140277   0.962   0.409   2.162  0.6556  0.8362  0.8236
 6262TIP3    H240278   0.996   0.547   2.111 -1.0839  0.9599 -0.0089
 6263TIP3   OH240279   1.602   2.514  15.615 -0.2727  0.4408  0.0329
 6263TIP3    H140280   1.685   2.484  15.578 -0.2802  0.4588  0.0009
 6263TIP3    H240281   1.550   2.435  15.626  0.1138  0.3118  0.9698
 6264TIP3   OH240282   4.109   0.697   4.114 -0.6606 -0.3452  0.4073
 6264TIP3    H140283   4.127   0.791   4.123  0.2521 -0.6455  1.9091
 6264TIP3    H240284   4.128   0.677   4.023 -1.6509  1.0859 -0.1352
 6265TIP3   OH240285   2.401   3.409  12.868 -0.4177 -0.3318  0.1969
 6265TIP3    H140286   2.336   3.346  12.900  0.9229  0.1651  4.1613
 6265TIP3    H240287   2.483   3.360  12.865 -0.0567  0.2853 -0.1143
 6266TIP3   OH240288   2.377   6.711  16.733 -0.0213  0.3998 -0.0859
 6266TIP3    H140289   2.412   6.645  16.793  0.9407  0.8868 -0.0996
 6266TIP3    H240290   2.357   6.662  16.653 -1.8205 -0.3584  0.7756
 6267TIP3   OH240291   2.704   6.546  15.147  0.0347 -0.7338 -0.7279
 6267TIP3    H140292   2.784   6.493  15.146 -0.2879 -1.2197 -0.3666
 6267TIP3    H240293   2.688   6.563  15.239  0.1807  0.0604 -0.8442
 6268TIP3   OH240294   4.143   4.729   1.131 -0.2263 -0.3800  0.4016
 6268TIP3    H140295   4.110   4.723   1.221  1.2748  1.8534  1.1526
 6268TIP3    H240296   4.238   4.730   1.140 -0.0673  2.5815 -0.9351
 6269TIP3   OH240297   2.886   5.286  13.393 -0.2956 -0.1932  0.0162
 6269TIP3    H140298   2.918   5.200  13.419 -1.3610 -0.3092  1.0211
 6269TIP3    H240299   2.886   5.337  13.474 -2.2351 -0.0979 -0.0059
 6270TIP3   OH240300   5.278   5.207   2.220  0.0387 -0.1688 -0.0339
 6270TIP3    H140301   5.314   5.223   2.133  1.2172 -0.7808  0.3261
 6270TIP3    H240302   5.236   5.289   2.244  1.0648  0.5207 -0.5355
 6271TIP3   OH240303   3.868   2.946  17.216  0.5403  0.1573 -0.6016
 6271TIP3    H140304   3.879   3.040  17.205  2.7473  0.0603  0.4882
 6271TIP3    H240305   3.859   2.912  17.127  0.5385  1.2922 -1.0441
 6272TIP3   OH240306   3.767   4.382  13.654  0.1620  0.1970  0.4344
 6272TIP3    H140307   3.805   4.441  13.588  0.4949 -0.2026  0.2585
 6272TIP3    H240308   3.772   4.295  13.613 -1.6582  0.2422  0.1080
 6273TIP3   OH240309   6.060   3.861  13.679  0.1544 -0.1997  0.2030
 6273TIP3    H140310   5.989   3.885  13.738  0.0292  0.4518 -0.2099
 6273TIP3    H240311   6.017   3.816  13.606  0.3410 -1.3040  0.7555
 6274TIP3   OH240312   2.046   2.034  17.133  0.0449  0.1117 -0.5258
 6274TIP3    H140313   2.098   1.978  17.076 -1.4669 -0.8223 -1.0079
 6274TIP3    H240314   1.978   2.071  17.077 -1.9758 -1.4851  0.7863
 6275TIP3   OH240315   3.005   2.404  11.934 -0.1030  0.1808 -0.1017
 6275TIP3    H140316   3.090   2.361  11.930 -0.2482  0.0062 -2.5045
 6275TIP3    H240317   2.942   2.333  11.949  0.0819  0.1743  0.6360
 6276TIP3   OH240318   6.241   0.631  14.983  0.3735 -0.7769  0.2403
 6276TIP3    H140319   6.284   0.595  15.061 -1.5153 -2.7128  0.4070
 6276TIP3    H240320   6.164   0.676  15.017  1.3153  1.2746 -0.2303
 6277TIP3   OH240321   3.619   2.338  15.508  0.1418 -0.5192  0.0239
 6277TIP3    H140322   3.624   2.274  15.580 -0.6527 -0.5038  0.0912
 6277TIP3    H240323   3.674   2.411  15.538 -0.1235 -0.5441  0.5800
 6278TIP3   OH240324   3.214   3.927  15.696 -0.6119  0.5020 -0.2685
 6278TIP3    H140325   3.251   3.928  15.608 -3.1607 -0.3634 -1.3844
 6278TIP3    H240326   3.197   4.019  15.716 -1.0757  0.6102 -1.1428
 6279TIP3   OH240327   1.703   3.509   1.458  0.0313 -0.3868 -0.0189
 6279TIP3    H140328   1.690   3.440   1.523  0.2551  0.3695  0.8320
 6279TIP3    H240329   1.729   3.586   1.508  3.6542 -0.6876 -1.2757
 6280TIP3   OH240330   4.886   6.219  13.276 -0.3848 -0.1134 -0.2813
 6280TIP3    H140331   4.938   6.144  13.248  1.1678  0.9771 -0.3469
 6280TIP3    H240332   4.899   6.284  13.208 -1.9054  0.1574 -0.3356
 6281TIP3   OH240333   1.619   5.267  16.540 -0.2269 -0.6038 -0.3917
 6281TIP3    H140334   1.669   5.300  16.614  1.0650  0.9257 -1.9042
 6281TIP3    H240335   1.602   5.175  16.562 -0.0612 -0.1261  1.8718
 6282TIP3   OH240336   1.139   1.868  15.664  0.3408 -0.8914  0.2696
 6282TIP3    H140337   1.101   1.797  15.717 -1.2910 -0.0561  0.2571
 6282TIP3    H240338   1.076   1.940  15.673  1.1149 -0.0389 -1.1172
 6283TIP3   OH240339   2.211   4.573  13.609 -0.0060  0.4119  0.0224
 6283TIP3    H140340   2.262   4.497  13.582 -0.1154  0.1176  0.6518
 6283TIP3    H240341   2.204   4.566  13.704  1.2905  2.0310  0.2542
 6284TIP3   OH240342   3.858   5.998  11.272 -0.1233 -0.1629 -0.4484
 6284TIP3    H140343   3.768   5.976  11.294  0.0108  0.3907  0.7013
 6284TIP3    H240344   3.892   5.919  11.230 -0.8583 -0.7244 -0.0158
 6285TIP3   OH240345   0.159   3.532  15.957  0.0217  0.3597  0.1111
 6285TIP3    H140346   0.137   3.622  15.935 -2.4446 -0.8335 -2.7129
 6285TIP3    H240347   0.254   3.528  15.951 -0.0362  2.0324 -3.1600
 6286TIP3   OH240348   0.345   4.598   6.308  0.3251  0.2903  0.0696
 6286TIP3    H140349   0.413   4.540   6.276  1.3530  1.0499  0.8218
 6286TIP3    H240350   0.359   4.680   6.261 -0.5851  0.1986 -0.3731
 6287TIP3   OH240351   5.145   1.885   5.182  0.6038 -0.8559  0.1576
 6287TIP3    H140352   5.142   1.900   5.277 -0.7234  1.0821 -0.1575
 6287TIP3    H240353   5.177   1.795   5.173 -0.8065 -1.6319  2.4848
 6288TIP3   OH240354   6.771   6.068   4.579  0.5103  0.4332 -0.5796
 6288TIP3    H140355   6.723   6.133   4.527 -0.9623 -0.4196 -0.3342
 6288TIP3    H240356   6.824   6.020   4.516  0.1968  0.6617 -1.0222
 6289TIP3   OH240357   0.517   1.379   4.874 -0.0569 -0.2109 -0.2624
 6289TIP3    H140358   0.583   1.417   4.815  0.4014 -2.4665 -1.2582
 6289TIP3    H240359   0.528   1.427   4.956  2.1763  0.1174 -0.7105
 6290TIP3   OH240360   1.939   4.368  16.089  0.2282  0.1117  0.6104
 6290TIP3    H140361   1.899   4.430  16.028 -0.9353 -0.0327  1.2105
 6290TIP3    H240362   2.029   4.399  16.100  1.0083 -0.8865 -2.5518
 6291TIP3   OH240363   0.801   5.284   2.334  0.4334  0.3146 -0.2814
 6291TIP3    H140364   0.746   5.341   2.388 -0.1246  0.6790 -1.2306
 6291TIP3    H240365   0.891   5.312   2.354  0.1431  2.0761 -1.3054
 6292TIP3   OH240366   2.760   0.514   4.781 -0.2670 -0.1462  0.5972
 6292TIP3    H140367   2.732   0.602   4.753  3.0699  1.8064  3.0402
 6292TIP3    H240368   2.783   0.470   4.699  0.3960  2.1760 -0.5351
 6293TIP3   OH240369   5.957   4.984   0.048 -0.9268  0.2176  0.4002
 6293TIP3    H140370   5.969   5.043  -0.027  1.4496  0.9288  1.2983
 6293TIP3    H240371   5.943   4.898   0.009  0.1220  0.6103 -0.8911
 6294TIP3   OH240372   5.554   1.577  15.085 -0.2911 -0.2341  0.0366
 6294TIP3    H140373   5.549   1.505  15.023 -0.3224 -0.4203  0.2556
 6294TIP3    H240374   5.639   1.618  15.068  0.0787 -0.8173  0.4549
 6295TIP3   OH240375   1.523   6.566  12.845  0.8416  0.5362  0.0953
 6295TIP3    H140376   1.436   6.599  12.822  0.2141 -1.5803 -0.6979
 6295TIP3    H240377   1.583   6.632  12.812 -0.3656  0.8203 -1.6094
 6296TIP3   OH240378   2.942   5.532  13.045  0.1495 -0.0593 -0.5071
 6296TIP3    H140379   3.014   5.573  12.997  0.6569  0.6450  0.8210
 6296TIP3    H240380   2.866   5.543  12.988  0.8926  0.0651 -1.4915
 6297TIP3   OH240381   3.223   5.391  13.075 -0.0040  0.2626 -0.3149
 6297TIP3    H140382   3.152   5.327  13.079 -1.8470  2.2466 -0.5624
 6297TIP3    H240383   3.211   5.445  13.153  1.2226  0.6471 -0.3920
 6298TIP3   OH240384   6.792   6.251   5.068  0.0239  0.2980 -0.8224
 6298TIP3    H140385   6.849   6.268   4.993  0.1232 -1.3017 -1.1238
 6298TIP3    H240386   6.816   6.163   5.098 -1.6136 -0.0177 -0.3579
 6299TIP3   OH240387   2.408   6.347  11.613 -0.1660  0.5051  0.5185
 6299TIP3    H140388   2.401   6.428  11.664  1.1274  1.0638 -0.1497
 6299TIP3    H240389   2.421   6.377  11.523  3.3225 -0.3487  0.6434
 6300TIP3   OH240390   6.539   0.469   3.226  0.3776 -0.5414 -0.6148
 6300TIP3    H140391   6.628   0.472   3.262  0.2517  0.5092 -0.3549
 6300TIP3    H240392   6.520   0.560   3.203 -1.3156 -0.4549  1.0109
 6301TIP3   OH240393   5.521   6.640  15.426 -0.0358 -0.0994 -0.1996
 6301TIP3    H140394   5.428   6.659  15.419 -0.1803 -0.2966  0.9945
 6301TIP3    H240395   5.564   6.709  15.376 -0.7137  1.4717  1.3358
 6302TIP3   OH240396   5.182   1.118  14.276  0.5587  0.2621  0.7285
 6302TIP3    H140397   5.144   1.057  14.340  0.9208  1.4738  2.1296
 6302TIP3    H240398   5.248   1.167  14.326  0.3645  1.7111 -0.3991
 6303TIP3   OH240399   2.934   5.497  14.848 -0.3406 -0.0280  0.0349
 6303TIP3    H140400   2.985   5.462  14.776 -0.0847 -3.7932  1.9258
 6303TIP3    H240401   2.846   5.507  14.813 -0.1928 -1.7185 -0.8405
 6304TIP3   OH240402   4.824   3.684   6.168  0.1330 -0.0285  0.8880
 6304TIP3    H140403   4.835   3.778   6.160  0.3516 -0.2257 -1.2797
 6304TIP3    H240404   4.912   3.648   6.157  0.1294 -0.4665  2.2037
 6305TIP3   OH240405   4.553   6.432   3.937 -0.2163  0.5032  0.3811
 6305TIP3    H140406   4.567   6.526   3.926 -1.4057  0.5372 -0.9888
 6305TIP3    H240407   4.501   6.425   4.017 -1.6207  1.1510 -0.4547
 6306TIP3   OH240408   5.984   0.408  11.959 -0.0400 -0.2966  0.1373
 6306TIP3    H140409   6.042   0.332  11.961 -0.1555 -0.3686  1.1541
 6306TIP3    H240410   5.896   0.372  11.962 -0.0724 -0.0940  2.4089
 6307TIP3   OH240411   5.168   0.485  14.041  0.9996  0.1552 -0.2504
 6307TIP3    H140412   5.186   0.578  14.031  0.4247  0.4594  1.3756
 6307TIP3    H240413   5.157   0.453  13.951  1.9520  1.4851 -0.8635
 6308TIP3   OH240414   2.505   3.769  16.305 -0.1934 -0.2243 -0.6083
 6308TIP3    H140415   2.444   3.831  16.266  0.3273 -0.4744 -1.8560
 6308TIP3    H240416   2.591   3.809  16.292 -0.0613  0.0052  0.8979
 6309TIP3   OH240417   2.311   4.127   5.994 -0.0045  0.1478  0.2533
 6309TIP3    H140418   2.249   4.157   6.061  0.2605  1.1554  0.0549
 6309TIP3    H240419   2.378   4.079   6.043 -0.5644 -0.3367  0.5486
 6310TIP3   OH240420   2.821   5.660  15.986  0.2781 -0.9596  0.0512
 6310TIP3    H140421   2.747   5.700  16.032 -0.0389 -0.4806 -0.8601
 6310TIP3    H240422   2.842   5.722  15.916  0.2932 -2.0157 -0.8863
 6311TIP3   OH240423   0.075   2.625   0.951 -0.7907  0.0055 -0.1178
 6311TIP3    H140424   0.144   2.691   0.941 -0.4307 -0.2660  0.5249
 6311TIP3    H240425   0.086   2.567   0.876 -1.0105  0.5835 -0.6035
 6312TIP3   OH240426   1.276   6.249   5.048 -0.2508  0.2973 -0.1769
 6312TIP3    H140427   1.290   6.338   5.082 -0.5268  0.0570  0.5497
 6312TIP3    H240428   1.355   6.201   5.074 -0.7866 -0.0809  0.7679
 6313TIP3   OH240429   1.521   0.503   3.915  0.2149 -0.3961  0.1629
 6313TIP3    H140430   1.555   0.416   3.898  1.7488 -0.0606  1.4654
 6313TIP3    H240431   1.460   0.492   3.988  0.7848 -0.2942  0.6529
 6314TIP3   OH240432   3.664   4.260   3.756  0.1304 -0.0118 -0.2500
 6314TIP3    H140433   3.609   4.222   3.687  0.2400 -1.0104  0.2095
 6314TIP3    H240434   3.702   4.338   3.715 -0.3958 -0.1715 -1.0744
 6315TIP3   OH240435   6.539   5.239   4.036 -0.2588 -0.5344 -0.1731
 6315TIP3    H140436   6.449   5.254   4.006  0.4111 -1.1456 -2.6369
 6315TIP3    H240437   6.540   5.147   4.062 -0.5009 -0.3621  0.4501
 6316TIP3   OH240438   3.904   6.819   2.476  0.2921 -0.5806 -0.0575
 6316TIP3    H140439   3.950   6.874   2.413 -0.9623 -0.7666 -1.1487
 6316TIP3    H240440   3.843   6.879   2.520  0.1704 -0.7412 -0.0069
 6317TIP3   OH240441   5.720   3.099   4.046 -0.0407  0.2081  0.4031
 6317TIP3    H140442   5.800   3.065   4.006 -0.8189 -2.0783  0.6972
 6317TIP3    H240443   5.749   3.172   4.100  1.8159 -0.4097  0.2785
 6318TIP3   OH240444   4.719   3.075  13.119  1.0730 -0.0870 -0.1731
 6318TIP3    H140445   4.692   2.999  13.068  3.1936 -0.7130 -0.4295
 6318TIP3    H240446   4.771   3.128  13.059  4.1433 -1.1507  1.4347
 6319TIP3   OH240447   0.470   6.131   0.819 -0.0945 -0.1476 -0.1388
 6319TIP3    H140448   0.414   6.053   0.818  0.2118 -0.3732  0.0576
 6319TIP3    H240449   0.445   6.177   0.899  0.8028 -0.8479  0.5687
 6320TIP3   OH240450   1.381   2.094  12.514 -0.0499  0.0527  0.5676
 6320TIP3    H140451   1.405   2.117  12.603 -1.3205 -1.0408  1.2111
 6320TIP3    H240452   1.288   2.072  12.519  0.0774 -0.8733 -0.8513
 6321TIP3   OH240453   4.873   5.006  10.456 -0.0993 -0.0937 -0.6522
 6321TIP3    H140454   4.807   5.035  10.518  1.3387 -0.1572  0.9386
 6321TIP3    H240455   4.864   4.911  10.453 -0.5931 -0.0396 -1.0546
 6322TIP3   OH240456   3.981   1.805   3.047 -0.3770  0.2196 -0.5003
 6322TIP3    H140457   3.965   1.833   3.137 -0.6679 -0.1804 -0.4299
 6322TIP3    H240458   3.924   1.729   3.035  1.1503 -0.9810 -0.3578
 6323TIP3   OH240459   4.515   6.391   1.190 -0.1326  0.2528 -0.2256
 6323TIP3    H140460   4.574   6.458   1.225 -0.6452  0.6593 -0.1223
 6323TIP3    H240461   4.509   6.411   1.097  0.3488 -0.1391 -0.3353
 6324TIP3   OH240462   3.287   6.058   2.891 -0.0105 -0.2349  0.6154
 6324TIP3    H140463   3.335   6.122   2.839 -2.1539  1.6482  0.8921
 6324TIP3    H240464   3.355   6.006   2.934  1.7728  2.2004  0.8401
 6325TIP3   OH240465   1.024   5.756   4.196 -0.0991 -0.2831 -0.0518
 6325TIP3    H140466   1.001   5.665   4.212  1.7697 -1.0760 -1.5904
 6325TIP3    H240467   1.103   5.770   4.248 -0.3643  0.4446  0.1550
 6326TIP3   OH240468   2.020   6.712  16.315  0.2020 -0.2295  0.2340
 6326TIP3    H140469   1.960   6.769  16.363  1.2033 -0.0284  1.2627
 6326TIP3    H240470   2.003   6.732  16.223 -2.8241 -1.7292  0.4057
 6327TIP3   OH240471   5.121   5.319  16.093  0.2173  0.6505  0.1636
 6327TIP3    H140472   5.103   5.312  16.187  0.5985  2.8510  0.4127
 6327TIP3    H240473   5.034   5.324  16.053  0.0204 -1.4199  0.2762
 6328TIP3   OH240474   2.057   3.769   1.490 -0.3784 -0.1711 -0.0894
 6328TIP3    H140475   2.110   3.848   1.483 -2.1290  1.0396  0.0530
 6328TIP3    H240476   2.102   3.704   1.436  0.5253  1.2176 -1.0146
 6329TIP3   OH240477   2.713   1.126  11.617  0.5289 -0.0106 -0.1944
 6329TIP3    H140478   2.809   1.118  11.617  0.7971  2.6613 -0.9025
 6329TIP3    H240479   2.697   1.219  11.607 -2.1753 -0.5877 -1.8404
 6330TIP3   OH240480   3.879   3.900   4.601 -0.3447 -0.1968 -0.1715
 6330TIP3    H140481   3.840   3.888   4.515  1.3296 -1.4156 -0.7759
 6330TIP3    H240482   3.973   3.902   4.585 -0.0778  2.3967  1.2875
 6331TIP3   OH240483   4.138   3.541  14.583  0.7452  0.4309 -0.2998
 6331TIP3    H140484   4.086   3.506  14.510 -0.9094 -0.7064  1.3706
 6331TIP3    H240485   4.228   3.533  14.553  0.1560 -0.9444 -1.8485
 6332TIP3   OH240486   5.131   4.636  16.150 -0.0170  0.1714 -0.0903
 6332TIP3    H140487   5.118   4.691  16.227  1.6088  0.2538  0.1315
 6332TIP3    H240488   5.220   4.656  16.121 -0.0722 -0.9964 -1.0811
 6333TIP3   OH240489   2.114   4.145  13.210 -0.3807  0.0590  0.1410
 6333TIP3    H140490   2.029   4.189  13.204  0.0096  0.7348 -0.6539
 6333TIP3    H240491   2.121   4.096  13.127  0.0948  0.1790  0.1109
 6334TIP3   OH240492   3.192   2.932   0.980  0.0014 -0.1199 -0.3977
 6334TIP3    H140493   3.259   2.963   1.041  0.8727 -0.6286 -1.0811
 6334TIP3    H240494   3.204   2.985   0.902  0.6737 -1.2867 -1.1114
 6335TIP3   OH240495   1.210   2.007   4.142  0.2601 -0.1187  0.0587
 6335TIP3    H140496   1.246   1.976   4.059 -0.2642  0.7298 -0.4927
 6335TIP3    H240497   1.244   1.946   4.207 -0.1478 -1.3939 -0.9047
 6336TIP3   OH240498   1.781   6.493   0.649 -0.0312  0.6389 -0.3099
 6336TIP3    H140499   1.699   6.507   0.601  1.2834  2.2721 -2.1735
 6336TIP3    H240500   1.778   6.401   0.676 -2.8241  0.8939  0.3504
 6337TIP3   OH240501   5.140   2.895  11.142 -0.8346  0.4044  0.3586
 6337TIP3    H140502   5.177   2.925  11.059 -0.8153 -2.8958 -0.9104
 6337TIP3    H240503   5.046   2.888  11.125 -1.1688  1.9870  1.3982
 6338TIP3   OH240504   3.353   5.717   5.298 -0.7472 -0.4009  0.7796
 6338TIP3    H140505   3.432   5.691   5.345  0.2000  0.5113 -0.2662
 6338TIP3    H240506   3.291   5.646   5.314  0.2833 -1.1345  1.6143
 6339TIP3   OH240507   5.790   1.120   1.349 -0.8031 -0.4485  0.2524
 6339TIP3    H140508   5.779   1.201   1.299 -1.3211 -0.0700  0.9609
 6339TIP3    H240509   5.840   1.147   1.426  3.9020 -1.8210 -2.1127
 6340TIP3   OH240510   1.992   2.083  16.222 -0.0087 -0.8222  0.0929
 6340TIP3    H140511   1.918   2.032  16.256  1.0903 -0.2503  3.4552
 6340TIP3    H240512   2.069   2.038  16.254  1.0471  0.8649 -0.0184
 6341TIP3   OH240513   3.036   2.856  12.524 -0.2373  0.5286 -0.1816
 6341TIP3    H140514   2.951   2.900  12.529 -0.2130  0.6268 -0.6279
 6341TIP3    H240515   3.039   2.802  12.603 -0.3797  1.1279  0.2362
 6342TIP3   OH240516   1.388   1.358  12.978 -0.0703  0.2347  0.1868
 6342TIP3    H140517   1.460   1.348  13.040 -0.1218 -0.5167  0.1218
 6342TIP3    H240518   1.430   1.383  12.896  0.3739 -2.9238 -0.5965
 6343TIP3   OH240519   4.804   4.626   5.647  0.5551 -0.3309 -0.0444
 6343TIP3    H140520   4.755   4.551   5.613 -0.0886 -0.2026  0.5764
 6343TIP3    H240521   4.750   4.658   5.720  1.8185 -0.5116  0.9892
 6344TIP3   OH240522   2.760   5.578  15.619  0.4482 -0.3960  0.1207
 6344TIP3    H140523   2.707   5.650  15.652 -1.6151 -1.1189 -1.4874
 6344TIP3    H240524   2.777   5.601  15.528 -1.2020 -2.4280 -0.7463
 6345TIP3   OH240525   6.275   5.519   4.853 -0.0473 -0.4035  0.1733
 6345TIP3    H140526   6.351   5.572   4.830 -0.7025 -0.1090 -1.3231
 6345TIP3    H240527   6.260   5.538   4.946  0.6512  0.8362  0.0363
 6346TIP3   OH240528   0.723   4.016  13.185  0.4381 -0.6074  0.4212
 6346TIP3    H140529   0.642   4.037  13.232 -0.7792 -1.4202 -1.2764
 6346TIP3    H240530   0.756   3.937  13.228  0.0021 -0.6353  0.7083
 6347TIP3   OH240531   4.135   3.642  13.413 -0.1044  0.3349 -0.2321
 6347TIP3    H140532   4.102   3.687  13.335 -1.2785 -1.7771 -0.9767
 6347TIP3    H240533   4.186   3.568  13.379  0.3552  0.0729  0.9952
 6348TIP3   OH240534   3.251   2.395   0.201  0.1387 -0.4310  0.2868
 6348TIP3    H140535   3.265   2.300   0.198  0.3917 -0.4663  2.0044
 6348TIP3    H240536   3.336   2.431   0.228 -0.3780  0.1548  1.1461
 6349TIP3   OH240537   2.304   3.651   3.728 -0.5488 -0.1660 -1.0726
 6349TIP3    H140538   2.294   3.615   3.640  0.0876 -1.5235 -0.6034
 6349TIP3    H240539   2.359   3.588   3.775 -0.8348  0.5537  0.2887
 6350TIP3   OH240540   1.165   5.974  12.277  0.2179  0.4345  0.3115
 6350TIP3    H140541   1.128   6.004  12.194  2.5726 -0.7408 -1.2295
 6350TIP3    H240542   1.242   6.030  12.290  0.8449 -0.5166  0.7931
 6351TIP3   OH240543   0.447   1.027  13.089 -0.5152  0.0124  0.1868
 6351TIP3    H140544   0.370   0.997  13.137 -1.4960  1.2555 -0.5723
 6351TIP3    H240545   0.417   1.038  12.999  0.8862 -0.7175 -0.3760
 6352TIP3   OH240546   2.975   0.161   1.857 -0.4050 -0.0373  0.0205
 6352TIP3    H140547   2.894   0.169   1.807 -0.1954  0.1982 -0.2864
 6352TIP3    H240548   3.023   0.090   1.816  0.7146  1.5345 -1.4658
 6353TIP3   OH240549   3.028   5.615  15.608 -0.4833 -0.3340  0.1825
 6353TIP3    H140550   3.065   5.656  15.686  1.5607 -2.1246  0.2196
 6353TIP3    H240551   2.944   5.579  15.636 -0.0260 -0.4623  1.4296
 6354TIP3   OH240552   5.933   6.510   2.092 -0.4090  0.2795 -0.5642
 6354TIP3    H140553   6.018   6.482   2.126 -0.0564  2.8977  0.7853
 6354TIP3    H240554   5.870   6.453   2.136  0.6485 -2.1589 -2.0989
 6355TIP3   OH240555   4.387   5.267  16.910 -0.2855  0.4541 -0.1544
 6355TIP3    H140556   4.358   5.215  16.985  0.7438  1.4142  0.9060
 6355TIP3    H240557   4.444   5.208  16.861 -0.7812 -0.0980 -0.0850
 6356TIP3   OH240558   1.982   6.721  13.427 -0.5591  0.1924 -0.0564
 6356TIP3    H140559   1.931   6.743  13.349 -0.3458 -0.3921 -0.3612
 6356TIP3    H240560   2.018   6.634  13.408 -0.9075 -0.1650  0.8919
 6357TIP3   OH240561   0.286   4.157   5.797 -0.8146  0.2565  0.0770
 6357TIP3    H140562   0.344   4.119   5.731 -1.0218 -0.8181  0.5080
 6357TIP3    H240563   0.198   4.151   5.760 -0.6744  1.8004 -0.5362
 6358TIP3   OH240564   5.822   3.473   1.495  0.1483  0.3375 -0.5288
 6358TIP3    H140565   5.789   3.495   1.408  1.0992  0.8806 -0.7633
 6358TIP3    H240566   5.747   3.485   1.553 -0.0357  1.7050 -1.0255
 6359TIP3   OH240567   2.875   1.718  12.547 -0.6603 -0.0596 -0.2606
 6359TIP3    H140568   2.827   1.642  12.580 -1.4696  0.5739  0.0418
 6359TIP3    H240569   2.966   1.700  12.568 -0.9904 -0.3999  0.8852
 6360TIP3   OH240570   0.401   0.235  17.203  0.2794 -0.3703 -0.2489
 6360TIP3    H140571   0.311   0.265  17.220  0.0234 -0.9710 -0.5604
 6360TIP3    H240572   0.447   0.253  17.285  0.5968  2.6079 -0.9988
 6361TIP3   OH240573   3.353   5.008   1.126 -0.4338 -0.1260  0.0203
 6361TIP3    H140574   3.311   5.050   1.201  0.4674 -1.6027  1.4007
 6361TIP3    H240575   3.422   5.068   1.099 -0.7093  0.3731  0.4404
 6362TIP3   OH240576   3.741   2.693   3.527 -0.3444 -0.1494 -0.8088
 6362TIP3    H140577   3.798   2.640   3.472  0.1145 -1.1043  0.5661
 6362TIP3    H240578   3.793   2.713   3.605 -1.3941  0.1218 -0.1570
 6363TIP3   OH240579   1.719   3.967   2.521 -0.1622  0.5677  0.0594
 6363TIP3    H140580   1.725   4.047   2.469  1.2756  0.4889  0.0635
 6363TIP3    H240581   1.676   3.993   2.602 -0.2144  1.2214 -0.1765
 6364TIP3   OH240582   2.962   5.765   1.574 -0.5551 -0.1519 -0.6762
 6364TIP3    H140583   2.983   5.823   1.648 -1.5914  1.5400 -1.6888
 6364TIP3    H240584   2.993   5.813   1.497 -0.4139 -1.4565 -1.4358
 6365TIP3   OH240585   0.594   0.196  15.626  0.3709 -0.3788  0.2331
 6365TIP3    H140586   0.634   0.149  15.553 -1.2645 -0.5654 -0.5692
 6365TIP3    H240587   0.668   0.235  15.673  1.5648 -1.6889 -0.5119
 6366TIP3   OH240588   0.754   1.734   2.465  0.3591 -0.3092  0.2951
 6366TIP3    H140589   0.840   1.706   2.435  0.0142 -1.6672  0.5382
 6366TIP3    H240590   0.750   1.705   2.556 -0.7199 -1.1461  0.0017
 6367TIP3   OH240591   4.433   6.457   4.213  0.2468 -0.0558  0.8939
 6367TIP3    H140592   4.379   6.377   4.211  1.0906 -0.6770  2.2251
 6367TIP3    H240593   4.380   6.522   4.168 -0.5054 -1.3449 -0.1400
 6368TIP3   OH240594   2.677   3.101   4.654  0.7954  0.0276  0.4024
 6368TIP3    H140595   2.627   3.038   4.603  1.8036 -0.3249 -0.1581
 6368TIP3    H240596   2.628   3.183   4.648 -0.0114 -0.4639  0.3438
 6369TIP3   OH240597   5.485   2.834   5.964 -0.0538 -0.0248  0.1945
 6369TIP3    H140598   5.439   2.769   6.017  1.1838 -0.8596  0.2559
 6369TIP3    H240599   5.443   2.830   5.878 -0.7505 -0.0760  0.5396
 6370TIP3   OH240600   3.785   1.186  15.881  0.0144 -0.0193  0.2169
 6370TIP3    H140601   3.768   1.172  15.975 -0.0242 -2.5541 -0.1536
 6370TIP3    H240602   3.859   1.130  15.861 -0.9357 -0.6568 -1.6047
 6371TIP3   OH240603   2.363   3.442  13.762  0.2585  0.2456  0.2257
 6371TIP3    H140604   2.421   3.419  13.835  0.8894 -0.5143 -0.5085
 6371TIP3    H240605   2.304   3.368  13.755  0.3815  0.1904 -0.2220
 6372TIP3   OH240606   4.449   4.400   3.669  0.0074 -0.2552  0.7452
 6372TIP3    H140607   4.383   4.411   3.737  1.7617 -0.4238  2.5153
 6372TIP3    H240608   4.487   4.314   3.686 -0.7497 -1.0746 -1.5474
 6373TIP3   OH240609   6.033   2.965   2.611 -0.1209  0.1590  0.1342
 6373TIP3    H140610   5.953   2.976   2.663  0.2975 -0.1601  0.8553
 6373TIP3    H240611   6.006   2.984   2.521 -1.2001 -0.7296  0.2486
 6374TIP3   OH240612   4.000   0.956   2.115  0.0742 -0.4953 -0.3072
 6374TIP3    H140613   3.933   1.010   2.157  0.2638  0.1033 -0.7643
 6374TIP3    H240614   4.070   1.017   2.094 -0.1442 -0.7372 -1.7650
 6375TIP3   OH240615   5.808   0.654   1.834  0.1153  0.2854  0.1885
 6375TIP3    H140616   5.853   0.614   1.908  0.2716 -0.9334 -0.5527
 6375TIP3    H240617   5.811   0.748   1.851  1.3019  0.0847  1.0663
 6376TIP3   OH240618   5.521   6.466   4.139 -0.0648 -0.6473 -0.3293
 6376TIP3    H140619   5.546   6.375   4.123 -1.9919 -0.8280 -2.5611
 6376TIP3    H240620   5.602   6.508   4.167  1.6969 -2.2511 -2.7567
 6377TIP3   OH240621   4.549   5.999  16.731  0.0469 -0.2716  0.5343
 6377TIP3    H140622   4.503   6.052  16.796  1.1884  0.2121  0.9568
 6377TIP3    H240623   4.642   6.015  16.747  0.3483  1.0163 -2.1747
 6378TIP3   OH240624   4.082   1.688   5.397  0.1623  0.0242 -0.1641
 6378TIP3    H140625   3.998   1.667   5.438  1.0309  1.6826  2.5882
 6378TIP3    H240626   4.085   1.783   5.395  1.7551 -0.0172 -0.7002
 6379TIP3   OH240627   5.427   5.068  14.940 -0.0033  0.0421 -0.6482
 6379TIP3    H140628   5.336   5.059  14.971 -0.3375 -1.8083 -2.0964
 6379TIP3    H240629   5.420   5.073  14.845  1.4445 -0.6145 -0.8066
 6380TIP3   OH240630   2.725   0.743  14.752  0.1615  0.5073  0.4374
 6380TIP3    H140631   2.715   0.838  14.747  0.5965  0.5179 -0.2773
 6380TIP3    H240632   2.651   0.709  14.702 -0.2836  0.4601  1.1270
 6381TIP3   OH240633   2.827   2.488  13.371 -0.1534  0.1759 -0.2487
 6381TIP3    H140634   2.843   2.448  13.286 -0.0524  1.4667 -0.8412
 6381TIP3    H240635   2.772   2.424  13.417  0.5397 -0.9399 -0.9286
 6382TIP3   OH240636   1.321   5.361  11.908  0.0072 -0.1881  0.1101
 6382TIP3    H140637   1.296   5.434  11.965 -2.6791 -1.7359  1.0137
 6382TIP3    H240638   1.278   5.381  11.825 -1.5803 -1.2169  0.6672
 6383TIP3   OH240639   4.282   2.688   2.371  0.3900  0.0422  0.1318
 6383TIP3    H140640   4.270   2.724   2.458 -0.7554  0.6381 -0.2599
 6383TIP3    H240641   4.374   2.663   2.367  0.7294  1.1277  1.0940
 6384TIP3   OH240642   5.554   2.925  15.468  0.3009  0.3386  0.7589
 6384TIP3    H140643   5.493   2.969  15.528 -1.5699  0.6693 -1.3327
 6384TIP3    H240644   5.526   2.834  15.468 -0.5214  0.5740 -0.5468
 6385TIP3   OH240645   6.176   2.459  14.613  0.0460 -0.6739  0.1891
 6385TIP3    H140646   6.131   2.543  14.613  2.6335  0.7632  0.2927
 6385TIP3    H240647   6.149   2.416  14.533  1.2614  1.7226 -1.5699
 6386TIP3   OH240648   3.846   3.732   3.992  0.2636 -0.2655  0.0496
 6386TIP3    H140649   3.754   3.749   4.014  0.1350 -1.1100  0.1951
 6386TIP3    H240650   3.856   3.638   4.004  1.7074  0.1253  2.1648
 6387TIP3   OH240651   5.339   2.725  16.884  0.1871  0.0588 -0.1856
 6387TIP3    H140652   5.255   2.685  16.905 -0.6321  0.8331 -1.8998
 6387TIP3    H240653   5.404   2.662  16.913 -1.0114 -0.9916  0.2364
 6388TIP3   OH240654   2.004   6.257   3.145 -0.3169 -0.0221  0.3616
 6388TIP3    H140655   1.939   6.222   3.084 -0.4649  0.8155  0.0387
 6388TIP3    H240656   1.986   6.211   3.227 -0.4745 -0.7465 -0.0723
 6389TIP3   OH240657   3.910   6.327   0.715 -0.5538 -0.6215  0.0760
 6389TIP3    H140658   3.992   6.376   0.721 -0.7763  0.0023 -1.7777
 6389TIP3    H240659   3.841   6.393   0.723 -0.8834 -1.0220  0.6210
 6390TIP3   OH240660   4.790   4.254  11.932 -0.5004 -0.4951 -0.3887
 6390TIP3    H140661   4.736   4.175  11.925  1.1756 -1.5925 -1.2323
 6390TIP3    H240662   4.880   4.221  11.937  0.1678  1.3388 -0.1260
 6391TIP3   OH240663   1.661   0.275  17.283 -0.0147 -0.3716 -0.1336
 6391TIP3    H140664   1.620   0.252  17.200  0.3244 -0.6882 -0.2155
 6391TIP3    H240665   1.745   0.228  17.282  0.2004  0.0051  0.1722
 6392TIP3   OH240666   2.073   1.754  11.852  0.2764  0.1256 -0.0613
 6392TIP3    H140667   2.137   1.778  11.784 -2.5216  0.1231 -2.7926
 6392TIP3    H240668   2.094   1.812  11.925  3.6413 -0.1526 -0.7203
 6393TIP3   OH240669   2.211   4.462  13.883  0.3064 -0.4187 -0.1247
 6393TIP3    H140670   2.141   4.516  13.918 -0.8507 -1.2095 -1.2009
 6393TIP3    H240671   2.190   4.373  13.911  1.1390 -0.5903 -0.0275
 6394TIP3   OH240672   2.857   3.803  10.119 -0.7073 -0.4808 -0.6204
 6394TIP3    H140673   2.940   3.796  10.072 -0.2583  0.3227  0.0524
 6394TIP3    H240674   2.836   3.896  10.118 -0.5767 -0.4291  0.9671
 6395TIP3   OH240675   1.009   1.018   3.176 -0.0930  0.4975  0.1189
 6395TIP3    H140676   0.978   1.108   3.179 -2.0309 -0.1717  0.7888
 6395TIP3    H240677   1.025   0.995   3.268  3.4897  1.1505 -0.2449
 6396TIP3   OH240678   1.583   3.977   6.012 -1.2262  0.0816  0.5732
 6396TIP3    H140679   1.607   4.010   6.099 -1.6468 -1.8963  1.4605
 6396TIP3    H240680   1.494   4.010   5.998 -0.7912  1.2237  0.4668
 6397TIP3   OH240681   0.407   0.931  17.130  0.2296  0.5572  0.5192
 6397TIP3    H140682   0.480   0.971  17.177 -0.3983  2.2440  0.0920
 6397TIP3    H240683   0.329   0.959  17.178 -0.2895  0.7175 -0.3983
 6398TIP3   OH240684   3.868   1.601  11.895  0.4368 -0.4426 -0.0614
 6398TIP3    H140685   3.817   1.681  11.884  0.7316 -0.2588 -0.1086
 6398TIP3    H240686   3.947   1.630  11.942  0.6879 -0.6508 -0.3554
 6399TIP3   OH240687   0.858   6.422   4.623 -0.4627  0.2068 -0.4558
 6399TIP3    H140688   0.802   6.447   4.696 -0.3156  1.0186 -0.6183
 6399TIP3    H240689   0.800   6.377   4.562 -0.7588  0.2793 -0.2271
 6400TIP3   OH240690   5.620   3.879  13.846  0.1959 -0.1693 -0.3880
 6400TIP3    H140691   5.570   3.958  13.824 -0.6041 -0.6504 -0.3179
 6400TIP3    H240692   5.598   3.816  13.778 -0.1047 -0.7309  0.2200
 6401TIP3   OH240693   4.583   0.997  16.973  0.3449  0.4557  0.6492
 6401TIP3    H140694   4.531   1.060  16.922 -1.6740 -0.3858  1.5967
 6401TIP3    H240695   4.563   0.912  16.933 -1.6243 -0.2825  3.0525
 6402TIP3   OH240696   5.998   4.233  11.794  0.7461 -0.7120  0.0799
 6402TIP3    H140697   5.996   4.328  11.785  0.8005 -0.6964  0.2398
 6402TIP3    H240698   6.004   4.201  11.703 -1.6238 -0.6391 -0.1300
 6403TIP3   OH240699   1.604   5.825   2.574  0.2855 -0.1257 -0.0020
 6403TIP3    H140700   1.552   5.785   2.644 -1.9131  0.9871 -0.9652
 6403TIP3    H240701   1.651   5.751   2.535  0.9962 -0.8612  2.1599
 6404TIP3   OH240702   4.540   3.264  13.778 -0.4850 -0.0616  0.4183
 6404TIP3    H140703   4.457   3.224  13.802 -0.8908 -0.3070 -1.3431
 6404TIP3    H240704   4.604   3.193  13.786 -0.4083  0.1495  1.8552
 6405TIP3   OH240705   1.991   5.341   2.669  0.4396  0.2848 -0.0059
 6405TIP3    H140706   1.949   5.295   2.597  0.6814 -0.0111  0.0395
 6405TIP3    H240707   1.932   5.328   2.744  0.9780 -0.7916  0.2543
 6406TIP3   OH240708   4.833   4.245   0.284  0.1542  0.0965 -0.2697
 6406TIP3    H140709   4.901   4.307   0.258  1.7147 -0.9460  1.2878
 6406TIP3    H240710   4.877   4.160   0.288 -1.7848 -1.0238 -1.6389
 6407TIP3   OH240711   4.314   1.478  16.313 -0.0292  0.0768  0.2781
 6407TIP3    H140712   4.337   1.567  16.339 -0.9623  0.6138 -0.6717
 6407TIP3    H240713   4.382   1.423  16.351  1.5024  1.3733 -0.5436
 6408TIP3   OH240714   5.288   5.870   1.174  0.2491  0.1835 -0.4813
 6408TIP3    H140715   5.383   5.870   1.169  0.3228  0.8025  0.7458
 6408TIP3    H240716   5.266   5.792   1.226  0.0820  0.0599 -0.7323
 6409TIP3   OH240717   4.339   3.278  11.787 -0.0520 -0.1353 -0.2888
 6409TIP3    H140718   4.398   3.275  11.862 -0.4920 -3.3685 -0.0189
 6409TIP3    H240719   4.253   3.259  11.824 -0.6905  0.7837 -1.2690
 6410TIP3   OH240720   2.586   5.635  14.482 -0.1332 -0.0842 -0.0874
 6410TIP3    H140721   2.602   5.541  14.490 -2.4644 -0.4108  0.9995
 6410TIP3    H240722   2.512   5.652  14.539  0.2766  2.4443 -0.2548
 6411TIP3   OH240723   2.135   5.875   3.795  0.2764 -0.2601  0.4450
 6411TIP3    H140724   2.125   5.780   3.798  0.7502 -0.3288  0.0173
 6411TIP3    H240725   2.178   5.892   3.711 -1.5800  0.5030 -0.3793
 6412TIP3   OH240726   4.415   2.780   5.472 -0.2485 -0.6930 -0.0805
 6412TIP3    H140727   4.321   2.765   5.471 -0.2060 -0.9811  0.1849
 6412TIP3    H240728   4.440   2.788   5.380 -1.0056  2.2787 -0.1067
 6413TIP3   OH240729   0.280   5.008  10.725  0.0495  0.1687  0.4249
 6413TIP3    H140730   0.341   5.076  10.753 -3.2548  2.0396  3.4046
 6413TIP3    H240731   0.302   4.932  10.780  0.5926  0.3626  0.4787
 6414TIP3   OH240732   6.758   5.281  16.540  0.1302 -0.1736 -0.2118
 6414TIP3    H140733   6.790   5.211  16.597  2.6610 -0.5140 -1.9854
 6414TIP3    H240734   6.663   5.271  16.542  0.2147 -0.9686  2.8885
 6415TIP3   OH240735   4.869   3.285   0.408  0.3728  0.1110  0.0242
 6415TIP3    H140736   4.867   3.307   0.315 -0.1309  0.2720  0.0744
 6415TIP3    H240737   4.950   3.234   0.418 -0.4420 -1.3847 -0.8366
 6416TIP3   OH240738   2.136   6.008  16.441  0.0164  0.0857  0.0952
 6416TIP3    H140739   2.183   6.000  16.358 -1.2213  0.6934 -0.6824
 6416TIP3    H240740   2.045   6.021  16.415 -0.4000  0.1177  1.5594
 6417TIP3   OH240741   2.839   1.884   2.370  0.1261  0.4140  0.0972
 6417TIP3    H140742   2.803   1.796   2.362 -0.6298  0.3234  3.6484
 6417TIP3    H240743   2.762   1.940   2.376  0.6154  1.0520  0.3944
 6418TIP3   OH240744   0.934   0.640  15.158  0.0329 -0.5078 -0.5233
 6418TIP3    H140745   0.932   0.729  15.192 -0.3207  0.1323 -2.1770
 6418TIP3    H240746   0.996   0.643  15.086  1.0429 -1.9325  0.2475
 6419TIP3   OH240747   1.644   3.946  15.164 -0.1072 -0.0600 -0.1976
 6419TIP3    H140748   1.676   4.022  15.116 -1.9772  1.2936  0.6369
 6419TIP3    H240749   1.711   3.928  15.230 -0.2158  1.6669  0.4103
 6420TIP3   OH240750   4.034   1.363  11.681  0.0836  0.0739 -0.0467
 6420TIP3    H140751   4.038   1.412  11.599 -0.4994 -1.9734 -1.3136
 6420TIP3    H240752   3.940   1.353  11.698  0.1953 -1.4159 -0.2865
 6421TIP3   OH240753   3.963   6.212   5.658  0.5997 -0.4590 -0.5767
 6421TIP3    H140754   3.997   6.183   5.573 -1.2061 -1.9520 -0.8289
 6421TIP3    H240755   3.896   6.147   5.679 -0.7391  1.3509  0.7957
 6422TIP3   OH240756   2.034   4.156  15.225 -0.5271  0.3311  0.9202
 6422TIP3    H140757   2.119   4.195  15.205 -0.6520 -0.2854 -0.9051
 6422TIP3    H240758   2.055   4.066  15.250 -0.6518  0.1886  0.5021
 6423TIP3   OH240759   0.350   0.557   4.837  0.4404  0.4045  0.5135
 6423TIP3    H140760   0.332   0.505   4.759  1.3628  0.1547  0.4641
 6423TIP3    H240761   0.265   0.563   4.882  0.0297  0.0721 -0.2094
 6424TIP3   OH240762   3.867   0.924   4.461 -0.0343 -0.0195 -0.2407
 6424TIP3    H140763   3.836   0.883   4.381 -1.4732 -1.3594  0.9760
 6424TIP3    H240764   3.881   1.016   4.437 -0.8023 -0.3263 -1.9248
 6425TIP3   OH240765   1.326   2.920   2.210  0.1175 -0.4417  0.0978
 6425TIP3    H140766   1.235   2.932   2.236  0.4260 -0.4395  1.1804
 6425TIP3    H240767   1.345   2.994   2.152  0.0564  0.7260  1.5458
 6426TIP3   OH240768   3.573   2.583   2.950 -0.0017  0.4910 -0.4097
 6426TIP3    H140769   3.640   2.646   2.977 -0.7833 -0.1050  3.1213
 6426TIP3    H240770   3.622   2.502   2.935  0.0671 -0.1252  2.8185
 6427TIP3   OH240771   0.310   4.279   2.074  0.5324  0.3866  0.1801
 6427TIP3    H140772   0.345   4.211   2.132  1.2260  0.8608  0.3227
 6427TIP3    H240773   0.387   4.317   2.033  0.2228  1.7871  0.8748
 6428TIP3   OH240774   3.945   5.342   5.866 -0.0742  0.5889  0.1458
 6428TIP3    H140775   3.915   5.403   5.798  0.3730 -0.0609 -0.6355
 6428TIP3    H240776   3.881   5.271   5.865 -0.1954  0.6840  0.5761
 6429TIP3   OH240777   2.933   5.530  16.752  0.5754 -0.3891  0.1232
 6429TIP3    H140778   2.988   5.608  16.751  1.3144 -0.8807  1.7462
 6429TIP3    H240779   2.994   5.458  16.733 -0.1382 -0.5702 -1.5825
 6430TIP3   OH240780   2.083   6.598  12.093 -0.2857  0.3613 -0.0142
 6430TIP3    H140781   2.123   6.516  12.063  0.6811  0.7199  0.2858
 6430TIP3    H240782   2.125   6.666  12.042 -0.5605  0.7386  0.2592
 6431TIP3   OH240783   4.227   0.612  15.900 -0.6966  0.0551  0.2743
 6431TIP3    H140784   4.274   0.546  15.850 -0.4820  0.4696 -0.0744
 6431TIP3    H240785   4.158   0.564  15.945  0.1718 -0.6049  0.9443
 6432TIP3   OH240786   2.341   0.972   0.192  0.1648 -0.3005  0.2319
 6432TIP3    H140787   2.262   0.957   0.139 -1.3951  0.8667  2.1648
 6432TIP3    H240788   2.360   1.065   0.180  2.0457 -0.8429 -1.2430
 6433TIP3   OH240789   0.551   5.940  16.725  0.0062  0.3654 -0.2078
 6433TIP3    H140790   0.597   6.012  16.680  0.2332 -0.0578 -0.6549
 6433TIP3    H240791   0.605   5.920  16.801  0.6869 -0.2854 -0.8561
 6434TIP3   OH240792   2.247   5.928   4.579 -0.0636  0.6746  0.4188
 6434TIP3    H140793   2.236   5.833   4.581  2.2210  0.3970  0.8348
 6434TIP3    H240794   2.159   5.962   4.596 -0.7470 -1.3619  1.1432
 6435TIP3   OH240795   3.889   1.688  15.032  0.0468 -0.2073 -0.0763
 6435TIP3    H140796   3.891   1.592  15.030  0.5617 -0.2077  0.2810
 6435TIP3    H240797   3.976   1.714  15.001  0.0468  0.1370  0.2088
 6436TIP3   OH240798   1.007   1.457   2.980 -0.1114  0.3113 -0.1971
 6436TIP3    H140799   1.003   1.493   2.892 -0.0173  1.2047  0.1561
 6436TIP3    H240800   0.998   1.533   3.038  0.3472 -0.2009  0.5665
 6437TIP3   OH240801   4.648   2.521  15.964  0.6428  0.0349  0.2132
 6437TIP3    H140802   4.650   2.438  16.013  0.4468 -0.5298 -0.7268
 6437TIP3    H240803   4.595   2.501  15.887 -0.7880  1.4897  0.7976
 6438TIP3   OH240804   2.738   6.552  12.720  0.5577 -0.5213  0.0452
 6438TIP3    H140805   2.794   6.570  12.796 -1.8073  0.5183  1.5934
 6438TIP3    H240806   2.684   6.478  12.748 -1.6996  1.1119  0.1957
 6439TIP3   OH240807   4.184   2.684  13.489  0.0457 -0.1218  0.0275
 6439TIP3    H140808   4.254   2.749  13.493 -0.4389  0.4452 -0.7395
 6439TIP3    H240809   4.136   2.695  13.572  0.4882 -0.1035  0.2841
 6440TIP3   OH240810   0.997   5.464   2.830 -0.2414 -0.5345  0.1345
 6440TIP3    H140811   1.025   5.385   2.784 -2.1672 -1.4545  0.4703
 6440TIP3    H240812   0.956   5.432   2.910  2.3031  1.0122  2.1263
 6441TIP3   OH240813   0.350   4.733  12.863  0.0663 -0.1877 -0.7739
 6441TIP3    H140814   0.404   4.707  12.938  0.1976 -1.3165 -1.2506
 6441TIP3    H240815   0.276   4.779  12.902 -1.1655 -2.9308  0.2801
 6442TIP3   OH240816   2.232   1.581   3.935  0.5920 -0.5615  0.7723
 6442TIP3    H140817   2.241   1.495   3.976  2.1377  0.4883  2.7470
 6442TIP3    H240818   2.192   1.635   4.003  1.5860  0.7686  0.3183
 6443TIP3   OH240819   2.461   5.131  15.841  0.5826  0.2578  0.1578
 6443TIP3    H140820   2.497   5.210  15.801  1.8105 -0.1235  0.4941
 6443TIP3    H240821   2.414   5.088  15.770  1.3415  0.4286 -0.4496
 6444TIP3   OH240822   6.739   1.251   0.541 -0.3093  0.6277 -0.6917
 6444TIP3    H140823   6.706   1.261   0.630 -0.5275  0.7364 -0.7830
 6444TIP3    H240824   6.751   1.156   0.531 -1.9670  0.4417 -1.1352
 6445TIP3   OH240825   5.127   2.257   0.857  0.2412 -0.0708 -0.9394
 6445TIP3    H140826   5.101   2.343   0.890 -1.2717  0.3919 -3.1953
 6445TIP3    H240827   5.176   2.277   0.777  0.1249 -1.2885 -1.3183
 6446TIP3   OH240828   2.295   3.777   3.045  0.0796  0.1437  0.4618
 6446TIP3    H140829   2.309   3.872   3.050 -4.6658  0.9889  0.0242
 6446TIP3    H240830   2.252   3.764   2.960 -0.1021 -2.3213  0.9032
 6447TIP3   OH240831   0.155   2.890  14.941 -0.4679 -0.2067 -0.6537
 6447TIP3    H140832   0.213   2.961  14.913 -0.7439  0.1056 -0.4214
 6447TIP3    H240833   0.204   2.845  15.010 -1.1316  0.9806  0.6016
 6448TIP3   OH240834   0.364   1.936  16.375  0.3800  0.0322 -0.2446
 6448TIP3    H140835   0.434   1.994  16.404  0.2974  0.5011 -0.9584
 6448TIP3    H240836   0.311   1.990  16.316  0.5358 -0.8683 -1.2399
 6449TIP3   OH240837   2.154   4.186  11.694 -0.2001 -0.2783  0.2400
 6449TIP3    H140838   2.066   4.163  11.724 -0.2172 -0.3736  0.1212
 6449TIP3    H240839   2.204   4.104  11.703 -1.0085 -1.2119 -2.9821
 6450TIP3   OH240840   4.374   3.877  15.005 -0.1613  0.7935 -0.2883
 6450TIP3    H140841   4.466   3.858  14.987  0.4437  1.0227  2.3024
 6450TIP3    H240842   4.330   3.792  15.004  0.4521  0.4666  0.3549
 6451TIP3   OH240843   1.807   3.009  13.336  0.4125  0.1946  0.1447
 6451TIP3    H140844   1.830   2.983  13.426  1.4564 -1.3993 -0.5516
 6451TIP3    H240845   1.861   2.952  13.281 -2.8786 -1.4222 -1.5565
 6452TIP3   OH240846   0.350   0.512   3.045 -0.7001  0.4640  0.3356
 6452TIP3    H140847   0.255   0.523   3.045 -0.5833  1.4645 -0.1815
 6452TIP3    H240848   0.385   0.600   3.052  0.2067  0.2301 -1.0982
 6453TIP3   OH240849   3.481   2.971  12.138 -0.9041 -0.7245  0.1125
 6453TIP3    H140850   3.479   2.956  12.043 -4.6150  0.6486 -0.0895
 6453TIP3    H240851   3.435   2.895  12.174  1.9206 -2.0719  1.0004
 6454TIP3   OH240852   1.612   5.207  15.520  0.1491  0.3068  0.1497
 6454TIP3    H140853   1.583   5.280  15.575 -0.8201 -0.5440  0.7934
 6454TIP3    H240854   1.642   5.249  15.439  2.0654  1.6142  1.5107
 6455TIP3   OH240855   5.877   5.293  17.260  0.1145  0.3197 -0.5956
 6455TIP3    H140856   5.903   5.374  17.217 -1.1728  0.4484 -1.1434
 6455TIP3    H240857   5.874   5.228  17.190  0.4619 -0.0469 -0.2742
 6456TIP3   OH240858   0.725   5.586  15.141  0.4914  0.2952  0.0564
 6456TIP3    H140859   0.779   5.516  15.178  1.8727  0.4281 -1.6214
 6456TIP3    H240860   0.642   5.544  15.120 -0.1179  0.0850  2.6619
 6457TIP3   OH240861   1.367   4.242   5.317 -0.4341  0.7941  0.2408
 6457TIP3    H140862   1.356   4.232   5.222 -2.2058  0.5444  0.4463
 6457TIP3    H240863   1.456   4.212   5.334 -0.6408 -0.6965 -1.1363
 6458TIP3   OH240864   1.391   0.497   3.348 -0.1666 -0.0079 -0.2552
 6458TIP3    H140865   1.427   0.416   3.385  0.1412  0.2062 -0.0830
 6458TIP3    H240866   1.453   0.523   3.281 -0.0895  0.2671 -0.0802
 6459TIP3   OH240867   6.545   5.998  11.651  0.4189 -0.5109  0.1819
 6459TIP3    H140868   6.571   6.074  11.599 -2.0432 -0.4297 -0.9923
 6459TIP3    H240869   6.462   6.023  11.690 -0.0079 -2.2933  0.4708
 6460TIP3   OH240870   5.966   5.994   6.078  0.2765  0.2023  0.2014
 6460TIP3    H140871   5.885   5.972   6.124  1.2915 -1.4185  1.2559
 6460TIP3    H240872   6.032   6.002   6.147  2.0733 -3.3001 -0.9736
 6461TIP3   OH240873   5.699   1.297  15.202 -0.4955 -0.1130 -0.2355
 6461TIP3    H140874   5.688   1.355  15.127 -2.2011  0.3278  0.3242
 6461TIP3    H240875   5.780   1.249  15.184  0.0283  1.2086 -1.5204
 6462TIP3   OH240876   4.820   3.426  14.391 -0.6580 -0.1111  0.4243
 6462TIP3    H140877   4.751   3.446  14.454  0.1287  1.7589  0.7346
 6462TIP3    H240878   4.847   3.337  14.411 -1.8322 -0.2549  1.3834
 6463TIP3   OH240879   2.855   2.896  12.946  0.3692 -0.2532 -0.2682
 6463TIP3    H140880   2.810   2.817  12.975 -0.9221 -0.1127 -1.8095
 6463TIP3    H240881   2.806   2.925  12.869  2.1600  0.7944 -1.0599
 6464TIP3   OH240882   4.075   1.250  10.700 -0.0384 -0.4876 -0.7183
 6464TIP3    H140883   4.047   1.321  10.642  1.0867  0.0133 -0.6579
 6464TIP3    H240884   4.133   1.197  10.646 -1.0700 -1.5162 -0.8370
 6465TIP3   OH240885   2.030   4.125   0.504 -0.8099  0.2701 -0.1220
 6465TIP3    H140886   2.093   4.082   0.562 -0.0164 -1.3598 -2.0812
 6465TIP3    H240887   1.966   4.057   0.484  0.6726 -0.2115 -3.5858
 6466TIP3   OH240888   0.890   3.314  15.688 -0.5881  0.1315  0.5879
 6466TIP3    H140889   0.924   3.381  15.629 -2.9351  0.1520 -0.8060
 6466TIP3    H240890   0.952   3.241  15.679  0.6476  1.1843  0.2988
 6467TIP3   OH240891   5.818   2.741   1.186 -0.4839 -0.0856  0.0688
 6467TIP3    H140892   5.805   2.648   1.166  0.1664 -0.1489 -0.0583
 6467TIP3    H240893   5.730   2.773   1.206 -0.9436 -0.3383 -1.5263
 6468TIP3   OH240894   6.473   6.059  15.086 -0.1358 -0.2415  0.5709
 6468TIP3    H140895   6.459   6.034  15.178 -0.5208  0.3208  0.6678
 6468TIP3    H240896   6.388   6.044  15.044 -0.5892  1.6034  0.7955
 6469TIP3   OH240897   3.373   4.897   0.860 -0.4349 -0.8623 -0.7669
 6469TIP3    H140898   3.444   4.833   0.865 -1.4301 -1.8515  1.2125
 6469TIP3    H240899   3.312   4.860   0.797  0.6518 -0.1454 -2.2669
 6470TIP3   OH240900   3.248   0.374   4.698 -0.2861  0.6055  0.3618
 6470TIP3    H140901   3.323   0.393   4.755  0.5203 -0.3007 -0.3697
 6470TIP3    H240902   3.250   0.443   4.632  0.6722 -0.1146 -0.3841
 6471TIP3   OH240903   0.749   0.192   2.959 -0.1551 -0.1873 -0.6050
 6471TIP3    H140904   0.704   0.108   2.957  0.0153 -0.3554  1.6099
 6471TIP3    H240905   0.778   0.202   3.050  1.6396  1.3098 -1.2956
 6472TIP3   OH240906   3.688   2.928   1.303 -0.7387  0.1737 -0.0802
 6472TIP3    H140907   3.615   2.904   1.361 -1.2287 -1.0829 -1.1851
 6472TIP3    H240908   3.755   2.963   1.362 -2.3250  1.6064  0.9360
 6473TIP3   OH240909   5.004   2.914   1.247 -0.0598  0.1946  0.2076
 6473TIP3    H140910   4.990   3.008   1.255  1.3805  0.3326  1.1663
 6473TIP3    H240911   5.019   2.899   1.153  0.4909  1.0193  0.1649
 6474TIP3   OH240912   0.477   6.519   4.416 -0.2927 -0.4086 -0.1420
 6474TIP3    H140913   0.448   6.557   4.333 -0.5489  0.3063  0.2708
 6474TIP3    H240914   0.424   6.563   4.482  0.4108 -0.4656  0.4623
 6475TIP3   OH240915   2.780   0.085  15.002 -0.3221  0.2100 -0.3604
 6475TIP3    H140916   2.697   0.089  15.051  0.0765  1.9045  0.2012
 6475TIP3    H240917   2.824   0.008  15.038 -0.6097  0.6820  1.0598
 6476TIP3   OH240918   6.386   6.432   5.744  0.6055 -0.7246  0.4796
 6476TIP3    H140919   6.393   6.404   5.653  0.3621 -1.4337  0.6752
 6476TIP3    H240920   6.472   6.470   5.764  0.3320  0.3202 -0.3347
 6477TIP3   OH240921   3.900   4.322   0.214 -0.3081  0.2036  0.2760
 6477TIP3    H140922   3.984   4.330   0.260  2.1292  3.3158 -4.2904
 6477TIP3    H240923   3.902   4.236   0.174 -0.3092 -0.5799  1.9108
 6478TIP3   OH240924   2.929   2.094  17.193  0.0598 -0.4098  0.2466
 6478TIP3    H140925   2.959   2.139  17.114  0.3834  0.8585  1.0748
 6478TIP3    H240926   2.947   2.002  17.177  1.8929  0.0444 -0.3735
 6479TIP3   OH240927   1.872   6.809   3.663 -0.6414 -0.4605 -0.6391
 6479TIP3    H140928   1.909   6.873   3.725  2.6000 -0.5762 -2.3103
 6479TIP3    H240929   1.906   6.725   3.693 -1.7966 -0.9467 -0.6660
 6480TIP3   OH240930   0.882   1.142  17.019 -0.0959 -0.6007  0.6560
 6480TIP3    H140931   0.893   1.234  17.044  0.4566 -0.9287  1.6547
 6480TIP3    H240932   0.972   1.110  17.007 -0.3178 -0.7695 -0.6030
 6481TIP3   OH240933   4.931   4.976  15.043 -0.1487  0.2315  0.0261
 6481TIP3    H140934   5.004   4.938  14.994 -0.8790 -0.4645 -0.5310
 6481TIP3    H240935   4.963   4.984  15.132  0.6414  0.0078 -0.2355
 6482TIP3   OH240936   4.260   2.729  17.227  0.0386 -0.0900 -0.6690
 6482TIP3    H140937   4.301   2.643  17.236  0.4939  0.1429 -0.4783
 6482TIP3    H240938   4.214   2.743  17.310 -2.0584 -1.1812 -1.6069
 6483TIP3   OH240939   5.518   4.165  16.957 -0.4393 -0.7492 -0.3727
 6483TIP3    H140940   5.473   4.196  17.036 -0.5368 -0.8406 -0.3918
 6483TIP3    H240941   5.565   4.086  16.986  1.0729  0.2908  0.0603
 6484TIP3   OH240942   5.612   5.471  15.997 -0.0628 -0.1353  0.6703
 6484TIP3    H140943   5.561   5.486  16.076 -0.5136 -0.1883  0.3865
 6484TIP3    H240944   5.703   5.470  16.028 -0.2367 -0.1815  1.1908
 6485TIP3   OH240945   0.790   5.158  15.710  0.2290  0.2203 -0.2425
 6485TIP3    H140946   0.855   5.205  15.657  0.5296  1.1590  0.9087
 6485TIP3    H240947   0.735   5.113  15.647 -0.9233  3.2466 -1.4888
 6486TIP3   OH240948   1.276   0.313  16.875 -0.1707 -0.2428  0.2678
 6486TIP3    H140949   1.350   0.317  16.936  0.9854 -0.8742 -1.0553
 6486TIP3    H240950   1.285   0.392  16.822 -0.7796 -0.0465  0.4498
 6487TIP3   OH240951   1.136   0.750   5.504  0.4508 -0.5231  0.2567
 6487TIP3    H140952   1.219   0.714   5.536  0.7183 -0.4908 -0.3874
 6487TIP3    H240953   1.083   0.762   5.583  0.5445 -1.8499  0.5459
 6488TIP3   OH240954   0.258   4.958   0.668  0.0064 -0.6044 -0.4685
 6488TIP3    H140955   0.187   4.964   0.732  0.4782  0.6543 -0.0346
 6488TIP3    H240956   0.253   4.869   0.634 -1.6245 -0.6038 -0.2733
 6489TIP3   OH240957   5.722   1.384  14.885  0.4989  0.5682 -0.0480
 6489TIP3    H140958   5.790   1.440  14.923  0.2841  0.0460  1.1352
 6489TIP3    H240959   5.759   1.296  14.890 -1.0890  0.0090  2.5576
 6490TIP3   OH240960   3.614   2.817   4.165 -0.3683  0.3588  0.0975
 6490TIP3    H140961   3.596   2.781   4.252 -0.4296  0.4817  0.1340
 6490TIP3    H240962   3.573   2.903   4.165 -0.8600  0.1267 -0.2469
 6491TIP3   OH240963   2.592   0.406  16.982  0.3537 -0.1509 -0.4049
 6491TIP3    H140964   2.536   0.441  16.913  0.4825  0.6073 -0.1208
 6491TIP3    H240965   2.670   0.375  16.936  0.0751 -0.4242 -0.6993
 6492TIP3   OH240966   3.913   1.247   2.694  0.0904  0.1300 -0.7202
 6492TIP3    H140967   3.937   1.191   2.620  2.2150 -1.3826  1.0666
 6492TIP3    H240968   3.928   1.336   2.662  0.8373 -0.4985 -2.1627
 6493TIP3   OH240969   3.782   2.472  12.313 -0.0123 -0.3265  0.2215
 6493TIP3    H140970   3.687   2.481  12.321 -0.0304  0.0854 -0.4008
 6493TIP3    H240971   3.812   2.453  12.402 -0.6644 -0.3120  0.4457
 6494TIP3   OH240972   1.757   1.570   0.187 -0.1519 -0.0987  0.6863
 6494TIP3    H140973   1.711   1.633   0.243  1.8353  2.1133 -0.0956
 6494TIP3    H240974   1.843   1.560   0.229  0.7026  0.1983 -0.9647
 6495TIP3   OH240975   1.837   4.475  15.021 -0.1060  0.1753  0.2143
 6495TIP3    H140976   1.921   4.461  14.978  0.9875  1.8346  1.7108
 6495TIP3    H240977   1.842   4.420  15.099 -0.0964  0.8279  0.6769
 6496TIP3   OH240978   5.177   3.931  12.105  0.0290  0.0296  0.1954
 6496TIP3    H140979   5.180   3.873  12.182 -3.0017 -0.2515  0.1708
 6496TIP3    H240980   5.158   3.872  12.032  0.4802  0.6182 -0.4008
 6497TIP3   OH240981   5.383   3.681  16.291 -0.0342 -0.1177  0.1410
 6497TIP3    H140982   5.430   3.597  16.288  1.3251  0.6609 -0.4164
 6497TIP3    H240983   5.364   3.702  16.200  0.1090  0.4527  0.2394
 6498TIP3   OH240984   1.315   1.624  13.033 -0.7945  0.1407  0.1567
 6498TIP3    H140985   1.387   1.650  13.090 -0.7363 -0.6432  0.4389
 6498TIP3    H240986   1.333   1.533  13.011 -1.8762 -0.1639  0.4994
 6499TIP3   OH240987   0.419   5.538  11.646 -0.4866  0.2404 -0.2799
 6499TIP3    H140988   0.344   5.559  11.590 -0.1739  1.0064 -0.4264
 6499TIP3    H240989   0.495   5.554  11.590 -0.1809  0.6950  0.2576
 6500TIP3   OH240990   0.218   5.631   1.526 -0.0832  0.7295 -0.2900
 6500TIP3    H140991   0.165   5.553   1.541  0.0399  0.7175  0.0860
 6500TIP3    H240992   0.271   5.640   1.605  0.0058  1.1122 -0.3901
 6501TIP3   OH240993   5.838   4.749  13.923 -0.0655 -0.0124  0.1049
 6501TIP3    H140994   5.792   4.792  13.995  1.2178 -0.9660  1.5249
 6501TIP3    H240995   5.832   4.810  13.851 -1.0535  1.1327  1.1388
 6502TIP3   OH240996   2.264   4.853   1.121  0.4436 -0.2021 -0.0313
 6502TIP3    H140997   2.171   4.861   1.142  0.7461 -1.5429  1.9228
 6502TIP3    H240998   2.296   4.944   1.121 -0.5731  0.1702  0.6955
 6503TIP3   OH240999   6.221   6.592  10.680  0.7195  0.0946 -0.1205
 6503TIP3    H141000   6.246   6.679  10.713 -1.2671  0.3116  0.8762
 6503TIP3    H241001   6.254   6.531  10.747 -0.6080  0.3222  0.7666
 6504TIP3   OH241002   5.282   6.322  13.511 -0.0701 -0.0003  0.2437
 6504TIP3    H141003   5.189   6.327  13.531 -0.7574 -0.3569 -2.7034
 6504TIP3    H241004   5.319   6.272  13.584 -2.7063 -2.7392 -0.2123
 6505TIP3   OH241005   1.116   4.385  14.405 -0.0463 -0.1245  0.4444
 6505TIP3    H141006   1.124   4.470  14.362  3.5625 -1.2911 -1.3669
 6505TIP3    H241007   1.148   4.400  14.494  0.4553  0.4542  0.1694
 6506TIP3   OH241008   4.278   3.766   2.844  0.1844 -0.0871  0.1613
 6506TIP3    H141009   4.259   3.834   2.781  1.0442 -0.1557 -0.1821
 6506TIP3    H241010   4.248   3.685   2.802  0.1366 -0.0474  0.1190
 6507TIP3   OH241011   5.442   2.836   6.332  0.1678 -0.3637 -0.0433
 6507TIP3    H141012   5.407   2.761   6.284 -2.6961  0.4962  0.5640
 6507TIP3    H241013   5.445   2.807   6.423  1.0294 -0.4038 -0.0795
 6508TIP3   OH241014   0.345   3.886   5.115 -0.1109  0.1356 -0.1724
 6508TIP3    H141015   0.395   3.965   5.135  0.1973 -0.1225  0.0972
 6508TIP3    H241016   0.409   3.815   5.126 -0.8012 -0.2851  1.1938
 6509TIP3   OH241017   4.383   0.480   4.400 -0.1211 -0.3954 -0.1665
 6509TIP3    H141018   4.316   0.548   4.398  0.6915  0.4372  0.7669
 6509TIP3    H241019   4.371   0.437   4.485 -0.1681 -0.9592 -0.4533
 6510TIP3   OH241020   0.128   6.469   1.898 -0.4945 -0.2501  0.1891
 6510TIP3    H141021   0.134   6.460   1.993  0.5331  1.2578  0.2979
 6510TIP3    H241022   0.216   6.498   1.872 -1.5719  2.2227 -0.8502
 6511TIP3   OH241023   5.432   0.415   4.982 -0.6044 -0.0614 -0.2250
 6511TIP3    H141024   5.474   0.426   5.068  0.5033  0.9047 -0.8712
 6511TIP3    H241025   5.375   0.492   4.974 -0.1255  0.2545 -0.6684
 6512TIP3   OH241026   6.184   1.364   5.904  0.6016 -0.2860  0.3926
 6512TIP3    H141027   6.156   1.443   5.859  1.8339  0.5000  0.9890
 6512TIP3    H241028   6.170   1.294   5.840  1.9612  0.7621 -1.1037
 6513TIP3   OH241029   3.550   1.421  11.746  0.3773 -0.8547  0.6282
 6513TIP3    H141030   3.539   1.456  11.834  1.1298  1.9538 -0.3319
 6513TIP3    H241031   3.461   1.415  11.711  0.1927 -0.5610  1.0450
 6514TIP3   OH241032   3.700   1.853   3.202 -0.1485 -0.4284 -0.6787
 6514TIP3    H141033   3.699   1.773   3.149 -2.8220 -1.4559  0.7963
 6514TIP3    H241034   3.701   1.821   3.293  1.1226  1.2587 -0.0786
 6515TIP3   OH241035   2.898   5.555   2.982  0.1491  0.6036  0.0909
 6515TIP3    H141036   2.989   5.577   3.001  0.6536 -1.1644 -0.1979
 6515TIP3    H241037   2.873   5.613   2.910  1.3289  0.5027 -0.4124
 6516TIP3   OH241038   1.804   1.237   0.017  0.0914 -0.4242  0.1945
 6516TIP3    H141039   1.891   1.263   0.048  0.2929  1.6035 -1.8806
 6516TIP3    H241040   1.743   1.283   0.074  0.3861 -0.7019  0.7408
 6517TIP3   OH241041   5.681   6.454   2.258 -0.0421 -0.2100 -0.2684
 6517TIP3    H141042   5.627   6.527   2.289 -0.3655 -0.4254 -0.3231
 6517TIP3    H241043   5.618   6.385   2.238  0.2474 -0.4265 -0.4302
 6518TIP3   OH241044   0.451   1.433   3.982  0.7733  0.3502 -0.5909
 6518TIP3    H141045   0.463   1.466   4.071  2.3539  1.4784 -1.2042
 6518TIP3    H241046   0.420   1.343   3.994  1.9617  0.1346  1.1107
 6519TIP3   OH241047   4.957   2.483   4.292 -0.4076 -0.2968  0.2890
 6519TIP3    H141048   4.934   2.397   4.328 -0.6725 -0.7925 -1.0394
 6519TIP3    H241049   4.978   2.466   4.200 -0.3862  1.0502  0.0328
 6520TIP3   OH241050   3.754   0.506  15.645  0.0227  0.6278  0.3628
 6520TIP3    H141051   3.693   0.463  15.585  1.8487 -1.2954 -0.1733
 6520TIP3    H241052   3.741   0.462  15.728 -1.2786  2.1161  0.9582
 6521TIP3   OH241053   3.079   6.235  16.009 -0.0387 -0.0353 -0.1455
 6521TIP3    H141054   3.125   6.312  16.042 -2.8491  0.9458  1.6744
 6521TIP3    H241055   3.090   6.169  16.077  1.5426 -0.9590 -1.2657
 6522TIP3   OH241056   5.271   5.255  11.590  0.0897 -0.2450  0.6963
 6522TIP3    H141057   5.185   5.279  11.626  0.1430  0.1358  0.5741
 6522TIP3    H241058   5.292   5.171  11.631  0.3859  0.4372  1.9682
 6523TIP3   OH241059   4.499   0.957   0.872 -0.3403 -1.0723 -0.4003
 6523TIP3    H141060   4.456   0.913   0.945 -0.0781 -0.0326  0.3868
 6523TIP3    H241061   4.503   1.049   0.898  0.9129 -0.9021 -1.1517
 6524TIP3   OH241062   5.646   3.555  14.019 -0.4905  0.1401 -0.6704
 6524TIP3    H141063   5.624   3.546  13.926  0.3522  0.3152 -0.8934
 6524TIP3    H241064   5.731   3.511  14.027 -0.1009  0.9823 -0.1747
 6525TIP3   OH241065   1.176   0.137  16.650  0.5157  0.0082  0.4688
 6525TIP3    H141066   1.212   0.210  16.699 -1.3573  0.5235  1.1022
 6525TIP3    H241067   1.153   0.072  16.716 -0.6407  0.1057  0.1861
 6526TIP3   OH241068   2.600   6.681   4.874 -0.7030 -0.1905 -0.2019
 6526TIP3    H141069   2.589   6.597   4.919 -0.1569  0.5434  1.3420
 6526TIP3    H241070   2.522   6.732   4.898  0.4106  0.8306  1.3521
 6527TIP3   OH241071   4.367   2.617  15.929 -0.0483 -0.3436  0.1856
 6527TIP3    H141072   4.374   2.575  15.844 -3.4515 -1.2420  0.2794
 6527TIP3    H241073   4.393   2.549  15.992 -1.5147 -1.0330  0.0754
 6528TIP3   OH241074   1.639   0.650  11.901  0.8847  0.1329 -0.3808
 6528TIP3    H141075   1.624   0.562  11.934  1.2826  0.7585  1.4907
 6528TIP3    H241076   1.559   0.672  11.853 -0.7280  0.1241  2.2205
 6529TIP3   OH241077   5.912   6.166  12.671 -0.4393 -0.4547  0.6380
 6529TIP3    H141078   5.826   6.147  12.707 -0.7493 -0.9564 -0.3287
 6529TIP3    H241079   5.970   6.102  12.713 -0.3991  0.3615  1.8363
 6530TIP3   OH241080   0.066   3.831   4.506 -0.7099 -0.1566  0.4180
 6530TIP3    H141081  -0.017   3.788   4.529 -1.1083 -0.6767 -1.9046
 6530TIP3    H241082   0.040   3.905   4.451  0.4309 -1.2659 -1.6802
 6531TIP3   OH241083   1.782   3.108   3.374 -0.3994 -0.1662  0.0615
 6531TIP3    H141084   1.813   3.157   3.298 -0.6274 -1.1778 -0.7043
 6531TIP3    H241085   1.690   3.133   3.383 -0.0479  0.8753  0.7487
 6532TIP3   OH241086   3.293   1.772   0.543 -0.4188  1.2509 -0.3865
 6532TIP3    H141087   3.202   1.754   0.566  0.5734 -1.8905  1.3842
 6532TIP3    H241088   3.305   1.730   0.458 -0.1991  0.2254  0.1444
 6533TIP3   OH241089   2.260   4.903  15.924 -0.2784 -0.3459 -0.1902
 6533TIP3    H141090   2.232   4.993  15.905  0.4803 -0.1141 -0.2015
 6533TIP3    H241091   2.273   4.863  15.839  0.3990 -0.1516 -0.1784
 6534TIP3   OH241092   4.955   6.455   0.697 -0.4131 -0.1495  0.1436
 6534TIP3    H141093   5.034   6.493   0.735  0.4989 -1.6822 -0.1802
 6534TIP3    H241094   4.898   6.436   0.772  0.1743 -0.4671  0.5148
 6535TIP3   OH241095   6.515   6.405   0.234  0.7460  0.5533  0.1130
 6535TIP3    H141096   6.573   6.408   0.158  1.6886 -0.4851  0.7754
 6535TIP3    H241097   6.568   6.367   0.303 -1.0641 -1.4598  0.4315
 6536TIP3   OH241098   5.624   6.517  11.613  0.6273 -0.5850  0.1665
 6536TIP3    H141099   5.605   6.552  11.700 -0.1748 -0.2853 -0.1248
 6536TIP3    H241100   5.573   6.436  11.608 -1.2489  0.6152 -0.9084
 6537TIP3   OH241101   1.881   6.806  15.809  0.4156 -0.1778  0.5348
 6537TIP3    H141102   1.894   6.863  15.733  0.5137 -1.2290 -0.2596
 6537TIP3    H241103   1.956   6.746  15.806  0.3947 -0.2536  1.4440
 6538TIP3   OH241104   0.052   0.648   2.490  0.9273 -0.7770  0.2567
 6538TIP3    H141105   0.075   0.604   2.408  1.5223 -2.3599  1.2675
 6538TIP3    H241106   0.075   0.586   2.558  1.4558  0.9580  1.6980
 6539TIP3   OH241107   2.842   3.082  11.646 -0.0239  0.7466 -0.0083
 6539TIP3    H141108   2.828   3.000  11.692 -1.1321  1.4080  0.8634
 6539TIP3    H241109   2.936   3.099  11.654  0.3734 -0.8917 -1.0074
 6540TIP3   OH241110   2.535   4.353   2.055  0.1877  0.1974 -0.7044
 6540TIP3    H141111   2.599   4.334   1.986  1.3223  0.2995  0.2958
 6540TIP3    H241112   2.478   4.277   2.057  0.0940  0.2330 -1.8153
 6541TIP3   OH241113   6.392   2.058  14.835 -0.0606 -0.4464  0.2906
 6541TIP3    H141114   6.477   2.102  14.831 -0.0899 -0.4436 -0.4322
 6541TIP3    H241115   6.328   2.128  14.825 -0.0662 -0.9632 -4.5317
 6542TIP3   OH241116   2.844   0.869   3.268  1.0145  0.1597  0.1052
 6542TIP3    H141117   2.759   0.864   3.312  0.5823  1.0800 -0.5865
 6542TIP3    H241118   2.821   0.873   3.175  1.8950 -1.4663 -0.1956
 6543TIP3   OH241119   3.304   6.572   5.791  0.0825 -0.1726 -0.1615
 6543TIP3    H141120   3.338   6.506   5.852  2.8101 -1.1634 -2.6386
 6543TIP3    H241121   3.236   6.526   5.742 -0.6038 -0.0228  0.6469
 6544TIP3   OH241122   0.604   2.600   1.638 -0.1185  0.3164 -0.0514
 6544TIP3    H141123   0.616   2.675   1.579 -1.7923 -0.4895 -1.4968
 6544TIP3    H241124   0.669   2.536   1.609 -0.7838  0.0122 -0.9038
 6545TIP3   OH241125   5.050   0.080   3.443  0.3253 -0.3454 -0.5373
 6545TIP3    H141126   5.106   0.112   3.514 -0.2510 -0.4445 -0.0298
 6545TIP3    H241127   4.983   0.028   3.487  0.9792 -1.8781 -1.3146
 6546TIP3   OH241128   2.325   0.139  13.916 -0.2546  0.5800  0.1965
 6546TIP3    H141129   2.413   0.135  13.879 -0.6458 -1.0596 -0.6374
 6546TIP3    H241130   2.268   0.147  13.840 -0.9996 -1.7628  0.4704
 6547TIP3   OH241131   6.498   4.988   5.115  0.1032  0.6246 -0.1329
 6547TIP3    H141132   6.527   5.079   5.103  0.6890  0.1598 -2.4544
 6547TIP3    H241133   6.560   4.952   5.178 -1.2687  2.3397  2.2969
 6548TIP3   OH241134   4.241   1.238   1.050 -0.6321 -0.1140  0.1920
 6548TIP3    H141135   4.171   1.215   0.989  0.0524 -1.4121 -0.1193
 6548TIP3    H241136   4.299   1.295   1.000  0.6902 -2.3324 -0.8442
 6549TIP3   OH241137   3.676   4.228  16.215  0.2135 -0.6896 -0.8517
 6549TIP3    H141138   3.594   4.225  16.265  0.4509  1.3823 -0.3149
 6549TIP3    H241139   3.650   4.256  16.127 -0.0682 -3.3425 -1.6591
 6550TIP3   OH241140   0.523   0.804  14.749 -0.3361  0.1698  0.2492
 6550TIP3    H141141   0.538   0.803  14.843 -0.0201  1.7791  0.2325
 6550TIP3    H241142   0.601   0.762  14.712 -1.0567 -1.6544  0.7628
 6551TIP3   OH241143   1.779   0.810  14.019  0.3194 -0.6844  0.3772
 6551TIP3    H141144   1.760   0.764  13.938  0.6467 -0.7909  0.3589
 6551TIP3    H241145   1.717   0.883  14.020  1.2167  0.1067 -0.6315
 6552TIP3   OH241146   0.718   3.948   1.334  0.4043 -0.5465 -0.2633
 6552TIP3    H141147   0.728   3.957   1.239  0.2821  0.2563 -0.2051
 6552TIP3    H241148   0.808   3.947   1.367  0.4389 -0.3729 -0.3489
 6553TIP3   OH241149   0.423   3.989   4.823  0.2365 -0.0659 -0.1793
 6553TIP3    H141150   0.364   3.917   4.843 -0.6564  0.9769  1.1008
 6553TIP3    H241151   0.369   4.068   4.835  1.8756  0.9164  1.0795
 6554TIP3   OH241152   2.099   1.354   1.935  0.8101  0.2345 -0.5013
 6554TIP3    H141153   2.020   1.368   1.883  1.2433  2.2152 -0.6596
 6554TIP3    H241154   2.097   1.261   1.957 -1.7769  0.3425 -0.1594
 6555TIP3   OH241155   2.859   3.852   1.950  0.1563 -0.0961 -0.5106
 6555TIP3    H141156   2.925   3.791   1.983  0.5410  1.4483  1.7670
 6555TIP3    H241157   2.781   3.833   2.002  0.6122  2.0452  1.0138
 6556TIP3   OH241158   0.146   0.973   2.309 -0.2360 -0.1682  0.1768
 6556TIP3    H141159   0.150   1.023   2.227 -2.5769  0.3157  0.3407
 6556TIP3    H241160   0.197   0.893   2.291 -2.2501 -0.9253 -2.3577
 6557TIP3   OH241161   0.102   0.253   4.642  0.2203  0.3077 -0.3414
 6557TIP3    H141162   0.010   0.236   4.619  0.3782  2.3375 -2.7347
 6557TIP3    H241163   0.109   0.227   4.734 -2.1357 -2.1087 -0.7867
 6558TIP3   OH241164   5.805   6.339  14.844 -0.1849  0.5151 -0.0041
 6558TIP3    H141165   5.767   6.286  14.914 -1.9424  0.9681 -0.5840
 6558TIP3    H241166   5.866   6.397  14.889  0.2170 -0.5859  0.8909
 6559TIP3   OH241167   5.064   0.281   5.137  0.3326  0.3179  0.8748
 6559TIP3    H141168   5.060   0.275   5.232  1.2796  1.5306  1.0027
 6559TIP3    H241169   5.074   0.190   5.108 -2.2893 -0.2955  1.7870
 6560TIP3   OH241170   4.491   3.251   3.700 -0.5225  0.5631 -0.2338
 6560TIP3    H141171   4.496   3.345   3.716  0.1236  0.7178 -1.2890
 6560TIP3    H241172   4.556   3.235   3.631  0.4438 -0.8899  0.9825
 6561TIP3   OH241173   0.450   3.486   6.898  0.1377  0.1352  0.1072
 6561TIP3    H141174   0.420   3.399   6.922  1.0998 -0.6818 -1.5433
 6561TIP3    H241175   0.402   3.545   6.956 -2.3991 -1.3269 -0.4481
 6562TIP3   OH241176   6.541   5.962   0.694 -0.0449  0.4906 -0.1110
 6562TIP3    H141177   6.564   5.869   0.698  2.2603  1.0463  0.5738
 6562TIP3    H241178   6.495   5.972   0.611 -0.3402 -1.2745 -0.1769
 6563TIP3   OH241179   2.521   2.468   2.955  0.4921  0.4770 -0.0461
 6563TIP3    H141180   2.572   2.479   3.035  0.4332  1.7837 -0.1647
 6563TIP3    H241181   2.432   2.493   2.979  0.3556  0.3057 -0.3724
 6564TIP3   OH241182   2.931   4.649  13.986  0.4827 -0.0527  0.1029
 6564TIP3    H141183   2.883   4.685  14.060 -0.8936 -2.1728  0.2611
 6564TIP3    H241184   2.909   4.707  13.913 -0.2747  0.4815  0.7483
 6565TIP3   OH241185   6.743   1.599  16.750 -0.7852  0.5089  0.3329
 6565TIP3    H141186   6.735   1.627  16.659 -0.7448  0.6405  0.3690
 6565TIP3    H241187   6.671   1.537  16.762 -0.5803  0.2314  0.1137
 6566TIP3   OH241188   6.744   5.571  15.036 -0.4760  0.0498 -0.0437
 6566TIP3    H141189   6.742   5.667  15.027  0.2641  0.1309  0.6257
 6566TIP3    H241190   6.758   5.556  15.129  2.4261 -0.6497 -0.5339
 6567TIP3   OH241191   5.038   0.960  12.477 -0.5153 -0.1990 -0.8636
 6567TIP3    H141192   5.000   0.907  12.407 -3.1341 -3.3003  2.6630
 6567TIP3    H241193   4.962   0.996  12.523  1.0020 -0.8351  2.2550
 6568TIP3   OH241194   5.271   6.387  15.158  0.0864 -0.2819 -0.0002
 6568TIP3    H141195   5.180   6.417  15.156  0.6924  1.5298 -2.3114
 6568TIP3    H241196   5.267   6.296  15.131 -1.1888 -0.6252  1.3030
 6569TIP3   OH241197   6.528   1.491   3.693  0.1315  0.5207 -0.2691
 6569TIP3    H141198   6.570   1.512   3.610  0.3642  0.9942 -0.0311
 6569TIP3    H241199   6.578   1.540   3.759 -1.9175  2.5503 -0.1752
 6570TIP3   OH241200   4.291   1.598   3.684  0.4824 -0.7632  0.2757
 6570TIP3    H141201   4.327   1.553   3.761  0.0109 -0.1521  0.8547
 6570TIP3    H241202   4.347   1.675   3.673  0.5883 -0.8830 -0.0385
 6571TIP3   OH241203   4.308   6.522  15.312 -0.4848  0.5104 -0.0067
 6571TIP3    H141204   4.327   6.496  15.221 -0.3172  0.0475  0.1590
 6571TIP3    H241205   4.387   6.566  15.341  0.2515 -1.1830  0.5945
 6572TIP3   OH241206   1.612   5.723   5.036  0.1541  0.2348 -0.0070
 6572TIP3    H141207   1.691   5.678   5.067 -0.4146 -0.4556  0.4541
 6572TIP3    H241208   1.643   5.777   4.963  0.8765 -0.8065 -0.4945
 6573TIP3   OH241209   5.082   0.121   4.174  0.0654  0.0628  0.1299
 6573TIP3    H141210   5.071   0.039   4.126 -1.4249  0.7476 -0.7255
 6573TIP3    H241211   5.177   0.135   4.174  0.4051 -2.0383  0.9716
 6574TIP3   OH241212   4.981   3.891  14.743  0.6522  0.1409 -0.2927
 6574TIP3    H141213   4.988   3.807  14.789  1.6207  0.1657 -0.3971
 6574TIP3    H241214   4.892   3.890  14.707  0.2343 -0.3158  0.7245
 6575TIP3   OH241215   0.302   0.448   2.788  0.3475  0.3334  0.1938
 6575TIP3    H141216   0.262   0.381   2.843 -1.4109  0.7093 -0.5996
 6575TIP3    H241217   0.376   0.481   2.840 -0.0952 -0.6935  1.4859
 6576TIP3   OH241218   4.616   4.036  16.944 -1.0279  0.3379  0.2515
 6576TIP3    H141219   4.570   4.015  17.025 -2.1391 -1.4022 -0.7927
 6576TIP3    H241220   4.639   4.128  16.952 -1.6008  0.3094  2.3090
 6577TIP3   OH241221   3.609   1.484   2.205  0.5395 -0.5229  0.0020
 6577TIP3    H141222   3.534   1.486   2.145  0.8410 -0.4036 -0.3733
 6577TIP3    H241223   3.660   1.562   2.183 -0.1656  0.3805  1.4799
 6578TIP3   OH241224   1.873   3.833  15.971 -0.0599 -0.0051 -0.1015
 6578TIP3    H141225   1.912   3.920  15.980 -2.9091  1.3980 -0.6498
 6578TIP3    H241226   1.877   3.796  16.059  0.4437  1.0035  0.3095
 6579TIP3   OH241227   6.527   5.434   4.689  0.3254 -0.3863  0.6541
 6579TIP3    H141228   6.534   5.450   4.783 -0.7884 -0.0607  0.6892
 6579TIP3    H241229   6.607   5.471   4.652  0.0850  0.8037  1.3108
 6580TIP3   OH241230   3.364   4.972  14.965 -0.2336 -0.1329  0.5429
 6580TIP3    H141231   3.359   4.956  14.871  0.1181  1.6263  0.2029
 6580TIP3    H241232   3.281   5.014  14.986 -1.0572 -2.1436  1.3647
 6581TIP3   OH241233   1.381   0.739   5.225 -0.0237  0.1253 -0.0693
 6581TIP3    H141234   1.432   0.690   5.291 -0.2901  1.5133  1.1928
 6581TIP3    H241235   1.311   0.679   5.200  1.3888 -1.2791 -0.7849
 6582TIP3   OH241236   4.312   4.695   0.550  0.2153 -0.0351 -0.1358
 6582TIP3    H141237   4.394   4.741   0.571 -0.7335  1.6793 -0.1355
 6582TIP3    H241238   4.328   4.657   0.463  0.7377  0.9318 -0.4697
 6583TIP3   OH241239   2.633   6.101   6.124  0.0261 -0.2775  0.5310
 6583TIP3    H141240   2.673   6.015   6.141 -0.1317 -0.3012  0.7768
 6583TIP3    H241241   2.688   6.140   6.056 -0.7556 -1.1837 -0.6424
 6584TIP3   OH241242   3.574   0.038   3.128  0.4711 -0.0354 -0.3580
 6584TIP3    H141243   3.632  -0.022   3.176 -0.4993 -0.6657  0.0443
 6584TIP3    H241244   3.486   0.004   3.145  0.0072  0.7416 -1.2091
 6585TIP3   OH241245   0.644   0.052   1.874  0.3788  0.0936 -0.5258
 6585TIP3    H141246   0.699  -0.024   1.855  0.9195  0.3941 -0.1932
 6585TIP3    H241247   0.673   0.081   1.960 -0.3180  0.2511 -0.3452
 6586TIP3   OH241248   5.772   1.485   5.300 -0.5077  0.1346  0.6070
 6586TIP3    H141249   5.788   1.441   5.383 -3.0736  0.5436  1.3564
 6586TIP3    H241250   5.677   1.495   5.296 -0.4886 -0.4591 -2.6851
 6587TIP3   OH241251   2.631   2.479   0.215 -0.2242  0.3437 -0.7054
 6587TIP3    H141252   2.678   2.399   0.191 -1.1359 -0.6789  0.8830
 6587TIP3    H241253   2.549   2.449   0.253 -1.4018  2.0853 -1.7950
 6588TIP3   OH241254   1.170   3.508  14.758 -0.2557  0.6375 -0.8137
 6588TIP3    H141255   1.171   3.467  14.671 -0.3006 -0.7735 -0.1646
 6588TIP3    H241256   1.178   3.435  14.819 -1.8985  1.4494  0.4276
 6589TIP3   OH241257   6.285   4.908  11.341  0.0979  0.1585  0.0610
 6589TIP3    H141258   6.351   4.932  11.276 -0.0661 -0.5644 -0.3849
 6589TIP3    H241259   6.311   4.820  11.369  0.1537  0.4591  0.9602
 6590TIP3   OH241260   3.286   0.248   5.644  0.4393 -0.1022 -0.3541
 6590TIP3    H141261   3.248   0.220   5.727 -0.6381  0.8489 -0.5077
 6590TIP3    H241262   3.327   0.333   5.663  0.2382  0.0917 -0.7753
 6591TIP3   OH241263   5.717   4.920   1.156  0.6681 -0.1325 -0.5386
 6591TIP3    H141264   5.705   4.876   1.240 -0.5739  0.2026 -0.5265
 6591TIP3    H241265   5.682   4.859   1.091 -1.0419  0.7958 -0.5232
 6592TIP3   OH241266   6.170   4.794   0.973 -0.3336  0.3344 -0.0667
 6592TIP3    H141267   6.182   4.878   1.018 -0.8630 -0.0009  0.7053
 6592TIP3    H241268   6.210   4.807   0.887  3.5445  0.0271  1.5762
 6593TIP3   OH241269   3.806   0.629  12.115 -0.1194 -0.7476  0.1666
 6593TIP3    H141270   3.781   0.720  12.133  2.3584  0.1225 -0.5980
 6593TIP3    H241271   3.822   0.590  12.200  1.6199  0.3835  0.3680
 6594TIP3   OH241272   3.042   3.366  17.183 -0.3923  0.5411 -0.1899
 6594TIP3    H141273   3.015   3.301  17.118 -0.2675  0.7267 -0.4310
 6594TIP3    H241274   3.138   3.368  17.177 -0.2960 -0.4003  0.9354
 6595TIP3   OH241275   4.135   5.643   1.310 -0.6203 -0.3128  0.0398
 6595TIP3    H141276   4.100   5.592   1.383  1.1722 -0.2577  0.9723
 6595TIP3    H241277   4.064   5.703   1.287 -1.7959 -1.4325  0.6541
 6596TIP3   OH241278   2.325   0.375  15.477 -0.3219 -0.1926  0.5471
 6596TIP3    H141279   2.387   0.439  15.442  0.8666 -1.0226  1.1119
 6596TIP3    H241280   2.315   0.398  15.569 -1.8556  0.7236  0.1666
 6597TIP3   OH241281   2.928   0.739   0.439 -0.2464 -0.0310 -0.1216
 6597TIP3    H141282   3.007   0.750   0.387 -0.5454  0.5604 -0.4547
 6597TIP3    H241283   2.945   0.790   0.519 -1.0555  1.7331 -1.0391
 6598TIP3   OH241284   5.948   1.669  12.414  0.0401  0.9239  0.4490
 6598TIP3    H141285   5.917   1.729  12.346 -0.0607  0.2424 -0.1021
 6598TIP3    H241286   5.981   1.593  12.366 -1.2607 -0.1445  1.2071
 6599TIP3   OH241287   0.824   2.017   0.219  0.0005 -0.8688  0.0542
 6599TIP3    H141288   0.770   1.945   0.251 -1.1809  0.6493  1.5170
 6599TIP3    H241289   0.867   2.051   0.297 -0.6448  1.0028 -0.3841
 6600TIP3   OH241290   2.646   0.841  12.853  0.3679 -0.1860 -0.0742
 6600TIP3    H141291   2.686   0.863  12.769 -0.3360  2.4597  0.2101
 6600TIP3    H241292   2.608   0.924  12.883 -0.3070 -1.3288  2.3535
 6601TIP3   OH241293   5.299   3.383   5.676  0.1923  0.4586 -0.0541
 6601TIP3    H141294   5.360   3.313   5.698 -0.7937 -1.0753 -2.0401
 6601TIP3    H241295   5.215   3.355   5.714 -0.4710 -0.0540 -1.8167
 6602TIP3   OH241296   1.888   3.007  14.667  0.3855 -0.9149 -0.1285
 6602TIP3    H141297   1.808   3.050  14.636 -0.9321 -1.1220  2.7432
 6602TIP3    H241298   1.948   3.079  14.686  0.9575 -0.7603 -2.3974
 6603TIP3   OH241299   0.020   2.332  15.980 -0.2356 -0.4309 -0.0743
 6603TIP3    H141300  -0.038   2.370  15.914 -1.4163  0.5901  1.5125
 6603TIP3    H241301  -0.038   2.279  16.035  0.5393 -0.4217  0.7708
 6604TIP3   OH241302   4.293   2.823   4.096  0.2968 -0.4883 -0.2499
 6604TIP3    H141303   4.245   2.777   4.027  0.0195 -0.1270 -0.3016
 6604TIP3    H241304   4.357   2.876   4.048 -1.1348  1.2140 -0.3588
 6605TIP3   OH241305   1.191   1.553  13.429  0.4859 -0.6526 -0.3162
 6605TIP3    H141306   1.173   1.494  13.356  0.7547  0.7481 -1.5377
 6605TIP3    H241307   1.207   1.638  13.388  1.9033 -0.1183  1.2917
 6606TIP3   OH241308   3.138   0.271  15.278  0.3073  0.3531  0.0478
 6606TIP3    H141309   3.219   0.266  15.227  0.1295  3.1944 -0.6043
 6606TIP3    H241310   3.069   0.276  15.212 -0.1334  1.3896  0.5822
 6607TIP3   OH241311   4.682   0.056  15.200  0.3055 -0.1114  0.2079
 6607TIP3    H141312   4.688  -0.039  15.208  0.1445 -0.3629 -2.2401
 6607TIP3    H241313   4.746   0.078  15.133 -0.1887  1.4193  0.2262
 6608TIP3   OH241314   1.930   1.503   0.938 -0.0382 -0.1400  0.0802
 6608TIP3    H141315   2.021   1.499   0.965  0.3135 -0.6510 -1.1275
 6608TIP3    H241316   1.886   1.555   1.006  1.4243  1.3215 -0.0647
 6609TIP3   OH241317   5.757   3.708  12.129  0.3769  0.0392 -0.5741
 6609TIP3    H141318   5.733   3.618  12.106  0.7788  0.4586 -2.7423
 6609TIP3    H241319   5.689   3.737  12.190 -1.8975 -0.4274 -2.8343
 6610TIP3   OH241320   2.860   4.058  17.180  0.5285 -0.3024 -0.3239
 6610TIP3    H141321   2.938   4.014  17.145 -0.5460 -1.5979 -1.1666
 6610TIP3    H241322   2.797   3.987  17.191 -0.1389  0.5697  1.4555
 6611TIP3   OH241323   6.547   3.860   1.890  0.0161  0.1807  0.1168
 6611TIP3    H141324   6.456   3.828   1.886  0.2573 -0.4285 -0.5180
 6611TIP3    H241325   6.556   3.894   1.979  0.2828 -3.1407  1.4235
 6612TIP3   OH241326   1.735   4.394   1.331 -0.6651  0.2820 -0.1819
 6612TIP3    H141327   1.791   4.470   1.344  0.8165 -0.9334  0.6831
 6612TIP3    H241328   1.707   4.369   1.420  0.4377 -1.3411 -0.2744
 6613TIP3   OH241329   6.355   4.660  11.407 -0.0673 -0.0219  0.4887
 6613TIP3    H141330   6.316   4.572  11.410  0.3269 -0.1633  2.9213
 6613TIP3    H241331   6.435   4.652  11.459  1.0490  1.2854 -0.9977
 6614TIP3   OH241332   5.595   3.120   1.116 -0.1874  0.5131  0.0785
 6614TIP3    H141333   5.523   3.148   1.060 -1.4798 -1.3979  0.7404
 6614TIP3    H241334   5.553   3.086   1.195  1.5343  1.4166  1.4231
 6615TIP3   OH241335   1.256   1.338  12.450 -0.4811 -0.1725 -0.1081
 6615TIP3    H141336   1.279   1.427  12.423  0.0714 -0.2206  0.2156
 6615TIP3    H241337   1.248   1.290  12.367  0.3119 -0.0921 -0.2360
 6616TIP3   OH241338   2.590   3.139  14.198  0.2598 -0.0241 -0.2601
 6616TIP3    H141339   2.620   3.224  14.230 -0.3751  0.0056  0.2816
 6616TIP3    H241340   2.542   3.101  14.272  2.2133 -1.7207  0.1826
 6617TIP3   OH241341   2.830   5.664  12.359 -0.1185  0.4536  0.2848
 6617TIP3    H141342   2.896   5.723  12.394 -1.0946  0.6647  1.8079
 6617TIP3    H241343   2.755   5.673  12.419 -0.3698 -2.1167  0.4080
 6618TIP3   OH241344   1.866   5.344   3.311  0.4038 -0.1802  0.2558
 6618TIP3    H141345   1.917   5.275   3.267 -0.2917 -2.2324  2.5204
 6618TIP3    H241346   1.919   5.423   3.302  1.7574 -1.2469 -1.4543
 6619TIP3   OH241347   6.037   5.005   2.954  0.3205 -0.7188  0.2915
 6619TIP3    H141348   6.106   4.942   2.976 -0.3821 -1.3460  0.7554
 6619TIP3    H241349   6.076   5.091   2.972  1.0242 -1.0564  0.4160
 6620TIP3   OH241350   3.751   3.811   4.813 -0.0141 -0.1004  0.0240
 6620TIP3    H141351   3.829   3.790   4.864  1.7997  1.5832 -1.9539
 6620TIP3    H241352   3.784   3.841   4.729 -2.7926  0.9737 -0.7578
 6621TIP3   OH241353   0.898   0.384   1.546 -0.3025  0.3794 -0.3476
 6621TIP3    H141354   0.861   0.460   1.590 -0.5512 -0.1000  0.2685
 6621TIP3    H241355   0.858   0.385   1.459 -2.3402 -0.5277  0.5406
 6622TIP3   OH241356   4.494   6.217   3.039  0.4968  0.8487  0.1104
 6622TIP3    H141357   4.561   6.157   3.071 -0.1473 -0.5358 -1.0843
 6622TIP3    H241358   4.412   6.170   3.051 -0.1332  1.9557  0.2107
 6623TIP3   OH241359   5.713   1.819   3.671 -0.5502  0.4768  0.5850
 6623TIP3    H141360   5.787   1.858   3.625 -0.7575  0.9273  0.6291
 6623TIP3    H241361   5.651   1.891   3.682 -0.8490  0.1812  0.8490
 6624TIP3   OH241362   2.940   4.135   5.408 -0.3313 -0.5545  0.4501
 6624TIP3    H141363   2.951   4.168   5.497  0.7114 -0.6319  0.3472
 6624TIP3    H241364   2.925   4.041   5.418  2.7698 -1.0827  0.3662
 6625TIP3   OH241365   1.040   6.786   0.363  1.2295  0.0485 -0.3906
 6625TIP3    H141366   1.019   6.807   0.272 -3.0866  1.2437  0.7553
 6625TIP3    H241367   1.034   6.690   0.368  1.7658 -0.0434 -1.3974
 6626TIP3   OH241368   2.340   0.183  16.701  0.4526 -0.0517 -0.0718
 6626TIP3    H141369   2.346   0.262  16.647  2.0127 -0.0938  0.0167
 6626TIP3    H241370   2.368   0.113  16.642 -2.6953 -0.8282 -0.7163
 6627TIP3   OH241371   5.281   3.414  15.770 -0.6735 -0.6420 -0.2428
 6627TIP3    H141372   5.375   3.396  15.764 -0.6015 -0.1902 -0.4337
 6627TIP3    H241373   5.273   3.508  15.759 -1.1831 -0.7186 -0.5618
 6628TIP3   OH241374   6.524   3.409   4.424 -0.2945  0.0100  0.5057
 6628TIP3    H141375   6.563   3.429   4.509  3.1297  1.3082 -1.2873
 6628TIP3    H241376   6.519   3.494   4.380  1.4489 -1.1487 -1.9774
 6629TIP3   OH241377   2.641   5.104  11.959 -0.0062 -0.3223  0.1797
 6629TIP3    H141378   2.663   5.021  11.917 -1.2491 -0.6463  0.1524
 6629TIP3    H241379   2.722   5.154  11.957  0.7755 -1.5745  0.2970
 6630TIP3   OH241380   3.188   1.176  13.761 -0.1382  0.3482  0.8234
 6630TIP3    H141381   3.191   1.108  13.694  2.0872  1.0500  0.1581
 6630TIP3    H241382   3.142   1.249  13.720  0.9821  0.6763  0.1357
 6631TIP3   OH241383   4.570   3.659  14.804 -0.0552  0.9450  0.3094
 6631TIP3    H141384   4.556   3.565  14.821  0.3059  0.9348  0.5527
 6631TIP3    H241385   4.600   3.694  14.887  0.0603  1.2310  0.1479
 6632TIP3   OH241386   0.504   1.560  13.911 -0.5057  0.4623 -0.2893
 6632TIP3    H141387   0.542   1.648  13.912 -0.3001  0.3762 -0.4403
 6632TIP3    H241388   0.506   1.534  13.819  2.9001 -1.1734  0.1424
 6633TIP3   OH241389   3.811   6.178  14.256 -0.2664 -0.1000 -0.2908
 6633TIP3    H141390   3.789   6.256  14.207 -0.7271  0.5359  0.9067
 6633TIP3    H241391   3.735   6.121  14.246 -0.8395  0.4976  0.6249
 6634TIP3   OH241392   5.903   3.872  13.187 -0.1617 -0.1060  0.7103
 6634TIP3    H141393   5.829   3.922  13.222  0.0412  1.1379 -0.5972
 6634TIP3    H241394   5.887   3.869  13.092  0.7326 -1.0379  0.5812
 6635TIP3   OH241395   1.382   6.634   0.320  0.2231 -0.3564  0.0843
 6635TIP3    H141396   1.350   6.644   0.231 -2.2636 -0.5073  0.9335
 6635TIP3    H241397   1.404   6.723   0.348 -0.7400 -0.0624 -0.0698
 6636TIP3   OH241398   1.260   4.118  11.453  0.7938  0.1913  0.2945
 6636TIP3    H141399   1.263   4.186  11.521  0.6503  0.7232 -0.2246
 6636TIP3    H241400   1.350   4.086  11.449  0.5009 -0.8383  1.7280
 6637TIP3   OH241401   3.190   2.768  14.092 -0.2610 -0.0351 -0.0536
 6637TIP3    H141402   3.199   2.799  14.002  0.9395  2.8871  1.0187
 6637TIP3    H241403   3.212   2.675  14.087  2.6457  0.7020 -2.3332
 6638TIP3   OH241404   5.537   1.917  13.371  0.6530 -0.1735 -0.7959
 6638TIP3    H141405   5.624   1.918  13.411 -0.0741 -0.6894  0.8595
 6638TIP3    H241406   5.532   2.000  13.323  1.8384  0.1334 -0.4117
 6639TIP3   OH241407   6.471   6.432   6.831 -0.1712 -0.5788 -0.0684
 6639TIP3    H141408   6.496   6.364   6.893 -0.0941 -1.0050 -0.5631
 6639TIP3    H241409   6.539   6.499   6.841 -1.6022  0.5668  2.1836
 6640TIP3   OH241410   4.097   0.157   4.527 -0.4405 -0.4674  0.4279
 6640TIP3    H141411   4.120   0.089   4.464  0.1732 -0.0632  0.2081
 6640TIP3    H241412   4.015   0.194   4.495 -0.6073 -0.8819  0.3721
 6641TIP3   OH241413   5.275   2.404   4.966  0.0647 -0.3676  0.0591
 6641TIP3    H141414   5.291   2.337   5.032  0.8736 -1.7574 -1.5181
 6641TIP3    H241415   5.360   2.448   4.956  0.3356 -1.1761 -1.1656
 6642TIP3   OH241416   2.658   3.668   1.258 -0.1448  0.3398  0.5659
 6642TIP3    H141417   2.690   3.578   1.252  0.9128  0.7057  0.5358
 6642TIP3    H241418   2.675   3.706   1.172  1.1188  1.1032  1.1262
 6643TIP3   OH241419   1.346   0.213   1.382  0.0541  0.0856 -0.1213
 6643TIP3    H141420   1.259   0.209   1.421  0.5275 -1.0316  0.8528
 6643TIP3    H241421   1.350   0.139   1.321  0.7086 -0.5685  0.6937
 6644TIP3   OH241422   2.970   4.549  11.290 -0.0556  0.4691 -0.5529
 6644TIP3    H141423   2.916   4.530  11.213  0.1424 -2.3453 -0.0537
 6644TIP3    H241424   3.060   4.532  11.262  0.3566  2.5083 -0.5793
 6645TIP3   OH241425   1.323   5.500   5.405 -0.4510  0.0870  0.2120
 6645TIP3    H141426   1.296   5.428   5.349  1.7465 -1.0474  0.5331
 6645TIP3    H241427   1.330   5.461   5.492  0.4059  0.7404  0.4508
 6646TIP3   OH241428   1.333   5.753  10.353  0.6483 -0.1888  0.5307
 6646TIP3    H141429   1.246   5.790  10.335  0.5316 -0.2516  0.9549
 6646TIP3    H241430   1.315   5.675  10.405  0.8986 -0.8179 -0.3239
 6647TIP3   OH241431   1.386   4.349   1.925  0.2643 -0.4560 -0.3629
 6647TIP3    H141432   1.369   4.306   2.009 -0.3679 -0.7527 -0.6349
 6647TIP3    H241433   1.471   4.315   1.897  0.3131 -0.6257 -0.0130
 6648TIP3   OH241434   3.464   6.004  13.421  0.3279  0.1855 -0.2230
 6648TIP3    H141435   3.445   6.092  13.387  0.3514  0.0813 -0.5060
 6648TIP3    H241436   3.429   5.945  13.354 -1.1840 -0.0396  0.7314
 6649TIP3   OH241437   1.169   5.675   2.846  0.3466 -0.4815  0.6543
 6649TIP3    H141438   1.111   5.600   2.854  1.9591 -1.6787  1.4387
 6649TIP3    H241439   1.139   5.737   2.912 -0.8675 -0.5014  0.1358
 6650TIP3   OH241440   0.971   4.685   4.547 -0.6046  0.2337  0.4950
 6650TIP3    H141441   1.034   4.615   4.564 -0.7042  0.4974  2.0118
 6650TIP3    H241442   0.889   4.654   4.585 -1.2412  0.1569 -0.9272
 6651TIP3   OH241443   4.850   1.874   6.317  0.0501  0.0475  0.2705
 6651TIP3    H141444   4.782   1.892   6.252 -0.9816  0.4308  1.4355
 6651TIP3    H241445   4.919   1.937   6.297  0.9717 -1.6688 -2.1824
 6652TIP3   OH241446   5.378   3.176  11.287  0.2048  0.5063 -0.4221
 6652TIP3    H141447   5.450   3.228  11.324 -0.0038  1.2570 -1.0542
 6652TIP3    H241448   5.351   3.225  11.210  1.9430 -2.0641 -2.7431
 6653TIP3   OH241449   2.568   2.886   4.460  0.3212 -0.4285 -0.2363
 6653TIP3    H141450   2.496   2.899   4.399  1.5506  0.9673 -1.3996
 6653TIP3    H241451   2.639   2.851   4.407  0.5218 -1.8630  0.9187
 6654TIP3   OH241452   6.437   2.254  12.372  0.0662  0.0903 -0.3351
 6654TIP3    H141453   6.530   2.246  12.349 -0.1428 -2.4229 -0.4387
 6654TIP3    H241454   6.437   2.261  12.468  0.4124  1.0743 -0.4026
 6655TIP3   OH241455   5.216   3.931   4.259  0.2403  0.0989  0.0469
 6655TIP3    H141456   5.260   3.917   4.343 -0.8551 -1.0461  0.4343
 6655TIP3    H241457   5.162   4.008   4.272  0.2465  0.0573  0.3138
 6656TIP3   OH241458   0.917   5.361  10.766 -0.6200 -0.2413 -0.1255
 6656TIP3    H141459   0.901   5.295  10.833 -0.0788 -2.1100 -1.7748
 6656TIP3    H241460   0.969   5.315  10.700 -0.7932  1.6587 -1.6220
 6657TIP3   OH241461   0.176   0.809  11.078 -0.6571 -0.5572  0.2022
 6657TIP3    H141462   0.173   0.904  11.061 -0.1564 -0.2901  1.5550
 6657TIP3    H241463   0.135   0.770  11.001 -1.7667  0.8196  0.0649
 6658TIP3   OH241464   4.699   6.200   4.515 -0.1225  0.4658  0.1494
 6658TIP3    H141465   4.604   6.191   4.508 -0.1511  0.6294  0.3109
 6658TIP3    H241466   4.716   6.292   4.493 -0.0268  0.4999  0.3674
 6659TIP3   OH241467   2.173   3.956  16.151 -0.0170  0.2656 -0.6633
 6659TIP3    H141468   2.121   3.997  16.081  0.7303  2.7807  0.2129
 6659TIP3    H241469   2.113   3.953  16.226  0.0990  0.1601 -0.5747
 6660TIP3   OH241470   4.051   2.768  13.961  0.5123  0.0823  0.0069
 6660TIP3    H141471   3.968   2.803  13.992  1.1159  0.7319  0.9224
 6660TIP3    H241472   4.040   2.760  13.866 -1.1847 -1.4600  0.2957
 6661TIP3   OH241473   3.658   3.926  16.793  0.2047 -0.0131  0.4312
 6661TIP3    H141474   3.626   3.866  16.725 -0.7128  1.2847 -0.3195
 6661TIP3    H241475   3.722   3.981  16.748  0.2412  0.2768  0.8364
 6662TIP3   OH241476   1.789   5.626  12.042  0.0323 -0.0300 -0.1766
 6662TIP3    H141477   1.789   5.583  11.957  0.4482 -0.5249  0.0787
 6662TIP3    H241478   1.874   5.605  12.080  0.6551  1.8265 -0.4656
 6663TIP3   OH241479   0.610   0.216   3.264  0.1056 -0.4405  0.7150
 6663TIP3    H141480   0.552   0.140   3.265 -0.8868  0.2823 -0.2537
 6663TIP3    H241481   0.550   0.291   3.274  0.6590  0.4493 -2.2755
 6664TIP3   OH241482   3.275   3.914  13.038 -0.7705  0.6256 -0.1187
 6664TIP3    H141483   3.242   3.970  12.968  0.4674  1.0266 -0.3916
 6664TIP3    H241484   3.202   3.907  13.099 -1.5410  1.0539 -0.9757
 6665TIP3   OH241485   3.421   4.483  14.078 -0.3718  0.2972 -0.3102
 6665TIP3    H141486   3.329   4.474  14.104 -0.6672 -0.5485 -1.5967
 6665TIP3    H241487   3.426   4.440  13.993  1.1958  0.4654 -0.3160
 6666TIP3   OH241488   2.701   6.634   5.613  0.2096  0.1078 -0.3996
 6666TIP3    H141489   2.781   6.582   5.616 -0.5084 -0.9309  1.1704
 6666TIP3    H241490   2.725   6.718   5.653  0.3936 -0.3728  0.4928
 6667TIP3   OH241491   4.893   5.513  15.672  0.3586  0.6962  0.3224
 6667TIP3    H141492   4.837   5.435  15.679  1.2052 -0.0865 -1.2877
 6667TIP3    H241493   4.904   5.543  15.762 -2.4362  0.7097  0.6826
 6668TIP3   OH241494   5.092   1.404  14.998 -0.2191  0.1478  0.0435
 6668TIP3    H141495   5.175   1.372  15.033 -0.0403  1.4829  0.8915
 6668TIP3    H241496   5.116   1.475  14.938 -0.6855 -0.2723 -0.6537
 6669TIP3   OH241497   1.992   4.452  14.280  0.0105 -0.0786 -1.0187
 6669TIP3    H141498   2.070   4.500  14.253 -0.5613  2.2179  1.2503
 6669TIP3    H241499   1.997   4.449  14.375 -2.5202 -0.1323 -0.8436
 6670TIP3   OH241500   0.724   1.652   5.114 -0.2212  0.0868 -0.6314
 6670TIP3    H141501   0.717   1.557   5.115  1.3852 -0.0277  0.4305
 6670TIP3    H241502   0.818   1.670   5.117 -0.5163  1.7083 -0.6071
 6671TIP3   OH241503   4.755   5.547  14.190  0.3893 -0.4416 -0.1769
 6671TIP3    H141504   4.781   5.604  14.117  2.4740 -2.0213 -0.7074
 6671TIP3    H241505   4.699   5.481  14.151 -0.3865  0.0504  0.0856
 6672TIP3   OH241506   0.503   6.404  15.070 -0.0651  0.0362 -0.3338
 6672TIP3    H141507   0.430   6.350  15.100 -1.2565  0.5741 -2.1563
 6672TIP3    H241508   0.520   6.464  15.142 -1.8316  0.2783 -0.1081
 6673TIP3   OH241509   1.144   5.157   5.502 -0.4267 -0.2432 -0.1713
 6673TIP3    H141510   1.164   5.192   5.415  0.5746  0.0545  0.1627
 6673TIP3    H241511   1.086   5.221   5.542 -1.5787 -0.8079 -0.9423
 6674TIP3   OH241512   1.397   1.402  13.638  0.6901  0.2167 -0.2836
 6674TIP3    H141513   1.455   1.371  13.707 -0.5065 -0.0795  0.6086
 6674TIP3    H241514   1.402   1.334  13.570  1.1645  0.0463 -0.0768
 6675TIP3   OH241515   2.705   4.754   1.212  0.1152 -0.0817  0.4574
 6675TIP3    H141516   2.679   4.818   1.146  0.0050  0.2079  0.7835
 6675TIP3    H241517   2.626   4.701   1.227 -0.6978  1.5801  2.3608
 6676TIP3   OH241518   1.846   5.812   1.810  0.3022  0.1225 -0.0568
 6676TIP3    H141519   1.788   5.827   1.735  0.5127  0.6359 -0.1219
 6676TIP3    H241520   1.795   5.757   1.870 -0.5109  1.1218  0.1853
 6677TIP3   OH241521   0.615   1.799   4.400  0.1495  0.1060  1.4705
 6677TIP3    H141522   0.673   1.752   4.460 -2.0381 -1.0137  2.7739
 6677TIP3    H241523   0.597   1.735   4.330  0.0421  0.2597  1.3590
 6678TIP3   OH241524   6.040   5.397   1.845 -0.1243 -0.4141 -0.5441
 6678TIP3    H141525   5.992   5.479   1.832  1.8083  1.3248  2.7577
 6678TIP3    H241526   5.977   5.338   1.886 -1.2420 -0.3382 -2.0853
 6679TIP3   OH241527   4.437   0.178   5.562  0.0072 -0.8647 -0.5786
 6679TIP3    H141528   4.416   0.268   5.538  0.1898 -0.8808 -0.8038
 6679TIP3    H241529   4.430   0.175   5.657  1.3400 -0.2645 -0.4430
 6680TIP3   OH241530   0.120   0.232   3.911  0.5406  0.1409  0.3710
 6680TIP3    H141531   0.192   0.215   3.972  1.6081 -1.2726 -1.2825
 6680TIP3    H241532   0.056   0.163   3.929  0.6543 -0.0104  0.1904
 6681TIP3   OH241533   2.196   1.621  13.121 -0.8515 -0.2197 -0.1539
 6681TIP3    H141534   2.262   1.690  13.117  1.2660 -2.1451  0.7957
 6681TIP3    H241535   2.114   1.665  13.098  0.6491  2.3312 -0.7917
 6682TIP3   OH241536   1.455   5.898   4.379  0.4066 -0.5891 -0.3070
 6682TIP3    H141537   1.414   5.953   4.445  1.8726 -0.0016  0.1338
 6682TIP3    H241538   1.483   5.959   4.310 -0.3286 -1.0948 -1.0682
 6683TIP3   OH241539   1.066   3.121  11.471 -0.6647  0.6538 -0.0412
 6683TIP3    H141540   1.004   3.190  11.448  0.0295  0.5869 -2.2832
 6683TIP3    H241541   1.012   3.044  11.487 -1.2747  1.0399 -0.2340
 6684TIP3   OH241542   2.143   3.820   5.335 -0.3020  0.4032 -0.9433
 6684TIP3    H141543   2.192   3.763   5.276 -0.8089  1.1754 -2.1379
 6684TIP3    H241544   2.208   3.882   5.368  0.5983 -1.8414  1.6515
 6685TIP3   OH241545   0.868   5.885   1.331 -0.1950 -0.0778  0.1174
 6685TIP3    H141546   0.918   5.853   1.406 -0.4947  0.5752  0.6010
 6685TIP3    H241547   0.838   5.971   1.358 -0.8214 -0.0958 -0.5217
 6686TIP3   OH241548   3.650   3.806   3.022  0.1961 -0.0963  0.0363
 6686TIP3    H141549   3.574   3.761   3.058  1.2184 -0.5859  1.6773
 6686TIP3    H241550   3.705   3.824   3.099  1.5377  0.6096 -1.0671
 6687TIP3   OH241551   5.014   6.293   2.973  0.1509 -0.2825  0.4208
 6687TIP3    H141552   5.018   6.237   2.896 -2.7460  0.6124 -0.4500
 6687TIP3    H241553   5.054   6.375   2.945  0.4644 -0.4654  0.3340
 6688TIP3   OH241554   2.156   3.340  11.334 -0.1828 -0.2269  0.2629
 6688TIP3    H141555   2.073   3.338  11.381  0.5860  0.0995  1.6508
 6688TIP3    H241556   2.133   3.313  11.245 -1.7501 -0.2724  0.6582
 6689TIP3   OH241557   4.834   6.128   1.411 -0.2765  0.0393  0.4368
 6689TIP3    H141558   4.752   6.132   1.361 -0.8610  0.7098  1.4263
 6689TIP3    H241559   4.900   6.165   1.353 -0.5651 -1.0523 -0.5949
 6690TIP3   OH241560   6.535   0.718   1.324 -0.3060  0.4274 -0.3502
 6690TIP3    H141561   6.485   0.779   1.379  0.8184  0.9291  0.1254
 6690TIP3    H241562   6.613   0.768   1.298  1.7631 -1.5067  1.8843
 6691TIP3   OH241563   2.751   0.988  11.302  0.3517 -0.4486  0.3148
 6691TIP3    H141564   2.711   1.010  11.386  0.3399 -0.2722  0.2647
 6691TIP3    H241565   2.795   1.069  11.275 -2.9597  0.7535 -1.7668
 6692TIP3   OH241566   4.871   1.717   2.566 -0.4521 -0.3516  0.0674
 6692TIP3    H141567   4.806   1.741   2.632  1.5588 -0.6361  2.2629
 6692TIP3    H241568   4.936   1.787   2.570 -2.4656  1.9442 -4.8337
 6693TIP3   OH241569   4.523   1.224  14.956 -0.6177  0.1472 -0.9574
 6693TIP3    H141570   4.499   1.316  14.945 -0.5933  0.3819  0.7823
 6693TIP3    H241571   4.618   1.224  14.961 -0.6614  0.1483 -0.0129
 6694TIP3   OH241572   1.142   2.842   3.909  0.4548 -0.0851  0.5100
 6694TIP3    H141573   1.222   2.832   3.960  1.7497  0.0785 -1.4209
 6694TIP3    H241574   1.157   2.920   3.855 -1.5697  0.7532  1.1256
 6695TIP3   OH241575   2.525   1.686  14.605 -0.4684 -0.1496 -0.0501
 6695TIP3    H141576   2.520   1.595  14.635 -1.1918 -0.1921 -0.2993
 6695TIP3    H241577   2.502   1.682  14.512 -1.0238  0.3567  0.0590
 6696TIP3   OH241578   2.656   3.018  12.181 -0.1945 -0.1703  0.3388
 6696TIP3    H141579   2.590   2.978  12.238 -0.3250 -0.3372  0.0714
 6696TIP3    H241580   2.683   3.097  12.228  0.6247 -0.9727  1.2449
 6697TIP3   OH241581   1.585   6.633   5.739 -0.4255 -0.4934  0.2592
 6697TIP3    H141582   1.509   6.630   5.680  0.4933 -1.6611 -0.8816
 6697TIP3    H241583   1.553   6.594   5.821 -1.1697 -0.6168 -0.0825
 6698TIP3   OH241584   2.002   4.682  15.877  0.6337 -0.2007  0.1255
 6698TIP3    H141585   1.971   4.762  15.835 -1.3649 -1.0151 -0.0351
 6698TIP3    H241586   2.091   4.702  15.904  0.2943  1.9500 -0.2368
 6699TIP3   OH241587   0.261   0.150  14.493  0.5240 -0.7160 -0.6104
 6699TIP3    H141588   0.316   0.208  14.441  2.5638 -1.7163  0.3685
 6699TIP3    H241589   0.278   0.176  14.584 -2.1476  0.2703 -0.3563
 6700TIP3   OH241590   1.242   1.835  15.083 -0.1433 -0.3834  0.1359
 6700TIP3    H141591   1.269   1.747  15.058  0.4366 -0.4205  0.8865
 6700TIP3    H241592   1.316   1.891  15.060  0.6850 -0.5152  2.3773
 6701TIP3   OH241593   0.926   4.195  14.375 -0.3451 -0.4950 -0.3966
 6701TIP3    H141594   0.902   4.158  14.460 -0.0688 -2.7563 -1.2712
 6701TIP3    H241595   0.989   4.264  14.396  0.9707 -2.1063  1.1293
 6702TIP3   OH241596   3.316   0.076  12.439  0.2887  0.2535  0.8399
 6702TIP3    H141597   3.246   0.021  12.475 -1.4582  2.0459  0.2549
 6702TIP3    H241598   3.286   0.166  12.452  1.6299  1.0273 -1.0909
 6703TIP3   OH241599   0.630   1.532  16.980 -0.1060  0.6980  0.1935
 6703TIP3    H141600   0.628   1.532  16.884 -0.8672 -2.3581  0.1411
 6703TIP3    H241601   0.538   1.528  17.006  0.0355  2.7891  1.1154
 6704TIP3   OH241602   2.119   3.488  16.711  0.1041 -0.0151  0.1360
 6704TIP3    H141603   2.151   3.578  16.703 -0.8582  0.3834  0.5703
 6704TIP3    H241604   2.175   3.437  16.653 -0.4436  1.1603 -1.4619
 6705TIP3   OH241605   0.187   3.796   1.129 -0.4880  0.2483  0.1863
 6705TIP3    H141606   0.142   3.781   1.046  0.9697  0.1719 -0.5972
 6705TIP3    H241607   0.225   3.711   1.151 -1.1646  0.1759  1.1304
 6706TIP3   OH241608   0.089   1.818   4.944  0.2764 -0.0765  0.0273
 6706TIP3    H141609   0.032   1.841   4.870 -0.6199  0.3949  0.8509
 6706TIP3    H241610   0.090   1.897   4.999  0.4406 -0.6307  0.8310
 6707TIP3   OH241611   3.843   2.911  11.772  0.0719  0.2236  0.3100
 6707TIP3    H141612   3.873   3.001  11.764  1.8224 -0.6091 -4.7782
 6707TIP3    H241613   3.916   2.864  11.813  0.7859  0.4253 -0.7203
 6708TIP3   OH241614   3.758   6.146  15.520 -0.8239  0.6376 -0.7679
 6708TIP3    H141615   3.846   6.156  15.484  0.1009  0.4428  1.3594
 6708TIP3    H241616   3.762   6.067  15.573 -2.4030  0.3836 -0.9930
 6709TIP3   OH241617   3.764   1.007  10.835  0.1225 -0.2344  0.0163
 6709TIP3    H141618   3.787   0.987  10.744 -2.5839 -2.1462 -0.3070
 6709TIP3    H241619   3.833   0.968  10.887  2.2963  1.8189 -1.2178
 6710TIP3   OH241620   6.008   4.688  11.043  0.1320 -0.3397  0.1304
 6710TIP3    H141621   6.018   4.726  10.956  1.4666 -0.4612  0.2277
 6710TIP3    H241622   6.096   4.687  11.079 -0.3949 -0.4157  1.4366
 6711TIP3   OH241623   2.286   0.784  11.762  0.5410  0.1885 -0.0927
 6711TIP3    H141624   2.379   0.784  11.739  0.6865  1.5437  0.4871
 6711TIP3    H241625   2.276   0.705  11.815  1.6938  0.8231  1.1066
 6712TIP3   OH241626   2.604   5.869  11.767 -0.3782 -0.5680 -0.2014
 6712TIP3    H141627   2.651   5.858  11.849 -2.0812 -0.3448  0.8211
 6712TIP3    H241628   2.583   5.962  11.764  1.1680 -0.2393 -1.7341
 6713TIP3   OH241629   2.848   6.635   5.267 -0.1366  0.0853  0.0226
 6713TIP3    H141630   2.860   6.705   5.331  0.0823 -0.8655  1.0317
 6713TIP3    H241631   2.927   6.582   5.275  0.1493  0.2477 -1.4292
 6714TIP3   OH241632   2.165   3.024  15.438  0.1906 -0.1201  0.1845
 6714TIP3    H141633   2.155   3.086  15.366  0.8614 -1.5627 -1.1838
 6714TIP3    H241634   2.246   2.977  15.418  0.1298 -0.8699  1.6324
 6715TIP3   OH241635   3.481   3.621   1.646  1.1912  0.1827  0.3860
 6715TIP3    H141636   3.514   3.536   1.617 -0.2039  0.2824 -1.5678
 6715TIP3    H241637   3.387   3.607   1.659  0.9395  1.4280 -0.0188
 6716TIP3   OH241638   1.319   5.760  13.852  0.4709  0.2766  0.1635
 6716TIP3    H141639   1.385   5.726  13.913  0.0454  2.2234  1.7738
 6716TIP3    H241640   1.370   5.795  13.779  1.1096 -0.1042  0.4198
 6717TIP3   OH241641   1.207   5.566   3.468 -0.1723 -0.5653  0.1781
 6717TIP3    H141642   1.149   5.494   3.494 -0.5676 -0.1325  0.5120
 6717TIP3    H241643   1.221   5.554   3.374  0.1768 -1.3717  0.3349
 6718TIP3   OH241644   3.653   2.773  13.476  0.3516 -0.6266 -0.0748
 6718TIP3    H141645   3.676   2.848  13.422 -0.5821  0.2755  0.7581
 6718TIP3    H241646   3.721   2.770  13.544 -0.9409  0.9369  1.3146
 6719TIP3   OH241647   6.802   3.383  16.511 -0.2794  0.0904 -0.0084
 6719TIP3    H141648   6.734   3.339  16.460 -0.3379  0.7490 -0.5036
 6719TIP3    H241649   6.884   3.353  16.472 -0.3170  0.3884 -0.3090
 6720TIP3   OH241650   6.064   4.678  14.341  0.2985  0.2531 -0.5179
 6720TIP3    H141651   6.018   4.708  14.263 -1.4942  0.4073  0.5596
 6720TIP3    H241652   6.039   4.741  14.409  0.9435 -0.5120  0.4433
 6721TIP3   OH241653   0.631   4.056  15.805 -0.1136 -0.3531  0.6596
 6721TIP3    H141654   0.571   3.994  15.847 -0.9694  0.0978  0.1216
 6721TIP3    H241655   0.627   4.034  15.712  0.2561 -0.0634  0.5724
 6722TIP3   OH241656   3.215   3.690  11.260  0.3955  0.3399 -0.0498
 6722TIP3    H141657   3.152   3.659  11.195  2.7463 -0.6862 -1.9057
 6722TIP3    H241658   3.273   3.616  11.275  0.6386  0.9534  2.3670
 6723TIP3   OH241659   5.046   3.985  15.146 -0.4826 -0.2608  0.2268
 6723TIP3    H141660   4.967   4.019  15.187 -0.6011  0.1493 -0.3282
 6723TIP3    H241661   5.116   4.008  15.206 -0.7944 -0.7170  0.7708
 6724TIP3   OH241662   1.707   5.709  10.839  0.4696 -0.2275 -0.5868
 6724TIP3    H141663   1.695   5.804  10.843  0.5083 -0.2443 -0.0554
 6724TIP3    H241664   1.716   5.690  10.745 -2.6401 -0.0947 -0.9514
 6725TIP3   OH241665   4.958   0.843   0.538  0.6316  0.0598  0.4749
 6725TIP3    H141666   4.967   0.900   0.614  0.2182  1.5262 -0.5638
 6725TIP3    H241667   4.891   0.885   0.483  3.1069  0.6890 -2.1913
 6726TIP3   OH241668   3.855   0.659   1.002 -0.1145  0.4284 -0.3687
 6726TIP3    H141669   3.867   0.723   0.931  1.9209 -0.5104 -0.9124
 6726TIP3    H241670   3.909   0.585   0.976 -2.5302 -1.5721  0.2208
 6727TIP3   OH241671   5.942   6.338  11.578 -0.2121  0.0810  0.3510
 6727TIP3    H141672   5.975   6.427  11.571  2.3741 -0.8852 -0.1490
 6727TIP3    H241673   5.988   6.300  11.653  1.1033 -1.8027 -1.3446
 6728TIP3   OH241674   2.891   1.910  15.426 -0.1034 -0.2253 -0.4699
 6728TIP3    H141675   2.973   1.939  15.385  1.6352  2.2567  4.4067
 6728TIP3    H241676   2.907   1.819  15.449  1.0069  0.0090 -0.2701
 6729TIP3   OH241677   0.326   4.805   4.801 -0.0656  0.1651 -0.5863
 6729TIP3    H141678   0.286   4.718   4.801 -2.8449  1.3500  1.9959
 6729TIP3    H241679   0.397   4.799   4.866 -2.5639  0.7230  2.3070
 6730TIP3   OH241680   0.525   1.702  15.448  0.3575  0.4442 -0.4169
 6730TIP3    H141681   0.542   1.751  15.529  0.0289  0.0923 -0.1340
 6730TIP3    H241682   0.479   1.623  15.477 -0.7544  0.8473 -1.0521
 6731TIP3   OH241683   4.186   1.723   4.108  0.1808 -0.0155  0.0477
 6731TIP3    H141684   4.220   1.640   4.139  1.5335  0.7813  0.7502
 6731TIP3    H241685   4.262   1.767   4.069 -0.4388  1.0223 -0.0083
 6732TIP3   OH241686   2.344   3.332   4.123  0.0745  0.5744  0.5262
 6732TIP3    H141687   2.393   3.320   4.205  1.6544  1.2638 -0.2865
 6732TIP3    H241688   2.393   3.399   4.076 -2.3132  2.1165  0.1568
 6733TIP3   OH241689   0.629   3.343  14.994 -0.0300 -0.4474 -0.0444
 6733TIP3    H141690   0.682   3.413  14.954  0.3181 -0.8050 -0.2153
 6733TIP3    H241691   0.547   3.386  15.016 -1.0239 -0.6762 -2.9901
 6734TIP3   OH241692   5.230   2.251  17.164  0.3554  0.2398 -0.1675
 6734TIP3    H141693   5.169   2.261  17.238  2.4478 -0.0695  1.6585
 6734TIP3    H241694   5.210   2.165  17.129 -1.6551  0.9765 -0.9301
 6735TIP3   OH241695   1.280   4.628   0.265 -0.0488 -0.4013 -0.2227
 6735TIP3    H141696   1.323   4.634   0.180  0.3069 -0.1328 -0.0244
 6735TIP3    H241697   1.338   4.572   0.318  0.3455  0.4181  0.2190
 6736TIP3   OH241698   5.315   1.462   4.654  0.2547  0.4288  0.1061
 6736TIP3    H141699   5.314   1.554   4.626  0.8233 -0.3127 -2.4058
 6736TIP3    H241700   5.400   1.429   4.628 -0.1255 -0.9551  0.5738
 6737TIP3   OH241701   2.460   4.668  13.414 -0.0762  0.0493  0.1839
 6737TIP3    H141702   2.433   4.584  13.452 -0.3341 -0.0488 -0.2176
 6737TIP3    H241703   2.521   4.705  13.478 -1.3570  0.3899  1.2323
 6738TIP3   OH241704   6.472   4.100   3.101 -0.1861 -0.0815 -0.0727
 6738TIP3    H141705   6.496   4.131   3.188 -0.8521 -0.8658  0.4102
 6738TIP3    H241706   6.484   4.005   3.106  1.6935  0.0543 -1.4695
 6739TIP3   OH241707   0.584   2.528  13.381  0.2631  0.2444 -0.0630
 6739TIP3    H141708   0.531   2.497  13.307  1.1808 -0.8243 -0.2881
 6739TIP3    H241709   0.656   2.575  13.340  0.9940 -0.6975  0.1323
 6740TIP3   OH241710   1.560   5.072   5.320 -0.2211  0.0085 -0.4200
 6740TIP3    H141711   1.587   4.982   5.337 -1.5824 -0.1434  0.9678
 6740TIP3    H241712   1.540   5.109   5.406  0.2771  1.6333 -0.9769
 6741TIP3   OH241713   5.797   1.046  12.689 -0.3690  0.0101  0.2550
 6741TIP3    H141714   5.761   0.967  12.648  0.0260  1.5157 -3.1711
 6741TIP3    H241715   5.740   1.116  12.659  0.3612  1.2577  1.7644
 6742TIP3   OH241716   6.621   5.978   2.684 -0.1723 -0.1089  0.4720
 6742TIP3    H141717   6.555   6.007   2.622  0.2138  0.7438  0.4567
 6742TIP3    H241718   6.615   5.882   2.682 -0.9441 -0.0552 -0.0185
 6743TIP3   OH241719   0.603   0.984   1.532  0.4747 -0.5943 -0.2333
 6743TIP3    H141720   0.697   0.970   1.549  0.4095 -0.8383 -0.0727
 6743TIP3    H241721   0.596   1.079   1.518  0.1078  0.1107  3.9107
 6744TIP3   OH241722   4.938   0.426  10.997  0.3542  0.4130 -0.1248
 6744TIP3    H141723   4.872   0.480  10.954  1.1807 -0.0140 -2.0221
 6744TIP3    H241724   5.019   0.477  10.990  0.5147  0.3128  0.9141
 6745TIP3   OH241725   4.200   5.082   1.781  0.4345 -1.0228 -0.0927
 6745TIP3    H141726   4.274   5.084   1.841  1.7123 -0.9403 -1.6563
 6745TIP3    H241727   4.129   5.044   1.833  1.9829 -2.5909  0.9498
 6746TIP3   OH241728   5.665   5.304   1.591  0.0939 -1.3648 -0.0785
 6746TIP3    H141729   5.623   5.380   1.551  0.2877 -0.6011  1.1395
 6746TIP3    H241730   5.655   5.234   1.526 -0.9678 -0.5680 -0.7921
 6747TIP3   OH241731   5.125   2.856   5.181  0.2499  0.2145  0.0825
 6747TIP3    H141732   5.195   2.807   5.138  0.0393 -0.9190  1.0008
 6747TIP3    H241733   5.163   2.942   5.198  2.0709 -0.9387  2.1992
 6748TIP3   OH241734   3.764   1.805   5.187  0.3445  0.0966 -0.5594
 6748TIP3    H141735   3.709   1.727   5.185 -1.1691  1.1569 -0.7114
 6748TIP3    H241736   3.852   1.772   5.169 -0.8163 -1.1026 -4.4737
 6749TIP3   OH241737   6.091   3.781  15.164 -0.2945  0.3805 -0.3324
 6749TIP3    H141738   6.090   3.866  15.209  0.1915  0.4814 -0.5039
 6749TIP3    H241739   6.080   3.717  15.234  1.5610  0.4844  0.0815
 6750TIP3   OH241740   5.493   3.825  17.066  0.2714  0.1571  0.0472
 6750TIP3    H141741   5.480   3.809  16.972 -1.1682  3.2888 -0.3743
 6750TIP3    H241742   5.571   3.880  17.071  1.4489 -1.5668  0.8647
 6751TIP3   OH241743   0.415   6.722  15.251  0.2151  0.0017  0.0943
 6751TIP3    H141744   0.408   6.702  15.345 -0.2911 -2.2042 -0.3762
 6751TIP3    H241745   0.328   6.755  15.228  0.5600  1.2614  0.5311
 6752TIP3   OH241746   3.201   5.474  11.035  0.0610  0.7496  0.1282
 6752TIP3    H141747   3.204   5.403  11.100 -2.2113  0.1072 -0.4244
 6752TIP3    H241748   3.290   5.478  11.000  0.6725 -0.6240  1.4518
 6753TIP3   OH241749   0.317   5.092   5.842 -0.2092 -0.1774  0.0941
 6753TIP3    H141750   0.352   5.116   5.928  1.1864 -0.9480 -0.2261
 6753TIP3    H241751   0.300   4.998   5.849  1.8164 -0.6774 -1.0567
 6754TIP3   OH241752   2.546   0.213  11.231 -0.0302 -0.8139 -0.2072
 6754TIP3    H141753   2.563   0.224  11.137  0.5950 -2.7327 -0.3392
 6754TIP3    H241754   2.554   0.302  11.267  0.3509 -0.1532 -1.8640
 6755TIP3   OH241755   4.913   3.243  13.974 -0.6898 -0.0390 -0.1364
 6755TIP3    H141756   4.829   3.236  14.021 -0.6203  0.0966  0.0092
 6755TIP3    H241757   4.922   3.160  13.928 -0.5789 -0.3180  0.3876
 6756TIP3   OH241758   2.214   6.202  12.213 -0.0250 -0.0670  0.6358
 6756TIP3    H141759   2.149   6.221  12.145  1.4310  0.1976 -0.7448
 6756TIP3    H241760   2.195   6.113  12.241 -1.1029  0.0825  0.4036
 6757TIP3   OH241761   1.666   2.393   4.809  0.7408 -0.4442 -0.0020
 6757TIP3    H141762   1.677   2.433   4.723  0.9676  1.1890  0.7639
 6757TIP3    H241763   1.749   2.409   4.854  0.7654 -1.6258  0.4066
 6758TIP3   OH241764   2.846   2.733  11.265 -0.0271  0.0852  0.3657
 6758TIP3    H141765   2.926   2.701  11.306 -0.4882  0.0354  1.2442
 6758TIP3    H241766   2.870   2.747  11.173  1.3470  1.3469  0.8904
 6759TIP3   OH241767   1.896   5.997   3.743  0.0491 -0.1700  0.2173
 6759TIP3    H141768   1.984   5.975   3.773 -0.0641  0.6670  1.2166
 6759TIP3    H241769   1.850   5.913   3.739  0.9718 -0.6453 -0.5935
 6760TIP3   OH241770   2.822   6.301  16.845  0.1603  0.1964 -0.1640
 6760TIP3    H141771   2.891   6.246  16.808 -0.0259  0.2287 -0.5639
 6760TIP3    H241772   2.821   6.379  16.789 -0.7130 -0.1361 -0.6325
 6761TIP3   OH241773   3.049   0.980  13.569 -0.2253 -0.4060 -0.2637
 6761TIP3    H141774   3.081   0.894  13.596 -0.8972 -0.5317  0.1205
 6761TIP3    H241775   2.958   0.983  13.597 -0.1886  0.4598 -0.2024
 6762TIP3   OH241776   4.307   3.699  12.224 -0.2519  0.4751  0.2259
 6762TIP3    H141777   4.257   3.684  12.304  1.6268 -2.1091  0.9873
 6762TIP3    H241778   4.303   3.616  12.177  2.2580  0.5792 -0.2574
 6763TIP3   OH241779   6.468   0.304  11.831 -0.8406 -0.2047  0.3675
 6763TIP3    H141780   6.522   0.234  11.793 -0.5408  1.0325 -1.5433
 6763TIP3    H241781   6.474   0.290  11.925  0.2963 -1.9632  0.0555
 6764TIP3   OH241782   5.560   5.703  13.587 -0.1221  0.4778  1.0677
 6764TIP3    H141783   5.507   5.715  13.507  0.0479  2.4344  1.2215
 6764TIP3    H241784   5.639   5.660  13.557  0.4981  2.3476 -0.0638
 6765TIP3   OH241785   3.624   4.751   1.001 -0.7347  0.2995  0.7218
 6765TIP3    H141786   3.592   4.666   1.032 -2.6730  0.7841  0.0674
 6765TIP3    H241787   3.715   4.754   1.031 -0.3112 -2.4559 -0.1409
 6766TIP3   OH241788   3.624   4.236  14.367  0.3753 -0.2532  0.5430
 6766TIP3    H141789   3.670   4.295  14.307  0.3602 -2.4402 -1.6681
 6766TIP3    H241790   3.694   4.199  14.421  0.8692 -1.2127 -0.7331
 6767TIP3   OH241791   4.211   0.495   1.634 -0.1375 -0.0662  0.2524
 6767TIP3    H141792   4.282   0.518   1.574 -0.6586 -0.4767 -0.5259
 6767TIP3    H241793   4.233   0.541   1.715  0.5485  0.5386 -0.2642
 6768TIP3   OH241794   2.033   3.249  10.601  0.4317 -0.4362  0.1335
 6768TIP3    H141795   1.953   3.255  10.654  2.2992  0.2768  2.9983
 6768TIP3    H241796   2.026   3.322  10.539 -0.4950  0.5183  1.3179
 6769TIP3   OH241797   3.911   6.158  12.556 -0.7299  0.0074 -0.4352
 6769TIP3    H141798   3.970   6.142  12.630 -0.2422 -0.6212 -0.9449
 6769TIP3    H241799   3.965   6.141  12.479 -2.3775 -3.7540 -0.9089
 6770TIP3   OH241800   2.103   2.624   0.803 -0.0430 -0.1674 -0.0204
 6770TIP3    H141801   2.086   2.703   0.751 -1.1263  0.7967  1.7377
 6770TIP3    H241802   2.151   2.567   0.745 -1.3829  0.8180 -2.1593
 6771TIP3   OH241803   6.106   2.424  16.652 -0.7144 -0.2366  0.0346
 6771TIP3    H141804   6.195   2.390  16.666 -0.4560  1.0752  1.7287
 6771TIP3    H241805   6.113   2.475  16.571 -0.6042 -2.4030 -1.3557
 6772TIP3   OH241806   4.275   4.167  12.624  0.7194 -0.2824 -0.8804
 6772TIP3    H141807   4.217   4.101  12.586 -1.7117  1.5198 -0.4004
 6772TIP3    H241808   4.321   4.120  12.694 -0.4421 -1.6752 -1.0294
 6773TIP3   OH241809   0.018   2.350  14.234  0.1796  0.0236 -0.0157
 6773TIP3    H141810  -0.073   2.319  14.238  1.3748 -3.7101  0.8271
 6773TIP3    H241811   0.035   2.365  14.141 -1.6644  2.0608 -0.0506
 6774TIP3   OH241812   5.336   4.938   0.370  0.1037  0.0432 -0.0586
 6774TIP3    H141813   5.320   4.866   0.309 -0.0076  1.5035 -1.7589
 6774TIP3    H241814   5.343   4.895   0.455  0.4012 -2.0237 -1.0985
 6775TIP3   OH241815   4.636   0.113   2.844  0.1469  0.4712  0.0735
 6775TIP3    H141816   4.667   0.054   2.914 -0.5224  0.4377  0.3478
 6775TIP3    H241817   4.546   0.135   2.870  0.3011  1.3979 -0.1719
 6776TIP3   OH241818   0.671   2.839   1.273  0.3664 -0.1631 -0.7542
 6776TIP3    H141819   0.696   2.918   1.226 -0.1180 -1.0695 -2.5692
 6776TIP3    H241820   0.645   2.777   1.205 -0.4198 -1.4876  0.7049
 6777TIP3   OH241821   1.638   4.045  12.091 -0.1579  0.0104  0.4780
 6777TIP3    H141822   1.602   3.961  12.120 -0.5762 -0.4388 -1.2749
 6777TIP3    H241823   1.651   4.095  12.172  0.7644 -2.0000  1.6168
 6778TIP3   OH241824   5.066   3.859  11.761 -0.3384 -0.1166 -0.6970
 6778TIP3    H141825   5.127   3.805  11.710 -0.0408 -0.7593  0.3422
 6778TIP3    H241826   4.994   3.800  11.783  0.4184 -0.3530  1.2279
 6779TIP3   OH241827   2.824   2.235   2.594  0.3807 -0.1121 -0.6817
 6779TIP3    H141828   2.839   2.327   2.616 -0.5752  0.2908 -1.6521
 6779TIP3    H241829   2.895   2.188   2.637  0.1631  0.9522  0.8644
 6780TIP3   OH241830   1.656   6.360  13.368  0.1917 -0.1764 -0.0928
 6780TIP3    H141831   1.686   6.446  13.396 -0.7365 -0.1447  0.8307
 6780TIP3    H241832   1.619   6.320  13.447  0.1662 -1.2265 -0.6200
 6781TIP3   OH241833   0.081   6.457  13.200  0.6085 -0.1060  0.3571
 6781TIP3    H141834   0.008   6.421  13.149  1.9811 -0.5744 -1.3329
 6781TIP3    H241835   0.149   6.390  13.194  0.9975  0.0797  2.3978
 6782TIP3   OH241836   3.802   3.246   4.758  0.4102  0.5712 -0.4245
 6782TIP3    H141837   3.776   3.301   4.832 -0.0488  0.2630 -0.3550
 6782TIP3    H241838   3.728   3.252   4.697  0.3939  0.1068 -0.4558
 6783TIP3   OH241839   2.152   4.903  16.407 -0.0010 -0.3624 -0.5171
 6783TIP3    H141840   2.057   4.907  16.402  0.0687  1.6824 -0.6535
 6783TIP3    H241841   2.182   4.953  16.331  1.1640  0.4282  0.4372
 6784TIP3   OH241842   3.686   6.324  11.528 -0.8223  0.2786 -0.1044
 6784TIP3    H141843   3.652   6.265  11.595  1.8759  0.2153  1.2971
 6784TIP3    H241844   3.610   6.373  11.498 -1.7832  2.0069  4.7270
 6785TIP3   OH241845   5.945   6.513  13.748 -0.3172  0.1223  0.4015
 6785TIP3    H141846   5.966   6.575  13.818 -0.8897 -1.3104  1.8815
 6785TIP3    H241847   6.006   6.440  13.761  0.4118  0.3915 -1.3720
 6786TIP3   OH241848   1.559   3.897   5.705  0.4962 -0.2875  0.9678
 6786TIP3    H141849   1.619   3.967   5.732 -0.0098 -0.0630  1.5168
 6786TIP3    H241850   1.587   3.875   5.616  2.9015 -1.8284  2.0589
 6787TIP3   OH241851   2.146   5.531  13.540 -0.3470  0.3787  0.6478
 6787TIP3    H141852   2.211   5.598  13.521 -0.2935  0.6953  1.8594
 6787TIP3    H241853   2.095   5.568  13.613 -0.4452 -0.7998  1.1889
 6788TIP3   OH241854   0.131   4.614   5.351 -0.2150  0.0605 -0.1625
 6788TIP3    H141855   0.216   4.624   5.309 -0.1105  0.0637  0.0500
 6788TIP3    H241856   0.132   4.525   5.387  1.1486  1.3300  3.0880
 6789TIP3   OH241857   1.664   1.574  16.773  0.1692 -0.2187 -0.4922
 6789TIP3    H141858   1.755   1.549  16.789 -0.3903 -2.5892 -0.6865
 6789TIP3    H241859   1.655   1.569  16.678  0.0094  0.7134 -0.5293
 6790TIP3   OH241860   2.026   2.176   2.789  0.3995 -0.0286 -0.0200
 6790TIP3    H141861   2.100   2.213   2.836  1.2282 -1.5578 -0.0807
 6790TIP3    H241862   1.954   2.177   2.852  0.9245 -0.0887  0.5843
 6791TIP3   OH241863   2.680   4.690  12.219  0.2133 -0.2931  0.4872
 6791TIP3    H141864   2.626   4.735  12.284 -0.0634  0.4530 -0.2390
 6791TIP3    H241865   2.769   4.721  12.236  0.1193  0.0223  0.4147
 6792TIP3   OH241866   1.427   3.296  14.128 -0.4818  0.3295  1.2094
 6792TIP3    H141867   1.381   3.222  14.090  0.3997  0.7060 -0.6742
 6792TIP3    H241868   1.358   3.350  14.167 -1.5376  0.2965 -0.5417
 6793TIP3   OH241869   6.777   6.376   0.851 -0.5452  0.6349 -0.6592
 6793TIP3    H141870   6.699   6.397   0.902  0.4494 -0.1154  1.2059
 6793TIP3    H241871   6.755   6.295   0.805 -0.9103  0.4829 -0.2161
 6794TIP3   OH241872   2.098   6.110  15.020  0.6793 -0.7405  0.4525
 6794TIP3    H141873   2.139   6.181  15.069 -1.0766  0.1068  0.7457
 6794TIP3    H241874   2.155   6.096  14.945  1.9221 -0.1612  1.2715
 6795TIP3   OH241875   1.890   4.322   5.676 -0.2937  0.1881 -0.2039
 6795TIP3    H141876   1.954   4.328   5.605 -0.9383  0.9764 -0.7251
 6795TIP3    H241877   1.935   4.360   5.752 -0.9431  2.8611 -1.1296
 6796TIP3   OH241878   6.093   1.711  12.093 -0.1322  0.4545 -0.3588
 6796TIP3    H141879   6.034   1.771  12.138  0.0965  1.1231 -0.9503
 6796TIP3    H241880   6.061   1.708  12.003  1.7470  2.1495 -1.1109
 6797TIP3   OH241881   3.484   4.313   4.943 -0.1574  0.3429  0.1099
 6797TIP3    H141882   3.536   4.262   4.881  0.2030  0.0162  0.6797
 6797TIP3    H241883   3.527   4.300   5.027 -1.8207 -0.8148  0.7954
 6798TIP3   OH241884   5.893   4.273   2.594  0.3236  0.5415 -0.0636
 6798TIP3    H141885   5.860   4.295   2.507 -1.0193 -0.7388  0.1105
 6798TIP3    H241886   5.825   4.219   2.633  1.0890  0.7699  1.6473
 6799TIP3   OH241887   0.913   0.736  14.845 -0.0112  0.2273 -0.6348
 6799TIP3    H141888   0.992   0.763  14.892  0.7216 -0.6242 -1.3525
 6799TIP3    H241889   0.945   0.705  14.760 -1.1377  0.0180 -0.9980
 6800TIP3   OH241890   3.348   3.300   5.756  0.0172 -0.3932  0.6934
 6800TIP3    H141891   3.255   3.300   5.780  0.5092 -2.7261  2.8142
 6800TIP3    H241892   3.392   3.344   5.828  0.6842 -0.3702  0.2756
 6801TIP3   OH241893   3.825   0.198   3.768 -0.5367  0.0290 -0.0650
 6801TIP3    H141894   3.791   0.229   3.851 -2.5864  1.9634 -1.5643
 6801TIP3    H241895   3.782   0.113   3.755  0.6893 -0.8366  1.3477
 6802TIP3   OH241896   6.195   4.647  17.270  0.3326 -0.1765  0.4012
 6802TIP3    H141897   6.128   4.698  17.226  0.7730 -0.4738 -0.6304
 6802TIP3    H241898   6.161   4.632  17.358 -0.7089  0.1222  0.0463
 6803TIP3   OH241899   5.342   4.270  13.727 -0.8120 -0.0702  0.3723
 6803TIP3    H141900   5.311   4.182  13.749 -1.1303 -0.3238 -1.0242
 6803TIP3    H241901   5.392   4.259  13.646 -0.6918  0.9981  0.2852
 6804TIP3   OH241902   3.995   1.014   5.703  0.0956  0.1328  0.1128
 6804TIP3    H141903   4.080   1.018   5.659  0.1406 -1.1546  0.0832
 6804TIP3    H241904   3.970   1.106   5.714  0.2591  0.4734 -2.2229
 6805TIP3   OH241905   4.954   5.659   6.525 -0.5186  0.3438  0.2012
 6805TIP3    H141906   4.986   5.572   6.502  1.4494  0.6670  1.5688
 6805TIP3    H241907   4.997   5.678   6.608 -1.3124  2.4189  0.1462
 6806TIP3   OH241908   2.707   2.642   5.373 -0.6694  0.7588  0.0687
 6806TIP3    H141909   2.625   2.677   5.340 -0.6631  1.0227  0.3355
 6806TIP3    H241910   2.706   2.661   5.466 -0.6469  0.0929  0.2078
 6807TIP3   OH241911   3.891   2.810  15.964 -0.5199 -0.2353  0.3947
 6807TIP3    H141912   3.800   2.832  15.944 -0.4462 -1.3832 -1.2707
 6807TIP3    H241913   3.937   2.894  15.961 -1.4142  0.2739  0.6800
 6808TIP3   OH241914   2.558   5.309   0.283 -0.3684 -0.3292  0.2537
 6808TIP3    H141915   2.547   5.399   0.311 -1.2077 -0.6933  1.1309
 6808TIP3    H241916   2.473   5.268   0.302  0.5137 -1.6867  1.3530
 6809TIP3   OH241917   6.237   0.940  15.317 -0.2397  0.1733  0.2490
 6809TIP3    H141918   6.317   0.910  15.275 -0.7812 -1.0885  0.0784
 6809TIP3    H241919   6.167   0.909  15.260 -0.9702 -1.2589  1.8518
 6810TIP3   OH241920   4.729   3.289  10.962  0.3545 -0.1280  0.5927
 6810TIP3    H141921   4.633   3.299  10.963  0.3419 -0.2702  1.3074
 6810TIP3    H241922   4.760   3.365  10.914 -0.1022  0.1022  0.6543
 6811TIP3   OH241923   0.240   5.173  12.966 -0.5090 -0.3473 -0.4163
 6811TIP3    H141924   0.295   5.175  12.888 -0.8715 -0.1620 -0.6688
 6811TIP3    H241925   0.298   5.199  13.037 -0.5667  1.0178 -0.8546
 6812TIP3   OH241926   2.180   5.514  15.056 -0.2033  0.5227 -0.3389
 6812TIP3    H141927   2.098   5.465  15.062  0.1180  0.0379  0.1308
 6812TIP3    H241928   2.153   5.606  15.058 -0.6310  0.3797  1.4839
 6813TIP3   OH241929   4.167   6.570  11.845  0.5669  0.0677 -0.3015
 6813TIP3    H141930   4.181   6.638  11.911 -1.0086  1.2546 -1.1811
 6813TIP3    H241931   4.074   6.549  11.852  0.2887  0.5503 -2.5116
 6814TIP3   OH241932   5.645   0.845  12.573  0.4165 -0.7832 -0.1950
 6814TIP3    H141933   5.645   0.752  12.546  1.2260 -1.4009  1.8787
 6814TIP3    H241934   5.559   0.857  12.613  1.2292 -1.3132  1.7460
 6815TIP3   OH241935   0.859   4.228  11.383  0.2737  0.1626  0.3444
 6815TIP3    H141936   0.906   4.227  11.466  0.4775 -0.4991  0.2249
 6815TIP3    H241937   0.767   4.228  11.408  0.2893 -2.5034  0.6002
 6816TIP3   OH241938   1.827   6.363   1.389 -0.0330 -0.2040  0.2386
 6816TIP3    H141939   1.786   6.401   1.311 -2.1273  1.3660  2.0658
 6816TIP3    H241940   1.807   6.424   1.459  2.3064 -1.3206  1.9365
 6817TIP3   OH241941   4.045   5.431   1.471 -0.3739 -0.0997  0.4542
 6817TIP3    H141942   4.011   5.369   1.407  2.1145  0.5424 -1.5930
 6817TIP3    H241943   4.106   5.380   1.524  1.3099  0.4098 -0.9238
 6818TIP3   OH241944   2.901   1.867  13.814 -0.4546 -0.2858 -0.3203
 6818TIP3    H141945   2.964   1.797  13.833 -0.2857 -0.0089  0.1562
 6818TIP3    H241946   2.893   1.867  13.719 -0.1114 -0.6571 -0.3496
 6819TIP3   OH241947   1.718   6.218  12.892  0.2686 -0.2458  0.4842
 6819TIP3    H141948   1.712   6.272  12.970 -0.5427  2.5734 -1.4675
 6819TIP3    H241949   1.630   6.182  12.880 -0.4849  1.9980 -0.9488
 6820TIP3   OH241950   1.240   1.237  11.961 -0.2011  1.1725 -0.0210
 6820TIP3    H141951   1.154   1.270  11.987 -0.3428  1.1032 -0.4024
 6820TIP3    H241952   1.261   1.285  11.881 -0.6825 -0.1242 -0.9261
 6821TIP3   OH241953   0.027   4.777   6.367  0.7669  1.0078 -0.4320
 6821TIP3    H141954  -0.025   4.851   6.335 -1.7461  1.2963  4.0060
 6821TIP3    H241955   0.110   4.817   6.393 -0.7538  2.4706  2.4182
 6822TIP3   OH241956   3.079   2.983   4.588  0.6785 -0.4131  0.0014
 6822TIP3    H141957   3.098   2.962   4.497 -2.5195 -0.8090 -0.6367
 6822TIP3    H241958   3.012   3.051   4.584 -0.7864 -1.6601  1.9944
 6823TIP3   OH241959   3.628   5.374   1.941  0.5554  0.3851  0.1586
 6823TIP3    H141960   3.673   5.339   2.018  0.2976  1.0966  0.6335
 6823TIP3    H241961   3.535   5.366   1.962  0.4988  3.0318  1.0426
 6824TIP3   OH241962   6.688   6.617  16.595 -0.0638  0.3049 -0.1199
 6824TIP3    H141963   6.596   6.629  16.572  0.2828 -0.0804 -1.7415
 6824TIP3    H241964   6.709   6.528  16.566  0.8524  0.4259  0.1535
 6825TIP3   OH241965   3.684   0.630   3.796  0.0929  0.0298 -0.2391
 6825TIP3    H141966   3.737   0.567   3.746  0.1509 -0.2107  0.1297
 6825TIP3    H241967   3.600   0.630   3.751 -0.0973 -0.7409  0.1025
 6826TIP3   OH241968   3.391   5.704  14.022 -0.6344 -0.3164  0.6392
 6826TIP3    H141969   3.397   5.794  14.052  0.4542  0.4065 -1.6053
 6826TIP3    H241970   3.368   5.653  14.100  0.1787  1.7004  2.2160
 6827TIP3   OH241971   4.624   1.781   0.905 -0.0462  0.1806 -0.3191
 6827TIP3    H141972   4.718   1.795   0.921  0.2259  1.8661 -3.0779
 6827TIP3    H241973   4.584   1.783   0.992  2.2241  1.4023  0.7408
 6828TIP3   OH241974   5.170   1.779  16.014  0.0227 -0.1679  0.1477
 6828TIP3    H141975   5.087   1.772  16.060  0.1074 -0.1504  0.3042
 6828TIP3    H241976   5.149   1.759  15.923 -0.2461  0.3405  0.0970
 6829TIP3   OH241977   5.020   6.129  13.713 -0.4852 -0.4673  0.1187
 6829TIP3    H141978   5.070   6.117  13.633 -0.7827 -0.0265 -0.1375
 6829TIP3    H241979   5.015   6.042  13.752 -0.8312 -0.7933 -0.6373
 6830TIP3   OH241980   1.729   6.415  12.264 -0.9457  0.4914  0.4424
 6830TIP3    H141981   1.798   6.373  12.316 -0.9713 -0.7864 -0.5381
 6830TIP3    H241982   1.755   6.507  12.261  0.3784  0.1396  0.6356
 6831TIP3   OH241983   5.904   1.354  16.444  0.1288  0.3159 -0.2069
 6831TIP3    H141984   5.950   1.369  16.527  0.7341 -1.2651 -0.2435
 6831TIP3    H241985   5.941   1.419  16.384  1.5318 -0.2161  0.0685
 6832TIP3   OH241986   6.335   2.357   2.650  0.4580 -0.3005 -0.0945
 6832TIP3    H141987   6.298   2.426   2.704 -1.0015 -0.8057 -0.4173
 6832TIP3    H241988   6.427   2.351   2.677  0.6906  1.9856 -0.3172
 6833TIP3   OH241989   3.469   5.256  13.596 -0.2078 -0.0560 -0.0562
 6833TIP3    H141990   3.551   5.223  13.634 -0.0508  0.0979 -0.2664
 6833TIP3    H241991   3.439   5.322  13.659  0.7219  1.1365 -0.8417
 6834TIP3   OH241992   4.624   4.772   1.994 -0.9169 -0.4622  0.8784
 6834TIP3    H141993   4.663   4.820   1.921 -2.2376 -0.3916  0.2122
 6834TIP3    H241994   4.694   4.714   2.024 -0.7997 -1.5555 -1.3967
 6835TIP3   OH241995   4.285   2.034   2.907 -0.0682 -0.5711 -0.2886
 6835TIP3    H141996   4.202   2.016   2.863  0.7740 -1.7986 -1.4423
 6835TIP3    H241997   4.351   2.011   2.842  1.1921 -0.8415  1.0678
 6836TIP3   OH241998   2.237   6.401   2.164 -0.7340 -0.2287  0.0829
 6836TIP3    H141999   2.294   6.372   2.093 -1.9168  0.3461 -1.1290
 6836TIP3    H242000   2.213   6.491   2.139 -3.6575 -1.1085 -0.3920
 6837TIP3   OH242001   2.018   0.883  13.750  0.1029  0.5442 -0.2703
 6837TIP3    H142002   2.086   0.910  13.688  2.1041  0.7767  1.9699
 6837TIP3    H242003   2.044   0.923  13.833 -1.9646 -0.6147  0.9729
 6838TIP3   OH242004   6.151   5.773  14.950 -0.1765 -0.6541  0.7693
 6838TIP3    H142005   6.244   5.758  14.962  0.2907  1.8874  0.5743
 6838TIP3    H242006   6.119   5.693  14.908  2.0019 -1.3658  0.4131
 6839TIP3   OH242007   3.673   1.670  14.377  0.3279  0.0252  0.0204
 6839TIP3    H142008   3.719   1.588  14.393 -0.0708  0.0895  1.5636
 6839TIP3    H242009   3.724   1.736  14.423  0.1450  0.5041 -0.4536
 6840TIP3   OH242010   1.883   5.079   1.542  0.4822  0.0072  0.1886
 6840TIP3    H142011   1.870   5.157   1.489  1.1457  0.3732  0.5567
 6840TIP3    H242012   1.871   5.109   1.632 -2.9277 -1.0812  0.1414
 6841TIP3   OH242013   2.716   5.837   1.465  0.5438  0.3074  0.3103
 6841TIP3    H142014   2.710   5.781   1.387 -0.3700 -0.5440  0.9862
 6841TIP3    H242015   2.807   5.827   1.495  1.0613  1.0610 -0.9380
 6842TIP3   OH242016   4.730   5.450   1.540  0.4403 -0.2294  0.4092
 6842TIP3    H142017   4.821   5.481   1.542  0.3592  0.0716 -0.6088
 6842TIP3    H242018   4.693   5.481   1.623  1.3135 -0.5172  0.9241
 6843TIP3   OH242019   4.439   4.726   3.538 -0.2262 -0.1856 -0.4585
 6843TIP3    H142020   4.492   4.805   3.544 -1.3642  0.5454  0.1591
 6843TIP3    H242021   4.501   4.654   3.551  0.7563  0.6231 -0.6662
 6844TIP3   OH242022   1.239   4.015  13.880 -0.3434  0.0154  0.2197
 6844TIP3    H142023   1.177   4.021  13.952 -0.2024 -2.7542  0.6348
 6844TIP3    H242024   1.324   4.001  13.923  0.0126  0.0796 -0.4513
 6845TIP3   OH242025   1.722   1.043   3.141  0.6600 -0.2523  0.3514
 6845TIP3    H142026   1.776   1.116   3.171  0.3292 -0.3339  1.1708
 6845TIP3    H242027   1.737   0.974   3.206 -0.3021 -0.3299  0.4924
 6846TIP3   OH242028   4.108   5.699  14.760 -0.3942 -0.0635 -0.1543
 6846TIP3    H142029   4.119   5.791  14.785  1.0747 -0.4328  0.6512
 6846TIP3    H242030   4.093   5.701  14.666  2.3543  0.8382 -0.6133
 6847TIP3   OH242031   0.918   0.498   6.443 -0.2282  0.4895 -0.1558
 6847TIP3    H142032   0.948   0.437   6.510 -0.8713  1.3648  0.9686
 6847TIP3    H242033   0.831   0.525   6.474 -0.0704  1.7299 -0.7783
 6848TIP3   OH242034   3.771   4.488  11.992 -0.2740 -0.1816 -0.1038
 6848TIP3    H142035   3.796   4.572  11.954  2.0101 -0.1037  1.4842
 6848TIP3    H242036   3.676   4.496  12.006  0.4567  3.7115  3.6687
 6849TIP3   OH242037   2.513   6.225   4.024  0.0953 -0.2246  0.5911
 6849TIP3    H142038   2.503   6.310   3.981  0.2899  1.2562  3.3408
 6849TIP3    H242039   2.608   6.217   4.040  0.0883 -1.0001  0.2929
 6850TIP3   OH242040   0.053   3.079  17.197 -0.0043  0.5755 -0.6140
 6850TIP3    H142041   0.057   3.169  17.230 -0.1177  0.6287 -0.7433
 6850TIP3    H242042   0.121   3.075  17.131  0.6533  0.2846  0.0763
 6851TIP3   OH242043   3.719   4.965   5.246  0.1698 -0.7410 -0.0807
 6851TIP3    H142044   3.730   4.920   5.162  1.8369 -1.9330  0.7285
 6851TIP3    H242045   3.773   4.914   5.307 -2.5303 -1.0357  2.1376
 6852TIP3   OH242046   4.430   6.707   2.378  0.0977 -0.4241  0.0704
 6852TIP3    H142047   4.347   6.663   2.396  1.6687 -2.7825  1.8405
 6852TIP3    H242048   4.469   6.656   2.307  0.5575  0.0152  0.0053
 6853TIP3   OH242049   3.810   0.452   3.619 -0.3918  0.4561 -0.4306
 6853TIP3    H142050   3.777   0.419   3.536  1.9066  0.3325 -1.3344
 6853TIP3    H242051   3.817   0.374   3.675  1.6566 -0.1095 -1.4043
 6854TIP3   OH242052   4.254   0.292   2.588 -0.5893  0.4384 -0.7315
 6854TIP3    H142053   4.274   0.309   2.495 -0.6459  0.3756 -0.7553
 6854TIP3    H242054   4.238   0.198   2.592 -0.9851  0.5060 -0.7327
 6855TIP3   OH242055   0.952   2.478  12.658  0.0754 -0.0822  0.3804
 6855TIP3    H142056   1.035   2.430  12.669  0.8997  1.6329  1.8026
 6855TIP3    H242057   0.898   2.419  12.604  2.3384 -1.0675 -0.9142
 6856TIP3   OH242058   2.111   6.164  13.641 -0.7279  0.0545  0.4554
 6856TIP3    H142059   2.101   6.231  13.574 -0.1426 -1.3045 -1.0446
 6856TIP3    H242060   2.205   6.161  13.657 -0.3276 -2.6670 -1.9524
 6857TIP3   OH242061   3.882   2.134  11.198  0.0015  0.7180 -0.4963
 6857TIP3    H142062   3.902   2.205  11.259 -0.9511  0.2537  0.3877
 6857TIP3    H242063   3.792   2.109  11.220  0.4488 -0.9859 -0.5601
 6858TIP3   OH242064   3.463   3.303   2.730 -0.0566 -0.1048 -0.2080
 6858TIP3    H142065   3.548   3.278   2.693 -0.1991 -0.7504 -0.0982
 6858TIP3    H242066   3.440   3.231   2.788 -0.6440  0.1108 -0.1756
 6859TIP3   OH242067   5.345   2.857   3.207 -0.1457 -0.1250 -0.1758
 6859TIP3    H142068   5.379   2.830   3.292 -0.2929  2.2720  0.6646
 6859TIP3    H242069   5.261   2.813   3.200 -0.5887  0.4528  1.3590
 6860TIP3   OH242070   3.327   0.922  12.876 -0.1784  0.0296  0.3224
 6860TIP3    H142071   3.348   1.008  12.913 -0.7630  0.4414 -0.2786
 6860TIP3    H242072   3.261   0.886  12.935 -0.1886  0.1476  0.3831
 6861TIP3   OH242073   0.321   5.413   3.758 -0.0335  0.3302  0.2954
 6861TIP3    H142074   0.294   5.325   3.781 -0.8630 -0.3020 -3.0017
 6861TIP3    H242075   0.417   5.408   3.753 -0.1002 -0.4797 -0.2556
 6862TIP3   OH242076   3.235   6.425  15.337 -0.9004 -0.1747 -1.0189
 6862TIP3    H142077   3.308   6.486  15.330 -1.9822  0.9790 -2.3297
 6862TIP3    H242078   3.272   6.349  15.382 -0.1482  2.3983  2.9055
 6863TIP3   OH242079   6.019   4.199   1.869  0.2453  0.6222 -0.4564
 6863TIP3    H142080   6.022   4.117   1.820  3.9033  2.0759 -2.8822
 6863TIP3    H242081   6.063   4.179   1.952  1.7364  0.2569 -1.3192
 6864TIP3   OH242082   2.755   4.405   2.687  1.0565  0.2913  0.4450
 6864TIP3    H142083   2.691   4.454   2.739  0.0558  0.0732 -0.5483
 6864TIP3    H242084   2.833   4.460   2.687  0.7714  0.7047  1.4402
 6865TIP3   OH242085   4.797   3.320  15.106 -0.0658  1.1797 -0.1525
 6865TIP3    H142086   4.772   3.241  15.153  0.4625  1.0046 -0.1574
 6865TIP3    H242087   4.892   3.315  15.100  0.0770  2.3812  0.8380
 6866TIP3   OH242088   2.054   6.353  14.445 -0.1074  0.2837 -0.0507
 6866TIP3    H142089   2.022   6.430  14.491  1.7921  1.6494 -0.9344
 6866TIP3    H242090   1.978   6.320  14.398 -1.4551  0.3537  2.0112
 6867TIP3   OH242091   5.145   0.733  16.996 -0.0809 -0.5068 -0.4321
 6867TIP3    H142092   5.090   0.811  16.982  1.0381  0.0467 -1.9473
 6867TIP3    H242093   5.212   0.761  17.057 -1.4619 -1.1848  1.4206
 6868TIP3   OH242094   2.033   1.126   4.675  0.2298 -0.1032  0.1937
 6868TIP3    H142095   2.112   1.178   4.687  0.3092 -0.0775 -0.4193
 6868TIP3    H242096   1.993   1.161   4.596 -0.8249  0.4273  0.9598
 6869TIP3   OH242097   4.240   5.251   1.563 -0.2217 -0.4859  1.0090
 6869TIP3    H142098   4.255   5.182   1.626  2.1145  0.4365  1.4938
 6869TIP3    H242099   4.282   5.220   1.482 -0.3722 -0.2365  0.8332
 6870TIP3   OH242100   1.362   3.055  13.731 -0.4984 -0.0318  0.6944
 6870TIP3    H142101   1.385   2.965  13.709 -1.7819 -0.3513  0.6489
 6870TIP3    H242102   1.324   3.091  13.651  0.2150  0.6240  0.6422
 6871TIP3   OH242103   1.837   4.140  13.227  0.4301  0.5626 -0.2271
 6871TIP3    H142104   1.871   4.058  13.263 -0.2356  0.3294 -0.1330
 6871TIP3    H242105   1.772   4.169  13.290 -1.2668 -0.2165 -1.5628
 6872TIP3   OH242106   0.090   0.753   0.161  0.0555 -0.5285 -0.2693
 6872TIP3    H142107   0.070   0.755   0.068  0.8885 -1.3814 -0.4649
 6872TIP3    H242108   0.005   0.767   0.204 -0.3738 -0.4564 -1.1436
 6873TIP3   OH242109   4.538   4.257   3.285 -0.2154  0.1229 -0.1607
 6873TIP3    H142110   4.564   4.344   3.254 -1.6311  0.8880  0.7319
 6873TIP3    H242111   4.499   4.215   3.208 -2.4687  1.5035  0.1813
 6874TIP3   OH242112   0.251   5.102   3.454  0.0782 -0.3046  0.7221
 6874TIP3    H142113   0.177   5.163   3.455  0.4748  0.1613  1.0200
 6874TIP3    H242114   0.250   5.066   3.365 -0.8649 -0.7318  0.9005
 6875TIP3   OH242115   0.948   4.483   0.390 -0.1319  0.2479 -0.3935
 6875TIP3    H142116   0.899   4.541   0.449 -1.7315 -1.2487 -0.2121
 6875TIP3    H242117   1.011   4.438   0.447  1.6183  2.3003 -0.6563
 6876TIP3   OH242118   4.488   0.818  14.328  0.0635 -0.1680  0.1544
 6876TIP3    H142119   4.410   0.808  14.383  0.2016 -0.8459  0.2312
 6876TIP3    H242120   4.552   0.758  14.366  0.0873 -0.8077 -0.8887
 6877TIP3   OH242121   2.391   6.046   6.286 -0.4615 -0.4216  0.2392
 6877TIP3    H142122   2.369   6.138   6.269 -1.0007 -0.1829  2.0898
 6877TIP3    H242123   2.486   6.041   6.272 -0.4536  0.3876 -0.0218
 6878TIP3   OH242124   3.720   2.820  15.553  0.1834 -0.6914 -1.0594
 6878TIP3    H142125   3.626   2.806  15.542  0.1933 -2.1698  0.3901
 6878TIP3    H242126   3.737   2.795  15.644  1.9578 -0.3361 -1.2709
 6879TIP3   OH242127   2.022   5.530  12.559 -1.0196 -0.3530  0.1372
 6879TIP3    H142128   1.984   5.548  12.644 -2.0325  0.0371 -0.3847
 6879TIP3    H242129   1.947   5.502  12.505  0.0956 -3.9217  0.2842
 6880TIP3   OH242130   0.692   2.073  16.119 -0.0133  0.7403  0.4521
 6880TIP3    H142131   0.642   2.153  16.139  0.6247  1.4266 -0.6406
 6880TIP3    H242132   0.650   2.038  16.040  0.1727  0.4004  0.5037
 6881TIP3   OH242133   5.429   5.489   2.027  0.7386  0.0340  0.7697
 6881TIP3    H142134   5.349   5.542   2.025  1.2197  0.7780  0.8463
 6881TIP3    H242135   5.400   5.400   2.009  0.0206  0.4650 -0.2406
 6882TIP3   OH242136   0.499   0.732  16.831  0.1868 -0.0674 -0.1277
 6882TIP3    H142137   0.593   0.728  16.850  0.1194  0.2885  0.2859
 6882TIP3    H242138   0.460   0.768  16.911 -0.3955 -1.0113  0.0104
 6883TIP3   OH242139   3.852   1.894  12.387  0.0973 -0.3116 -0.2262
 6883TIP3    H142140   3.825   1.804  12.408  0.5750 -0.5143 -0.4799
 6883TIP3    H242141   3.776   1.931  12.341 -0.3085 -0.4073  0.3595
 6884TIP3   OH242142   2.626   1.445   1.719  0.4062 -0.6205  0.0059
 6884TIP3    H142143   2.531   1.457   1.720  0.5690  1.3198 -3.2491
 6884TIP3    H242144   2.642   1.385   1.647  1.8631  1.4840 -1.4742
 6885TIP3   OH242145   2.475   4.872   0.616 -0.8555  0.2956 -0.0868
 6885TIP3    H142146   2.419   4.835   0.684 -1.5756 -0.0353 -0.8486
 6885TIP3    H242147   2.414   4.900   0.548 -0.2331  1.8350 -0.0286
 6886TIP3   OH242148   5.605   5.880   1.698 -0.0544  0.4738  0.1379
 6886TIP3    H142149   5.512   5.863   1.682  0.4494 -0.9502 -1.2890
 6886TIP3    H242150   5.605   5.930   1.780 -2.1016  0.8838 -0.0671
 6887TIP3   OH242151   1.646   4.947  15.521  0.5270 -0.4034  0.4910
 6887TIP3    H142152   1.644   4.930  15.615 -0.7579  0.9715  0.7307
 6887TIP3    H242153   1.612   5.036  15.512 -1.8767 -1.4457 -1.4814
 6888TIP3   OH242154   2.928   0.243  13.792 -0.0081 -0.2146  0.1187
 6888TIP3    H142155   2.960   0.261  13.881 -0.8262  2.5068 -0.1006
 6888TIP3    H242156   2.997   0.189  13.752  0.7379 -0.7915  2.1272
 6889TIP3   OH242157   6.360   2.473  13.132 -1.1429 -0.1834  0.0115
 6889TIP3    H142158   6.293   2.487  13.066 -0.7938  0.1119 -0.2835
 6889TIP3    H242159   6.443   2.478  13.084 -0.9631 -2.1611  0.0898
 6890TIP3   OH242160   4.399   4.813  16.940 -0.0239  0.0852  0.5245
 6890TIP3    H142161   4.406   4.851  17.028 -0.2897 -1.3513  1.1818
 6890TIP3    H242162   4.306   4.794  16.930 -0.5729  3.5341 -1.5094
 6891TIP3   OH242163   5.829   1.509   1.466 -0.3121  0.5702  0.1561
 6891TIP3    H142164   5.864   1.563   1.537 -0.2844 -0.5605  1.0135
 6891TIP3    H242165   5.905   1.464   1.430 -0.4523  0.4561  0.0033
 6892TIP3   OH242166   5.502   2.188   0.261  0.0997  0.7840 -0.7957
 6892TIP3    H142167   5.570   2.169   0.196  0.2530 -2.0179  0.1016
 6892TIP3    H242168   5.428   2.133   0.235  0.0287 -0.0821  1.1407
 6893TIP3   OH242169   2.463   5.711  11.611 -0.4832  0.2199  0.1776
 6893TIP3    H142170   2.524   5.765  11.661  0.8413 -0.2319 -0.9455
 6893TIP3    H242171   2.486   5.621  11.634  0.1450  0.0055 -1.2403
 6894TIP3   OH242172   6.701   0.060   0.795 -0.2929  0.1549 -0.5836
 6894TIP3    H142173   6.781   0.054   0.848 -1.1899  0.4261  0.8215
 6894TIP3    H242174   6.733   0.060   0.705  1.2392 -0.7973 -0.0732
 6895TIP3   OH242175   4.793   3.720  16.905 -0.5979  0.2826  0.1206
 6895TIP3    H142176   4.772   3.737  16.996 -2.3934  1.1418 -0.4413
 6895TIP3    H242177   4.850   3.793  16.879 -0.4947  0.3048  0.4077
 6896TIP3   OH242178   3.843   6.439   2.706  0.6079 -0.2196 -0.1321
 6896TIP3    H142179   3.868   6.368   2.766  1.7338  0.0925 -0.2169
 6896TIP3    H242180   3.866   6.406   2.620  0.1106 -0.1822 -0.2811
 6897TIP3   OH242181   1.813   2.058   0.634 -0.0759 -0.7380 -0.1118
 6897TIP3    H142182   1.722   2.075   0.608  0.5728  1.3355 -1.1095
 6897TIP3    H242183   1.863   2.130   0.597  1.7223 -0.7807  2.1095
 6898TIP3   OH242184   1.099   4.011  11.903  0.8258 -1.2667  0.1913
 6898TIP3    H142185   1.048   4.079  11.945  0.4711  0.4460 -2.8285
 6898TIP3    H242186   1.034   3.955  11.860  1.2941  0.1587 -2.5435
 6899TIP3   OH242187   1.110   4.066  10.778  0.2910  0.4233 -0.0429
 6899TIP3    H142188   1.044   3.998  10.769  2.1439 -1.4100 -0.1491
 6899TIP3    H242189   1.139   4.083  10.688  0.0839  1.1168  0.0186
 6900TIP3   OH242190   6.667   3.656  12.229  0.0484  0.3793 -0.1777
 6900TIP3    H142191   6.657   3.751  12.228  2.6858  0.7058 -0.7895
 6900TIP3    H242192   6.676   3.632  12.137 -1.7838 -0.6443 -0.1132
 6901TIP3   OH242193   4.519   2.576   2.400  0.5593 -0.0760  0.0875
 6901TIP3    H142194   4.590   2.531   2.446 -0.0541  0.7559  1.8948
 6901TIP3    H242195   4.563   2.642   2.347  1.1782  0.1390  0.8561
 6902TIP3   OH242196   2.579   2.524   2.697  0.6484  0.1524  0.0821
 6902TIP3    H142197   2.559   2.521   2.790  0.4963 -0.0976  0.0432
 6902TIP3    H242198   2.666   2.486   2.690  0.8266  0.5498  0.1695
 6903TIP3   OH242199   2.444   6.122   4.712 -0.3965  0.6477 -0.3065
 6903TIP3    H142200   2.409   6.211   4.704  0.3835  1.4000  3.5081
 6903TIP3    H242201   2.367   6.066   4.713 -1.0059  1.4612 -0.9829
 6904TIP3   OH242202   2.676   3.251  12.845  0.2612 -0.1060  0.6398
 6904TIP3    H142203   2.712   3.237  12.933  0.0508 -0.4636  0.6699
 6904TIP3    H242204   2.737   3.312  12.804 -0.0168  0.6109  1.2721
 6905TIP3   OH242205   2.786   1.001   5.124  0.2624  0.4836  0.2099
 6905TIP3    H142206   2.857   1.061   5.101  2.2879 -1.6247  0.7492
 6905TIP3    H242207   2.821   0.914   5.102 -3.0299 -0.4443 -1.6487
 6906TIP3   OH242208   1.329   4.261  14.286  0.7258 -0.1212  0.3264
 6906TIP3    H142209   1.314   4.279  14.193 -1.6191 -0.5357  0.5883
 6906TIP3    H242210   1.255   4.303  14.330  2.3524  0.8979  2.0979
 6907TIP3   OH242211   5.626   5.508  15.508 -0.0838  0.6494  0.0473
 6907TIP3    H142212   5.713   5.469  15.520 -0.0962  1.0899  1.6577
 6907TIP3    H242213   5.606   5.548  15.593 -2.0197  0.2219 -0.1936
 6908TIP3   OH242214   0.200   4.638   0.069  0.3631 -0.4038  0.1744
 6908TIP3    H142215   0.106   4.653   0.056  0.2749 -0.3715  0.8341
 6908TIP3    H242216   0.211   4.544   0.060  0.6973 -0.1575 -2.5807
 6909TIP3   OH242217   1.870   0.539  16.431 -0.3994 -0.0696  0.0219
 6909TIP3    H142218   1.852   0.450  16.464  0.1234 -0.4537 -0.7098
 6909TIP3    H242219   1.792   0.589  16.454  0.6793  0.1544  3.4908
 6910TIP3   OH242220   6.703   2.682   6.285 -0.1058 -0.4555 -0.0135
 6910TIP3    H142221   6.762   2.756   6.298  2.9117 -2.6192 -0.7083
 6910TIP3    H242222   6.675   2.690   6.194  0.8029 -0.5269 -0.3124
 6911TIP3   OH242223   0.105   2.682  13.502 -0.0104  0.0198  0.0982
 6911TIP3    H142224   0.108   2.593  13.466  3.0429  0.4753 -0.9645
 6911TIP3    H242225   0.110   2.738  13.425  1.7541  1.0619  0.9447
 6912TIP3   OH242226   2.250   6.812  16.936 -0.0046  0.5903  0.0871
 6912TIP3    H142227   2.318   6.879  16.942 -2.3440  2.9424  1.3473
 6912TIP3    H242228   2.254   6.781  16.846  2.3911  1.0335  0.0162
 6913TIP3   OH242229   1.028   2.554  11.691  0.3116 -0.0725 -0.4803
 6913TIP3    H142230   0.970   2.480  11.678 -0.5652  0.5841 -0.3305
 6913TIP3    H242231   1.036   2.562  11.786  2.8277 -1.8396 -0.4936
 6914TIP3   OH242232   0.646   3.869  12.036 -0.2866  0.1852  0.4475
 6914TIP3    H142233   0.632   3.774  12.043  0.4252  0.0771  0.4458
 6914TIP3    H242234   0.642   3.886  11.942  2.7963 -0.3632  0.1690
 6915TIP3   OH242235   1.672   0.542   1.700  0.4419 -0.8309  0.5915
 6915TIP3    H142236   1.597   0.553   1.758  0.5551 -0.1928  0.6278
 6915TIP3    H242237   1.642   0.574   1.615 -0.0092 -2.6129  0.0638
 6916TIP3   OH242238   0.075   6.308   4.111 -0.2236  0.1155 -0.3398
 6916TIP3    H142239   0.158   6.259   4.118 -0.9769 -1.0893  0.4929
 6916TIP3    H242240   0.101   6.396   4.087  1.4690  0.2029  1.6191
 6917TIP3   OH242241   0.556   5.336  14.942 -0.0577  0.1115 -0.1874
 6917TIP3    H142242   0.540   5.399  15.012 -0.7242 -1.1059  0.7794
 6917TIP3    H242243   0.579   5.255  14.987 -0.4465 -0.6786 -1.3669
 6918TIP3   OH242244   2.773   5.781   4.846  0.4046 -0.2349  0.9864
 6918TIP3    H142245   2.691   5.742   4.817 -0.3019  1.2272  1.0104
 6918TIP3    H242246   2.840   5.741   4.790 -0.5533  0.1032 -0.4105
 6919TIP3   OH242247   3.851   3.177   5.833  0.2603  0.0954  0.3446
 6919TIP3    H142248   3.853   3.141   5.922 -0.9106  0.6006  0.5837
 6919TIP3    H242249   3.795   3.255   5.840  0.8404  0.6080 -0.6639
 6920TIP3   OH242250   4.289   6.723  16.204 -0.5264  0.3448 -0.2516
 6920TIP3    H142251   4.372   6.765  16.227  0.6235 -1.9122 -0.1347
 6920TIP3    H242252   4.235   6.794  16.170  1.2469  1.9639  0.2234
 6921TIP3   OH242253   5.699   1.800  15.852  0.3590 -0.6078  0.0107
 6921TIP3    H142254   5.749   1.863  15.800  0.3254 -1.2371 -0.7906
 6921TIP3    H242255   5.610   1.806  15.818  0.3390 -1.0305 -0.0188
 6922TIP3   OH242256   6.599   0.983  17.272  0.4375  0.2694 -0.2834
 6922TIP3    H142257   6.631   0.895  17.255  1.8555  0.0819  3.0220
 6922TIP3    H242258   6.662   1.041  17.230 -0.8780 -0.2429 -3.0668
 6923TIP3   OH242259   0.151   0.226   4.919 -0.3846  0.1428 -0.7559
 6923TIP3    H142260   0.217   0.180   4.971  1.3493  0.2799 -2.7491
 6923TIP3    H242261   0.141   0.311   4.962  1.0068  0.2461 -0.6223
 6924TIP3   OH242262   6.515   0.132   2.667 -0.2104  0.5263 -0.2419
 6924TIP3    H142263   6.434   0.150   2.620 -0.1596 -1.8212 -1.2968
 6924TIP3    H242264   6.579   0.191   2.627 -0.7361  0.2926 -1.4498
 6925TIP3   OH242265   5.860   3.885  14.936  0.3243 -0.2548  0.4291
 6925TIP3    H142266   5.791   3.913  14.875  1.3578 -0.6769 -0.9396
 6925TIP3    H242267   5.853   3.789  14.938  1.8151 -0.4052 -0.8485
 6926TIP3   OH242268   3.172   6.513   2.982 -0.0634 -0.1412 -0.8168
 6926TIP3    H142269   3.156   6.421   2.960 -1.6157 -0.0263 -0.2467
 6926TIP3    H242270   3.177   6.558   2.898 -0.2952 -0.5991 -1.0761
 6927TIP3   OH242271   6.608   2.115   1.627 -0.0398 -0.4751  0.2389
 6927TIP3    H142272   6.537   2.179   1.616  1.2982  0.9019 -0.6366
 6927TIP3    H242273   6.657   2.121   1.545  0.0853 -2.6974  0.1209
 6928TIP3   OH242274   4.193   4.205  15.361  0.6845  0.1832 -1.0503
 6928TIP3    H142275   4.232   4.120  15.338  0.6418  0.0893 -0.7823
 6928TIP3    H242276   4.226   4.223  15.449  0.7805  0.4979 -1.1492
 6929TIP3   OH242277   2.398   2.086   0.680 -0.3177  0.7106  0.1347
 6929TIP3    H142278   2.431   2.066   0.593 -1.2129  2.1235 -0.5355
 6929TIP3    H242279   2.397   2.001   0.725  0.7765  0.0855 -0.9978
 6930TIP3   OH242280   5.685   2.557  11.183 -0.0118 -0.3016  0.2717
 6930TIP3    H142281   5.608   2.614  11.174 -0.0658 -0.6107 -1.5363
 6930TIP3    H242282   5.683   2.503  11.103  1.3380 -1.2273  0.8585
 6931TIP3   OH242283   6.271   3.578  14.145  0.0563  0.1285  0.2923
 6931TIP3    H142284   6.343   3.604  14.203 -1.1982  0.5669  1.6679
 6931TIP3    H242285   6.214   3.524  14.200 -1.5674  1.1962 -0.3255
 6932TIP3   OH242286   0.402   1.338   2.542  0.2610  0.3227 -0.5422
 6932TIP3    H142287   0.405   1.256   2.492 -0.3407  0.6045 -1.0595
 6932TIP3    H242288   0.354   1.316   2.621 -0.7747  0.4082 -1.1414
 6933TIP3   OH242289   3.607   1.107  11.247 -0.5005  0.1180 -0.2018
 6933TIP3    H142290   3.696   1.076  11.262 -0.8200 -0.4108  0.6695
 6933TIP3    H242291   3.607   1.140  11.157  0.3562 -0.6635 -0.4958
 6934TIP3   OH242292   2.402   5.385   0.925  0.1397  0.6056  0.4384
 6934TIP3    H142293   2.346   5.453   0.889  2.3903  1.4905 -1.5036
 6934TIP3    H242294   2.409   5.320   0.855  0.7442  0.0374  1.0230
 6935TIP3   OH242295   5.083   2.353  15.056  0.3723 -0.0504 -0.1501
 6935TIP3    H142296   5.043   2.279  15.102  1.6367 -1.4350 -1.2364
 6935TIP3    H242297   5.105   2.318  14.970  0.5149  1.7543 -0.8692
 6936TIP3   OH242298   6.697   4.414  15.327 -0.0657 -0.2761  0.5645
 6936TIP3    H142299   6.667   4.504  15.344 -0.5495 -0.1771 -0.7823
 6936TIP3    H242300   6.710   4.411  15.232 -0.4256 -1.7421  0.5548
 6937TIP3   OH242301   1.491   6.299   1.523  0.2704  0.4483  0.1208
 6937TIP3    H142302   1.459   6.302   1.432  0.0464  1.0949  0.2165
 6937TIP3    H242303   1.541   6.380   1.533  2.8157 -1.0124 -0.3396
 6938TIP3   OH242304   4.951   3.504   3.053  0.2547 -0.0194  0.4902
 6938TIP3    H142305   4.894   3.454   2.994  0.0230 -0.8917  1.4429
 6938TIP3    H242306   4.939   3.595   3.025  0.3313 -0.4331 -0.9627
 6939TIP3   OH242307   5.485   6.666  13.101  0.3876 -0.3824  0.5331
 6939TIP3    H142308   5.483   6.610  13.178  0.4215 -2.3946 -0.8946
 6939TIP3    H242309   5.417   6.630  13.044  0.0306  1.3786 -0.1747
 6940TIP3   OH242310   1.874   2.791   2.485 -0.1647  0.1984  0.2145
 6940TIP3    H142311   1.831   2.748   2.410 -1.0966  3.2298 -1.0811
 6940TIP3    H242312   1.967   2.788   2.463 -0.2724 -0.5048 -0.1995
 6941TIP3   OH242313   3.227   0.649   5.986 -0.0812 -0.1054 -0.1935
 6941TIP3    H142314   3.302   0.590   5.990 -0.0603 -0.0325  0.5751
 6941TIP3    H242315   3.156   0.600   6.028 -0.1667  0.2646  0.0924
 6942TIP3   OH242316   5.938   3.700   6.173  0.2920  0.2164 -0.1064
 6942TIP3    H142317   5.939   3.606   6.188  0.5029  0.3069  0.4334
 6942TIP3    H242318   5.998   3.736   6.238  2.1943  0.4737 -1.9344
 6943TIP3   OH242319   3.061   3.849  15.311  0.4372  0.8823  0.0040
 6943TIP3    H142320   3.054   3.815  15.222 -0.8927  0.1473  0.3705
 6943TIP3    H242321   3.041   3.942  15.303 -1.7071  0.4324 -0.2008
 6944TIP3   OH242322   0.663   2.527  11.877 -0.0614  0.0661  0.0696
 6944TIP3    H142323   0.748   2.551  11.915  0.0510 -1.1062  0.5683
 6944TIP3    H242324   0.665   2.432  11.873 -2.5308 -0.1695  2.8127
 6945TIP3   OH242325   0.083   0.917  16.048 -0.5001  0.2886 -0.1071
 6945TIP3    H142326   0.110   0.919  16.139  0.8619  3.2299 -0.5044
 6945TIP3    H242327  -0.007   0.947  16.048 -0.6215 -0.0716  0.2844
 6946TIP3   OH242328   4.759   4.697   4.937 -1.0699 -0.4658 -0.3394
 6946TIP3    H142329   4.772   4.678   5.030  0.3535  0.4342 -0.3444
 6946TIP3    H242330   4.818   4.637   4.892  0.6059  1.2525 -0.5083
 6947TIP3   OH242331   5.569   5.835   1.156  0.4424  0.1510 -0.1878
 6947TIP3    H142332   5.605   5.815   1.243 -0.5363  0.3851  0.2778
 6947TIP3    H242333   5.511   5.761   1.138 -1.3704  1.3816  0.5041
 6948TIP3   OH242334   1.680   1.135   4.873 -0.1635  0.3267 -0.1312
 6948TIP3    H142335   1.602   1.116   4.926 -0.7824  0.8452 -0.8284
 6948TIP3    H242336   1.697   1.228   4.889  0.2796  0.2241 -0.0186
 6949TIP3   OH242337   5.355   5.444   4.203 -0.2089 -0.5065  0.4185
 6949TIP3    H142338   5.293   5.484   4.263 -0.4311 -1.2305  0.6807
 6949TIP3    H242339   5.441   5.474   4.232 -0.4464  0.7635 -0.1447
 6950TIP3   OH242340   1.746   3.470  15.623  0.4982  0.4754 -0.8001
 6950TIP3    H142341   1.663   3.517  15.629 -0.8476 -1.9045 -0.3762
 6950TIP3    H242342   1.762   3.437  15.712  1.0345 -0.5144 -1.2564
 6951TIP3   OH242343   0.476   2.983   4.242 -0.2975  0.5768  0.1310
 6951TIP3    H142344   0.527   2.988   4.323 -0.6810 -1.8119  0.5396
 6951TIP3    H242345   0.519   3.044   4.182  1.1556  0.8899  1.4888
 6952TIP3   OH242346   6.067   3.192   1.040 -0.3449  0.8198  0.0999
 6952TIP3    H142347   6.080   3.284   1.015  0.4325  0.7456  0.2216
 6952TIP3    H242348   5.995   3.195   1.104 -0.0088  1.3989  0.4597
 6953TIP3   OH242349   2.360   2.777  13.303  0.6483 -0.0327  0.4289
 6953TIP3    H142350   2.414   2.702  13.330 -0.4025 -0.1943  2.1738
 6953TIP3    H242351   2.373   2.842  13.372 -1.6455 -0.2337  1.1111
 6954TIP3   OH242352   3.735   4.932  14.012 -0.0405  0.0088  0.5234
 6954TIP3    H142353   3.780   4.899  13.934 -2.8202  0.2892 -1.2676
 6954TIP3    H242354   3.729   4.855  14.070  0.0040 -0.7869 -0.5107
 6955TIP3   OH242355   0.226   5.216  14.056 -0.6602  0.4983  0.2606
 6955TIP3    H142356   0.190   5.271  13.987  0.6527  2.4752  1.0698
 6955TIP3    H242357   0.188   5.251  14.137 -0.4427 -0.3158  0.7210
 6956TIP3   OH242358   1.755   2.634  11.625 -0.1839 -0.3848 -0.0311
 6956TIP3    H142359   1.698   2.711  11.617 -0.9749 -0.9232  0.4152
 6956TIP3    H242360   1.825   2.663  11.684 -0.6156 -0.0787  0.3352
 6957TIP3   OH242361   0.529   1.440   5.404 -0.0362  0.8581  0.0163
 6957TIP3    H142362   0.593   1.511   5.417 -0.0292  1.1889 -1.7588
 6957TIP3    H242363   0.529   1.393   5.488  1.5852  1.6254  0.4724
 6958TIP3   OH242364   5.842   5.699  11.627 -0.3496 -0.8195  0.1362
 6958TIP3    H142365   5.781   5.737  11.564 -0.4206 -1.6842 -0.3175
 6958TIP3    H242366   5.847   5.606  11.604  1.4114 -0.6943 -0.0444
 6959TIP3   OH242367   5.754   0.664   4.473  0.2424 -0.5432  0.3234
 6959TIP3    H142368   5.703   0.723   4.528  0.4641 -0.1048  0.0605
 6959TIP3    H242369   5.771   0.588   4.528 -1.4676 -1.0869  0.1185
 6960TIP3   OH242370   2.825   2.464   3.140  0.3457  0.2717 -0.5114
 6960TIP3    H142371   2.754   2.526   3.158  1.2671  1.2918 -0.3685
 6960TIP3    H242372   2.905   2.514   3.154  1.1161 -1.2563  0.6253
 6961TIP3   OH242373   5.245   1.594   3.041 -0.3097 -0.7860 -0.0376
 6961TIP3    H142374   5.212   1.589   3.131  0.8692 -1.3631  0.3726
 6961TIP3    H242375   5.203   1.672   3.005 -1.8164 -1.3007  0.5884
 6962TIP3   OH242376   1.081   3.714   1.079  0.4648  0.1046 -0.2933
 6962TIP3    H142377   1.030   3.708   0.998  0.1836  0.7798 -0.1668
 6962TIP3    H242378   1.016   3.702   1.148  0.2458  2.2609 -0.0885
 6963TIP3   OH242379   0.102   2.752   5.549 -0.2877  0.0089 -0.0110
 6963TIP3    H142380   0.188   2.794   5.535 -1.1154  0.9960 -2.4575
 6963TIP3    H242381   0.039   2.820   5.526 -1.7273 -1.0648  0.7133
 6964TIP3   OH242382   2.140   6.744   2.950  0.2471  0.2906 -0.3949
 6964TIP3    H142383   2.222   6.698   2.969 -1.1411 -1.6301  1.2594
 6964TIP3    H242384   2.081   6.675   2.919 -0.6304  1.7203 -1.9982
 6965TIP3   OH242385   2.593   5.528  16.722  0.1710 -0.6656  0.5423
 6965TIP3    H142386   2.622   5.518  16.631  0.4673  1.5685  0.3728
 6965TIP3    H242387   2.670   5.561  16.768 -0.7245  0.6697  1.0901
 6966TIP3   OH242388   6.736   4.772   3.450  0.5801 -0.2437 -0.0054
 6966TIP3    H142389   6.774   4.729   3.527 -2.0543 -0.8752  1.0106
 6966TIP3    H242390   6.641   4.760   3.461  0.1426  0.1466 -3.0821
 6967TIP3   OH242391   5.301   4.319   3.715 -0.0167 -0.3947 -0.2642
 6967TIP3    H142392   5.287   4.404   3.758  0.6621  0.5122 -1.7825
 6967TIP3    H242393   5.214   4.291   3.688  0.0384  1.1755 -2.2056
 6968TIP3   OH242394   4.806   0.965  13.719  0.0754  0.0337 -0.3120
 6968TIP3    H142395   4.901   0.974  13.734  0.4414 -5.5865  2.1093
 6968TIP3    H242396   4.766   1.008  13.795  0.9707 -2.1396  1.4622
 6969TIP3   OH242397   6.421   5.353  13.618 -0.3429 -0.3011 -0.0486
 6969TIP3    H142398   6.475   5.281  13.651  0.6065  0.2597 -0.3609
 6969TIP3    H242399   6.422   5.418  13.688  0.7453  0.4049 -0.6993
 6970TIP3   OH242400   6.533   0.584   6.149  0.0357  0.0581 -0.1389
 6970TIP3    H142401   6.546   0.516   6.216  2.3441  0.2313 -0.3625
 6970TIP3    H242402   6.440   0.580   6.128  0.1121 -3.0515 -0.1366
 6971TIP3   OH242403   3.341   3.912  11.089  0.3156  0.4070  0.6148
 6971TIP3    H142404   3.362   3.832  11.137 -0.6736  0.3765  0.9969
 6971TIP3    H242405   3.281   3.960  11.146  0.0210  0.8977 -0.0993
 6972TIP3   OH242406   5.456   1.873   5.998  0.2259  0.3046  0.3002
 6972TIP3    H142407   5.418   1.958   6.020  1.3087  0.8233  0.2169
 6972TIP3    H242408   5.537   1.869   6.048 -0.9306 -1.6918  2.1120
 6973TIP3   OH242409   2.440   0.780   5.908 -0.4447 -0.1811 -0.2187
 6973TIP3    H142410   2.393   0.774   5.992 -0.7755 -0.6496 -0.4373
 6973TIP3    H242411   2.470   0.870   5.904  0.6627 -0.4830  1.0010
 6974TIP3   OH242412   0.648   2.120   5.974 -0.2453 -0.1727 -0.2755
 6974TIP3    H142413   0.717   2.102   6.038 -0.6957  0.0732  0.2940
 6974TIP3    H242414   0.657   2.214   5.955 -1.9980  0.4555  1.7356
 6975TIP3   OH242415   2.222   2.473   1.003  0.4470 -0.3848  0.0741
 6975TIP3    H142416   2.237   2.415   0.928 -0.3961 -2.2404  1.3079
 6975TIP3    H242417   2.187   2.553   0.964 -1.3420 -1.8455 -1.4389
 6976TIP3   OH242418   1.363   2.921   2.956 -0.2026 -0.2281 -0.7288
 6976TIP3    H142419   1.292   2.975   2.991  0.8135  0.8838 -0.3507
 6976TIP3    H242420   1.323   2.835   2.942 -1.1155 -0.2011  1.4570
 6977TIP3   OH242421   2.630   6.566   0.322  0.4459  0.6344 -0.5885
 6977TIP3    H142422   2.602   6.653   0.350  2.6706  0.6671  1.7425
 6977TIP3    H242423   2.725   6.569   0.326  0.5913 -1.5521 -1.5979
 6978TIP3   OH242424   5.503   2.412  13.101 -0.8985  0.0130  0.3699
 6978TIP3    H142425   5.575   2.426  13.162 -0.9581  0.3524  0.3612
 6978TIP3    H242426   5.528   2.461  13.023  0.1758 -2.0913 -0.6680
 6979TIP3   OH242427   4.317   6.181   0.423 -1.0066  0.0291 -0.4819
 6979TIP3    H142428   4.361   6.198   0.339 -2.2001  1.3428 -0.8707
 6979TIP3    H242429   4.291   6.089   0.418  0.5534 -0.4034 -0.7809
 6980TIP3   OH242430   1.907   4.931  14.225 -0.3668 -0.1730  0.4934
 6980TIP3    H142431   1.960   4.952  14.303 -0.0231 -2.3119  0.8750
 6980TIP3    H242432   1.832   4.882  14.259 -0.6113 -0.4646 -0.4457
 6981TIP3   OH242433   2.288   3.130   3.913 -0.1356 -0.6869  0.1005
 6981TIP3    H142434   2.297   3.179   3.995 -0.2380  0.8772 -0.7916
 6981TIP3    H242435   2.331   3.186   3.848  0.0756 -1.9847 -0.8885
 6982TIP3   OH242436   0.128   5.812  15.145 -0.7712  0.1450 -0.8492
 6982TIP3    H142437   0.035   5.824  15.129 -0.6435 -0.6371 -2.2693
 6982TIP3    H242438   0.171   5.872  15.084 -0.3475  0.5237 -0.1815
 6983TIP3   OH242439   3.790   1.685   5.933  0.1152  0.5013  0.2735
 6983TIP3    H142440   3.713   1.741   5.932 -0.0339  0.3326  1.6268
 6983TIP3    H242441   3.755   1.596   5.940  0.3928  0.2986 -0.7060
 6984TIP3   OH242442   5.946   0.556   5.377  0.0545 -0.0416 -0.4233
 6984TIP3    H142443   6.014   0.624   5.372 -0.5373  0.4802 -1.6503
 6984TIP3    H242444   5.868   0.599   5.343 -0.5219 -1.1112 -0.4557
 6985TIP3   OH242445   4.696   3.580  14.567  0.6998 -0.0913  0.5374
 6985TIP3    H142446   4.757   3.639  14.524  1.8159 -0.8465  1.0674
 6985TIP3    H242447   4.690   3.612  14.657 -0.6200  0.6933  0.1934
 6986TIP3   OH242448   3.755   5.618  16.220 -0.0907 -0.5654 -0.2981
 6986TIP3    H142449   3.796   5.532  16.214  2.5871  0.7020 -0.8529
 6986TIP3    H242450   3.764   5.655  16.133 -0.9165  0.4055  0.0207
 6987TIP3   OH242451   2.236   0.762  14.574  0.4036  0.1440  0.5408
 6987TIP3    H142452   2.191   0.711  14.507  0.0781 -0.5680  1.2907
 6987TIP3    H242453   2.179   0.757  14.650  0.2108  1.9232  0.5141
 6988TIP3   OH242454   1.892   4.877  11.813 -0.0313 -0.2169  0.6166
 6988TIP3    H142455   1.927   4.966  11.814 -0.8388  0.1164 -0.3489
 6988TIP3    H242456   1.912   4.842  11.899  2.9020 -0.1141  0.0231
 6989TIP3   OH242457   1.796   1.952  16.315 -0.4629  0.3625  0.9001
 6989TIP3    H142458   1.790   1.873  16.263 -0.0598  1.2201 -0.4703
 6989TIP3    H242459   1.711   1.959  16.359 -0.6817 -0.5439  0.6231
 6990TIP3   OH242460   4.306   0.070  12.833 -0.5821  0.0779  0.1678
 6990TIP3    H142461   4.314  -0.013  12.788 -1.3046  0.7007 -1.1282
 6990TIP3    H242462   4.233   0.058  12.894 -1.0761 -0.0402 -0.4531
 6991TIP3   OH242463   3.103   5.923  12.685 -0.5672  0.0412 -0.4714
 6991TIP3    H142464   3.177   5.969  12.647 -1.3090 -0.5709 -2.6914
 6991TIP3    H242465   3.059   5.990  12.738  0.9165  0.6925 -0.0399
 6992TIP3   OH242466   0.165   5.596   6.210 -0.4323  0.3909 -0.8351
 6992TIP3    H142467   0.225   5.599   6.285  0.6660 -0.6746 -1.6655
 6992TIP3    H242468   0.078   5.604   6.249  0.1580  0.3373  0.5200
 6993TIP3   OH242469   5.482   5.920   1.437  0.3381  0.1724 -0.0597
 6993TIP3    H142470   5.419   5.856   1.471 -0.1300  0.5697 -0.1691
 6993TIP3    H242471   5.567   5.877   1.446 -0.2015 -1.4817 -2.4473
 6994TIP3   OH242472   0.995   2.521   6.809 -0.3699 -0.1883  0.0081
 6994TIP3    H142473   1.051   2.495   6.882  0.7438  1.7685 -0.1096
 6994TIP3    H242474   1.056   2.544   6.739 -1.3191  1.2110 -0.3828
 6995TIP3   OH242475   3.046   0.441   5.447  0.1733 -0.2137 -0.0990
 6995TIP3    H142476   2.957   0.457   5.480  0.0234  1.6882 -1.3347
 6995TIP3    H242477   3.068   0.353   5.478 -2.2479 -0.8148  0.0138
 6996TIP3   OH242478   2.369   2.294  11.138 -0.2645  0.7753  0.1235
 6996TIP3    H142479   2.364   2.242  11.057  2.2655 -0.5510  0.7780
 6996TIP3    H242480   2.305   2.252  11.196  1.2526 -1.2192  0.4061
 6997TIP3   OH242481   1.824   5.166   1.785  0.6266  0.4933  0.3341
 6997TIP3    H142482   1.767   5.241   1.803 -1.9940 -1.3352 -0.0151
 6997TIP3    H242483   1.807   5.105   1.857  0.4277 -1.0233 -0.9708
 6998TIP3   OH242484   3.138   2.135  10.997 -0.1427 -0.0246 -0.8802
 6998TIP3    H142485   3.213   2.146  11.055 -1.8255  3.7240  0.7487
 6998TIP3    H242486   3.171   2.160  10.910  0.0499  3.7192  0.1819
 6999TIP3   OH242487   3.436   4.365  16.431  0.3293  0.4141  0.5393
 6999TIP3    H142488   3.345   4.382  16.404  0.1133  0.4991  1.3035
 6999TIP3    H242489   3.436   4.382  16.525  1.6578  2.5602  0.1920
 7000TIP3   OH242490   2.250   3.841   3.459  0.1869 -0.0011  0.2136
 7000TIP3    H142491   2.325   3.832   3.400 -1.0674  1.9564 -1.7489
 7000TIP3    H242492   2.228   3.934   3.455 -0.4815  0.0209  3.1415
 7001TIP3   OH242493   3.810   1.359  11.366 -0.5970 -0.1811 -0.2798
 7001TIP3    H142494   3.722   1.364  11.329 -1.2967 -0.4567  1.3307
 7001TIP3    H242495   3.804   1.404  11.450  1.6266  2.8333 -1.6263
 7002TIP3   OH242496   6.198   5.498   1.326 -0.1856 -0.2210 -0.8336
 7002TIP3    H142497   6.170   5.436   1.258 -1.3977 -0.5621 -0.0332
 7002TIP3    H242498   6.123   5.504   1.385  0.6307  0.5722  0.1260
 7003TIP3   OH242499   3.057   4.247   6.297 -0.0228  0.2127 -0.0627
 7003TIP3    H142500   2.987   4.243   6.362 -0.8288 -0.8111 -0.9746
 7003TIP3    H242501   3.012   4.243   6.213  0.9184  2.9113 -0.7317
 7004TIP3   OH242502   1.643   4.002  13.067  0.2078  0.0040 -0.0339
 7004TIP3    H142503   1.655   4.052  12.986 -0.0038  2.2420  1.2528
 7004TIP3    H242504   1.722   4.022  13.119  0.1061 -0.9988  0.5198
 7005TIP3   OH242505   5.470   3.577   3.879  0.4319  0.2051  0.3189
 7005TIP3    H142506   5.414   3.648   3.845 -2.4414 -1.9814  0.3336
 7005TIP3    H242507   5.502   3.610   3.962  0.3621  2.1126 -0.3815
 7006TIP3   OH242508   5.558   3.747  12.351 -0.6125  0.0122  0.4402
 7006TIP3    H142509   5.607   3.746  12.434 -0.9305 -1.3346  0.6284
 7006TIP3    H242510   5.469   3.721  12.376 -0.8630  0.2339 -0.2301
 7007TIP3   OH242511   6.656   5.769   1.528 -0.7094 -0.6619  0.2418
 7007TIP3    H142512   6.668   5.862   1.509 -0.3439 -0.6160  0.6553
 7007TIP3    H242513   6.564   5.752   1.511 -0.6467 -0.3556 -0.3918
 7008TIP3   OH242514   4.551   1.323  16.717 -0.0889 -0.2621 -0.4684
 7008TIP3    H142515   4.564   1.405  16.764  0.4569  1.0366 -2.7804
 7008TIP3    H242516   4.626   1.269  16.741 -0.8349 -0.3826  1.6407
 7009TIP3   OH242517   3.950   0.892   2.494 -0.1637  0.2954  0.4856
 7009TIP3    H142518   3.952   0.984   2.470 -3.1987 -0.3878 -2.7501
 7009TIP3    H242519   3.880   0.885   2.559 -1.2219  0.0143 -0.6654
 7010TIP3   OH242520   6.116   2.630  15.872 -0.8631 -0.3460 -0.8129
 7010TIP3    H142521   6.064   2.637  15.952 -0.6512  0.0571 -0.7109
 7010TIP3    H242522   6.203   2.663  15.897 -0.6156 -0.8126 -1.0401
 7011TIP3   OH242523   0.462   0.216  12.966 -0.9699 -0.4054  0.1258
 7011TIP3    H142524   0.544   0.219  12.917 -0.4249 -1.8814  0.9029
 7011TIP3    H242525   0.485   0.246  13.054 -1.3932 -0.1946  0.1637
 7012TIP3   OH242526   2.872   3.772   3.004  0.2001  0.2689 -0.6507
 7012TIP3    H142527   2.789   3.783   2.959  0.1655  1.2795 -0.3566
 7012TIP3    H242528   2.875   3.679   3.028 -1.8629  0.6813  1.3181
 7013TIP3   OH242529   0.751   3.337   2.480  0.0718 -0.1284  0.3740
 7013TIP3    H142530   0.845   3.351   2.486 -0.0595  0.7825  0.2359
 7013TIP3    H242531   0.714   3.391   2.550 -0.2865 -1.1894  1.0270
 7014TIP3   OH242532   6.299   3.075   4.856 -0.1911 -0.1642 -0.3297
 7014TIP3    H142533   6.316   3.167   4.833 -0.4083  0.0399  0.3067
 7014TIP3    H242534   6.386   3.034   4.855 -0.4324 -0.6822 -3.6671
 7015TIP3   OH242535   2.535   4.631   0.311  0.6342 -0.1143  0.2176
 7015TIP3    H142536   2.539   4.550   0.261  1.2304  0.5282 -0.7960
 7015TIP3    H242537   2.605   4.622   0.376  0.8390 -0.3325 -0.0295
 7016TIP3   OH242538   3.960   3.474   4.538  0.6473  0.2614  1.0046
 7016TIP3    H142539   4.032   3.487   4.599  0.2325  0.8979  1.3719
 7016TIP3    H242540   3.974   3.386   4.502  2.4584  0.9705 -0.0889
 7017TIP3   OH242541   2.820   2.549   4.307  0.1454 -0.3423 -0.3417
 7017TIP3    H142542   2.808   2.584   4.218 -0.3865  0.0257 -0.1254
 7017TIP3    H242543   2.741   2.498   4.323 -0.0145  0.0479  0.1330
 7018TIP3   OH242544   3.883   5.722  15.655 -0.3148  0.7863 -0.3513
 7018TIP3    H142545   3.964   5.728  15.706  0.6851  0.2304 -1.8670
 7018TIP3    H242546   3.888   5.638  15.610 -3.3980 -0.9297  2.2926
 7019TIP3   OH242547   2.410   1.815   4.118 -0.3209  0.2072 -0.2613
 7019TIP3    H142548   2.421   1.831   4.212 -0.9221  0.4585 -0.2330
 7019TIP3    H242549   2.315   1.812   4.105 -0.2568  1.2261 -1.0387
 7020TIP3   OH242550   5.414   3.851   4.841  0.0576 -0.5888  0.1653
 7020TIP3    H142551   5.503   3.865   4.874 -0.5360 -0.2672  1.6825
 7020TIP3    H242552   5.407   3.756   4.829  0.8168 -0.5526 -0.5984
 7021TIP3   OH242553   2.488   1.837  13.904  0.7312 -0.2175  0.4236
 7021TIP3    H142554   2.443   1.906  13.855 -0.7022 -0.3215  1.5761
 7021TIP3    H242555   2.474   1.860  13.996  1.6168 -1.1813  0.8037
 7022TIP3   OH242556   6.388   0.018  15.751 -0.1557 -0.1509 -0.0060
 7022TIP3    H142557   6.346   0.059  15.826  0.8705 -1.0484  1.0856
 7022TIP3    H242558   6.330  -0.054  15.727 -0.3561 -0.0198  0.0894
 7023TIP3   OH242559   5.014   2.626  11.130  0.5863 -0.2157 -0.4258
 7023TIP3    H142560   4.948   2.659  11.191  0.2361  0.5050 -1.1844
 7023TIP3    H242561   5.005   2.531  11.134 -1.9785 -0.0946 -2.1273
 7024TIP3   OH242562   1.051   6.791   1.677 -0.2619 -0.1241 -1.2558
 7024TIP3    H142563   1.000   6.725   1.630 -1.1516 -0.4922  0.1895
 7024TIP3    H242564   1.142   6.760   1.673 -0.4054 -0.3926 -2.3024
 7025TIP3   OH242565   0.155   6.553   4.020  0.2235 -0.2636  0.2242
 7025TIP3    H142566   0.232   6.580   4.071 -0.3121  2.5968 -0.3903
 7025TIP3    H242567   0.161   6.604   3.939 -1.5857 -1.0377 -0.4175
 7026TIP3   OH242568   1.199   3.288  16.176  0.7387 -0.5174 -0.1518
 7026TIP3    H142569   1.292   3.270  16.164  0.9561  0.9924 -0.8710
 7026TIP3    H242570   1.167   3.215  16.229  2.4044 -0.8470  0.4370
 7027TIP3   OH242571   4.545   3.452   0.557 -0.4973 -0.4073  0.3179
 7027TIP3    H142572   4.546   3.363   0.520 -2.1463  0.5492 -2.1386
 7027TIP3    H242573   4.625   3.493   0.524 -0.7615 -0.3433 -0.2623
 7028TIP3   OH242574   5.858   1.563   6.592  0.5934 -0.4624 -0.0616
 7028TIP3    H142575   5.947   1.595   6.605  0.4902 -0.0210 -0.4355
 7028TIP3    H242576   5.815   1.575   6.677  1.2626 -1.8833  0.4915
 7029TIP3   OH242577   1.294   1.306   2.743 -0.4106  0.5654 -0.5115
 7029TIP3    H142578   1.375   1.262   2.717  0.6243  1.9025  0.3956
 7029TIP3    H242579   1.286   1.288   2.837 -0.3423  1.7380 -0.2770
 7030TIP3   OH242580   5.347   4.153   2.445  0.6426  0.1849 -0.2322
 7030TIP3    H142581   5.274   4.103   2.481  1.1084  0.5847  1.3303
 7030TIP3    H242582   5.313   4.242   2.435 -0.1310 -0.3835 -2.8333
 7031TIP3   OH242583   0.992   0.158   1.874  0.7154  0.2423 -0.1866
 7031TIP3    H142584   1.002   0.103   1.796  0.9039  0.3789 -0.2580
 7031TIP3    H242585   0.958   0.241   1.840  3.6503  1.3622 -0.4929
 7032TIP3   OH242586   4.698   5.315  15.680 -0.1257  0.1585  0.0914
 7032TIP3    H142587   4.650   5.339  15.601  0.2881  0.3265 -0.1125
 7032TIP3    H242588   4.755   5.243  15.653 -1.2914 -1.0085  0.6786
 7033TIP3   OH242589   0.672   2.789   2.305 -0.2634  0.3551 -0.6768
 7033TIP3    H142590   0.702   2.845   2.232 -1.3147  2.4636  0.4471
 7033TIP3    H242591   0.751   2.744   2.335  0.7900  1.8719 -1.1025
 7034TIP3   OH242592   3.671   3.119  16.316  0.4756  0.0960 -0.1566
 7034TIP3    H142593   3.587   3.093  16.278  0.7076  0.8032 -1.1779
 7034TIP3    H242594   3.656   3.120  16.410 -0.0692 -1.8348 -0.2044
 7035TIP3   OH242595   4.905   3.286   4.185 -0.2482  0.5918 -0.5875
 7035TIP3    H142596   4.847   3.255   4.254  1.2040  1.5326  1.0989
 7035TIP3    H242597   4.960   3.211   4.164  0.3091  0.7215  0.3635
 7036TIP3   OH242598   4.251   6.017   1.250 -0.2378  0.1988 -0.3595
 7036TIP3    H142599   4.222   5.981   1.334 -0.2626 -0.1631 -0.5251
 7036TIP3    H242600   4.330   5.968   1.228 -0.3252  0.1779 -0.6296
 7037TIP3   OH242601   2.459   0.882  15.710 -0.5476  0.8883  0.3645
 7037TIP3    H142602   2.427   0.821  15.777 -2.9647  0.1521 -1.4056
 7037TIP3    H242603   2.502   0.952  15.760 -2.0712  0.2334  2.6624
 7038TIP3   OH242604   2.625   2.812   1.513 -0.1318 -0.3877  0.5872
 7038TIP3    H142605   2.706   2.763   1.495 -0.2101 -0.7860  1.2945
 7038TIP3    H242606   2.555   2.752   1.487 -0.2309 -0.6974  1.5373
 7039TIP3   OH242607   1.978   2.570   5.866 -0.2140 -0.4297 -0.4644
 7039TIP3    H142608   2.063   2.585   5.824  0.6829 -2.8949  0.3675
 7039TIP3    H242609   1.945   2.490   5.824 -2.2602  0.6367 -0.9478
 7040TIP3   OH242610   3.748   5.559  15.894 -0.3047 -0.0285 -0.0927
 7040TIP3    H142611   3.713   5.612  15.822  0.4773  1.2413  0.4364
 7040TIP3    H242612   3.754   5.471  15.859 -0.6099  0.4463 -1.3521
 7041TIP3   OH242613   0.253   3.019  16.469 -0.5130  0.3954  0.5022
 7041TIP3    H142614   0.185   2.998  16.533 -0.5052 -2.6507 -0.4356
 7041TIP3    H242615   0.211   3.007  16.384  0.4445  1.1004 -0.0887
 7042TIP3   OH242616   0.653   0.482  15.353  0.2612 -0.0769  0.0541
 7042TIP3    H142617   0.664   0.566  15.308  0.4346  0.1781  0.5757
 7042TIP3    H242618   0.682   0.498  15.442  1.8096 -1.0914 -0.2357
 7043TIP3   OH242619   3.634   5.439  16.976 -0.3456 -0.1997  0.1835
 7043TIP3    H142620   3.557   5.493  16.996 -1.6246 -2.1904  0.8433
 7043TIP3    H242621   3.655   5.460  16.885 -0.7265  1.4901  0.4738
 7044TIP3   OH242622   3.392   3.313   5.430  0.0064  0.2538 -0.2117
 7044TIP3    H142623   3.362   3.338   5.517  0.5417 -0.4360  0.1890
 7044TIP3    H242624   3.323   3.341   5.370 -1.4262 -1.2627  0.6698
 7045TIP3   OH242625   0.575   1.714   1.528  0.7520  0.2332  0.1759
 7045TIP3    H142626   0.500   1.768   1.551  0.3995  0.6843 -1.9193
 7045TIP3    H242627   0.543   1.624   1.535  0.0136  0.4222 -0.6626
 7046TIP3   OH242628   1.623   3.747  14.956 -0.1019 -0.0780 -0.4730
 7046TIP3    H142629   1.658   3.810  15.019 -0.8479 -1.0750  0.9951
 7046TIP3    H242630   1.590   3.800  14.884  1.0626  1.0770 -0.1695
 7047TIP3   OH242631   6.420   1.093   0.658 -0.1456  0.3953 -0.0922
 7047TIP3    H142632   6.465   1.162   0.706 -0.3535 -0.0289  0.7167
 7047TIP3    H242633   6.334   1.086   0.699  0.2949 -1.1607  0.6421
 7048TIP3   OH242634   5.983   6.601  15.848  0.6926 -0.1297  0.1846
 7048TIP3    H142635   5.996   6.643  15.933 -0.3746  0.6594 -0.0265
 7048TIP3    H242636   5.949   6.514  15.869 -0.8553  0.5482  0.5491
 7049TIP3   OH242637   4.572   2.436   1.096 -0.1002 -0.7228 -0.5697
 7049TIP3    H142638   4.616   2.511   1.056  0.8348  0.2284  2.1600
 7049TIP3    H242639   4.640   2.370   1.106 -0.0044 -0.4595  0.6418
 7050TIP3   OH242640   0.409   1.564  14.231 -0.5270 -0.5745 -0.0407
 7050TIP3    H142641   0.451   1.609  14.158  0.4396  0.9192  1.4324
 7050TIP3    H242642   0.480   1.540  14.289 -1.3968 -0.8493  0.9247
 7051TIP3   OH242643   0.116   0.903   6.890 -0.3826 -0.3002 -0.1178
 7051TIP3    H142644   0.090   0.889   6.981  1.1415 -2.5013  0.0215
 7051TIP3    H242645   0.049   0.857   6.839  0.4424 -1.7328  0.0479
 7052TIP3   OH242646   6.804   3.317  12.307 -0.2272  0.4132 -0.2031
 7052TIP3    H142647   6.725   3.371  12.297  0.4690  1.4862  0.0761
 7052TIP3    H242648   6.875   3.380  12.318  0.7085 -0.5489 -0.6882
 7053TIP3   OH242649   1.206   2.370  10.845  0.0419  0.0577  0.2010
 7053TIP3    H142650   1.142   2.402  10.909  0.7775 -0.1918  1.0828
 7053TIP3    H242651   1.159   2.305  10.794 -0.9941  1.3328 -0.5159
 7054TIP3   OH242652   5.132   5.307   0.624  0.2621  0.4603  0.3416
 7054TIP3    H142653   5.070   5.322   0.695  1.8532 -0.1336  1.8950
 7054TIP3    H242654   5.146   5.394   0.586 -1.2807  0.6364  0.1539
 7055TIP3   OH242655   2.630   2.270  16.368 -0.0656  0.1628  0.2743
 7055TIP3    H142656   2.646   2.211  16.294 -1.8399 -0.5805  0.4377
 7055TIP3    H242657   2.557   2.229  16.415  0.5127  1.0515  1.9832
 7056TIP3   OH242658   2.097   0.702  16.116 -0.4785  0.0283 -0.3466
 7056TIP3    H142659   2.020   0.664  16.157 -0.2410  0.7375  0.7639
 7056TIP3    H242660   2.124   0.772  16.175  1.0151 -0.2073 -0.7240
 7057TIP3   OH242661   0.399   3.265   0.397  0.2780  0.3589  0.5290
 7057TIP3    H142662   0.365   3.314   0.322 -1.3986  0.3310  1.2509
 7057TIP3    H242663   0.413   3.331   0.465  1.3850  0.3211  0.3520
 7058TIP3   OH242664   6.658   5.593   3.045 -0.0290 -0.3524  0.2787
 7058TIP3    H142665   6.651   5.522   3.108 -1.0519 -0.2660  0.2679
 7058TIP3    H242666   6.709   5.661   3.090 -1.8418  0.2347  1.4985
 7059TIP3   OH242667   2.753   2.534  12.755  0.3155 -0.0255  0.5418
 7059TIP3    H142668   2.728   2.581  12.834 -2.0038  0.2670 -0.3425
 7059TIP3    H242669   2.734   2.595  12.683 -0.0232 -1.2398 -0.4160
 7060TIP3   OH242670   5.908   0.912   0.920 -0.6344  0.0133 -0.1203
 7060TIP3    H142671   5.855   0.955   0.852 -0.1571  0.5809 -0.1299
 7060TIP3    H242672   5.866   0.937   1.002 -0.8111 -0.1248 -0.1680
 7061TIP3   OH242673   5.726   5.826  15.420 -0.4508 -0.0147 -0.6498
 7061TIP3    H142674   5.738   5.748  15.366  2.1815  0.9216 -1.5249
 7061TIP3    H242675   5.726   5.793  15.510  1.6400 -0.9530 -0.9611
 7062TIP3   OH242676   3.311   2.034  14.229 -0.5713  0.2581 -0.1902
 7062TIP3    H142677   3.335   2.060  14.318  1.4439 -0.4294 -0.5068
 7062TIP3    H242678   3.298   2.116  14.182  1.9200  0.6894 -0.1860
 7063TIP3   OH242679   3.271   0.853  14.666 -0.3314 -0.3819 -0.1192
 7063TIP3    H142680   3.211   0.796  14.713 -2.0595  0.5203 -1.2012
 7063TIP3    H242681   3.236   0.858  14.577  0.7428  0.9956 -0.4965
 7064TIP3   OH242682   4.308   4.992  13.080 -0.0903 -0.2151  0.1582
 7064TIP3    H142683   4.218   4.965  13.098  0.5877 -0.8922  2.7718
 7064TIP3    H242684   4.312   5.082  13.111 -0.0810  0.1068 -0.7570
 7065TIP3   OH242685   5.986   0.459  13.222  0.2579 -0.2390 -0.0810
 7065TIP3    H142686   5.956   0.395  13.287  0.3885 -1.3323 -1.0612
 7065TIP3    H242687   6.072   0.487  13.253 -0.4228  0.5486  1.1123
 7066TIP3   OH242688   2.342   3.465  16.267  0.3839  0.3559 -0.0791
 7066TIP3    H142689   2.331   3.554  16.235  0.6244  0.6391  0.6174
 7066TIP3    H242690   2.343   3.411  16.187  0.1696  0.9629 -0.4990
 7067TIP3   OH242691   0.659   2.767  14.290  0.1845  0.2771 -0.3049
 7067TIP3    H142692   0.571   2.788  14.322  0.4695 -0.2270  0.8112
 7067TIP3    H242693   0.717   2.782  14.365  0.8765 -0.7140 -0.6310
 7068TIP3   OH242694   0.169   0.276  16.193  0.2429 -0.2811  0.7031
 7068TIP3    H142695   0.174   0.356  16.141 -0.7079  1.3978  3.1094
 7068TIP3    H242696   0.260   0.250  16.205  0.5490  0.2512 -0.3444
 7069TIP3   OH242697   3.039   4.565  12.140 -0.6111 -0.4669  0.1783
 7069TIP3    H142698   2.995   4.482  12.160  0.1496 -0.4489  2.0584
 7069TIP3    H242699   3.085   4.549  12.058 -1.7910 -1.3841 -0.3207
 7070TIP3   OH242700   4.126   3.986   0.289 -0.2491 -0.4856  0.8422
 7070TIP3    H142701   4.090   4.037   0.361 -3.3879 -0.8771 -0.3847
 7070TIP3    H242702   4.219   4.008   0.288 -0.7458  1.9142  3.0042
 7071TIP3   OH242703   2.380   1.112  16.662 -0.0220  0.2895 -0.0725
 7071TIP3    H142704   2.474   1.132  16.665  0.2863 -1.0913 -0.3932
 7071TIP3    H242705   2.340   1.177  16.720  1.1159  0.9415  0.0003
 7072TIP3   OH242706   1.138   3.620  12.491  0.2644  0.6465  0.5886
 7072TIP3    H142707   1.075   3.685  12.458  0.1964 -0.3727 -1.3850
 7072TIP3    H242708   1.099   3.587  12.572 -0.8161  1.4071  0.3926
 7073TIP3   OH242709   1.875   0.175   2.465  0.1637  0.2235 -0.5901
 7073TIP3    H142710   1.827   0.134   2.394 -1.8624 -0.7572  1.2812
 7073TIP3    H242711   1.851   0.268   2.459  1.1154  0.3838 -2.0248
 7074TIP3   OH242712   5.235   5.976   0.775 -0.1551  0.0464  0.3092
 7074TIP3    H142713   5.217   6.070   0.777  1.7225  0.4444 -0.8001
 7074TIP3    H242714   5.319   5.967   0.819  1.2997 -0.7017 -2.5281
 7075TIP3   OH242715   4.567   6.405   5.695  0.3887  0.4835 -0.2112
 7075TIP3    H142716   4.519   6.437   5.771  0.9645  0.5514  0.1314
 7075TIP3    H242717   4.500   6.370   5.637 -0.3073  2.8046 -0.8587
 7076TIP3   OH242718   4.167   2.144  12.000  0.3175 -0.3958 -0.0232
 7076TIP3    H142719   4.186   2.159  11.908 -0.5890  1.2152  0.0315
 7076TIP3    H242720   4.082   2.099  12.000 -0.0258  0.2534  0.0534
 7077TIP3   OH242721   0.255   0.817   6.306 -0.1449  0.3885 -0.4422
 7077TIP3    H142722   0.345   0.795   6.332 -0.5199  0.2479  0.7974
 7077TIP3    H242723   0.235   0.896   6.356 -0.7950  0.2755 -0.5217
 7078TIP3   OH242724   4.474   5.656   6.639  0.1444  0.7378 -0.0043
 7078TIP3    H142725   4.540   5.669   6.571  1.0087  0.2812  0.7485
 7078TIP3    H242726   4.469   5.561   6.650  0.9130  0.8647  1.4647
 7079TIP3   OH242727   2.296   5.350  13.922  0.3006  0.1892 -0.1652
 7079TIP3    H142728   2.320   5.415  13.856  0.4938  1.0388  0.7216
 7079TIP3    H242729   2.205   5.329  13.903  0.3964  0.3346 -0.7856
 7080TIP3   OH242730   3.891   4.771   5.711  0.4679 -0.3703  0.1115
 7080TIP3    H142731   3.984   4.795   5.713  0.4980 -0.6309  2.2449
 7080TIP3    H242732   3.857   4.800   5.795 -1.3992 -0.2741 -0.6717
 7081TIP3   OH242733   6.122   1.298  10.878  0.3211 -0.4992 -0.1406
 7081TIP3    H142734   6.184   1.233  10.846  1.4971 -0.2624  1.6214
 7081TIP3    H242735   6.159   1.329  10.960 -1.9685 -0.1410  0.8134
 7082TIP3   OH242736   0.011   3.579   5.886 -0.3679  0.1091 -0.1279
 7082TIP3    H142737  -0.027   3.645   5.945 -0.4834  0.7790 -0.9424
 7082TIP3    H242738   0.093   3.555   5.928 -0.0537  1.1840 -0.1044
 7083TIP3   OH242739   2.806   4.344  16.888  0.4035 -0.3267 -0.3076
 7083TIP3    H142740   2.758   4.263  16.873  0.6181 -0.5398  0.1333
 7083TIP3    H242741   2.895   4.316  16.912  0.7013  0.0572 -0.9412
 7084TIP3   OH242742   1.808   5.236  17.023  0.3350  0.5552  0.4382
 7084TIP3    H142743   1.895   5.268  17.045  0.1669  0.9950  0.4640
 7084TIP3    H242744   1.782   5.181  17.097  1.0420 -0.4734 -0.0589
 7085TIP3   OH242745   3.087   0.974  16.010  0.0537 -0.0904  0.0817
 7085TIP3    H142746   3.085   1.068  15.994  0.6868 -0.3683 -1.7537
 7085TIP3    H242747   3.025   0.937  15.947 -1.6666 -0.7675  2.0763
 7086TIP3   OH242748   0.494   3.925   4.288 -0.2717 -0.0879  0.1264
 7086TIP3    H142749   0.464   3.899   4.375 -1.6374 -1.1546 -0.6340
 7086TIP3    H242750   0.436   3.997   4.263 -0.2917 -0.2021 -0.1567
 7087TIP3   OH242751   5.981   1.324  13.756  0.5622  0.1320  0.2244
 7087TIP3    H142752   5.973   1.241  13.708 -0.6995  0.3313  0.0671
 7087TIP3    H242753   5.945   1.390  13.696  1.9144  0.8573  0.1972
 7088TIP3   OH242754   5.684   3.454   1.253  0.1665  0.3216 -0.7858
 7088TIP3    H142755   5.659   3.533   1.206  1.2082  0.4025 -1.2253
 7088TIP3    H242756   5.602   3.418   1.285 -0.6479 -0.2404 -3.4387
 7089TIP3   OH242757   1.637   4.185   5.412 -0.3867  0.0141  0.4828
 7089TIP3    H142758   1.713   4.172   5.355 -0.6133  0.6040  0.0423
 7089TIP3    H242759   1.670   4.166   5.500  0.6515  1.6526  0.4786
 7090TIP3   OH242760   1.289   1.056  13.716  0.1516 -0.5680 -0.1990
 7090TIP3    H142761   1.382   1.053  13.692  0.5055 -2.0196  1.2188
 7090TIP3    H242762   1.250   1.119  13.656  2.0395 -0.0312 -0.8855
 7091TIP3   OH242763   6.539   1.266   3.254 -0.4875  0.2408  0.1642
 7091TIP3    H142764   6.566   1.266   3.346  2.0903  3.0948 -0.5335
 7091TIP3    H242765   6.502   1.353   3.240 -1.7096 -0.4957 -1.3008
 7092TIP3   OH242766   4.882   2.998  16.764  0.0893  0.2973  0.3232
 7092TIP3    H142767   4.834   2.924  16.802  0.7807  0.6840  1.9739
 7092TIP3    H242768   4.929   3.037  16.837 -0.4536  2.5414 -0.4690
 7093TIP3   OH242769   5.724   6.075  16.299 -0.1854 -0.1759  0.9512
 7093TIP3    H142770   5.811   6.080  16.339  0.2650  0.1282 -0.0661
 7093TIP3    H242771   5.667   6.122  16.360  0.1650 -1.2482  2.1384
 7094TIP3   OH242772   6.522   2.916   4.317 -0.4678 -0.7377 -0.6744
 7094TIP3    H142773   6.468   2.981   4.273 -0.8793 -1.0357 -0.6066
 7094TIP3    H242774   6.470   2.887   4.391  0.1146 -0.4363 -0.1408
 7095TIP3   OH242775   5.061   2.717  13.881 -0.2336  0.2408 -0.3675
 7095TIP3    H142776   5.152   2.714  13.851 -0.6017  0.7739 -1.5680
 7095TIP3    H242777   5.020   2.642  13.837 -0.7770  1.0250 -1.2004
 7096TIP3   OH242778   0.618   5.715  16.456  0.2044 -0.2086  0.0097
 7096TIP3    H142779   0.700   5.715  16.406  0.3948  1.0987  0.2972
 7096TIP3    H242780   0.568   5.642  16.420  0.6458  0.2487 -1.5661
 7097TIP3   OH242781   0.569   4.719  14.398  0.3818  0.0046  0.7225
 7097TIP3    H142782   0.514   4.797  14.398  0.5993  0.1666 -0.4207
 7097TIP3    H242783   0.643   4.743  14.456  1.0656  1.1049 -0.5670
 7098TIP3   OH242784   6.177   2.904   2.166 -0.4418 -0.0093  0.1871
 7098TIP3    H142785   6.229   2.955   2.229 -0.7793  1.3419 -0.6091
 7098TIP3    H242786   6.229   2.825   2.150  1.6197  1.5344 -0.9706
 7099TIP3   OH242787   5.308   6.752   0.183 -0.3720  0.3038  0.6398
 7099TIP3    H142788   5.291   6.679   0.123  2.4007  0.1860 -0.0535
 7099TIP3    H242789   5.403   6.752   0.194 -0.6245  1.8513  3.1393
 7100TIP3   OH242790   3.325   5.131   1.367  0.0230 -0.2269  0.2797
 7100TIP3    H142791   3.367   5.052   1.401 -1.2635 -1.5206 -1.0253
 7100TIP3    H242792   3.290   5.175   1.445  2.1022 -0.1163  1.1723
 7101TIP3   OH242793   4.801   0.358  13.588 -0.3929  0.1002 -0.1443
 7101TIP3    H142794   4.861   0.286  13.572 -0.0143  0.0533  1.3322
 7101TIP3    H242795   4.858   0.432  13.609 -0.7734  0.8573 -1.7235
 7102TIP3   OH242796   1.500   4.180  14.815 -0.0059 -0.1092  0.4732
 7102TIP3    H142797   1.503   4.085  14.801 -0.9802 -0.2602  1.2254
 7102TIP3    H242798   1.516   4.217  14.728  1.0903 -0.9495  0.3045
 7103TIP3   OH242799   5.759   2.404  14.214  0.1922 -0.0258  0.3880
 7103TIP3    H142800   5.688   2.345  14.189  0.4075 -0.1344  0.0185
 7103TIP3    H242801   5.838   2.359  14.184  0.3597  0.4441  0.1140
 7104TIP3   OH242802   0.129   4.672   6.071 -0.7063 -0.2424 -0.8653
 7104TIP3    H142803   0.214   4.639   6.100  0.2575 -0.8566 -4.1708
 7104TIP3    H242804   0.065   4.622   6.122  0.8906 -0.3882  1.0358
 7105TIP3   OH242805   6.373   4.300   2.092 -0.2045 -0.9538 -0.4429
 7105TIP3    H142806   6.446   4.287   2.033 -0.4620  0.5101 -1.1130
 7105TIP3    H242807   6.302   4.333   2.037 -0.3585  0.7128  0.6980
 7106TIP3   OH242808   3.807   2.572   0.631  0.4944  0.1565  0.5191
 7106TIP3    H142809   3.760   2.650   0.603 -1.8939 -0.8971  1.4261
 7106TIP3    H242810   3.892   2.604   0.661  1.3435  1.8181 -3.4103
 7107TIP3   OH242811   6.512   3.388  14.202  0.0675  0.0750  0.1220
 7107TIP3    H142812   6.524   3.465  14.257  1.0764  0.8514 -1.1424
 7107TIP3    H242813   6.588   3.333  14.220  1.7063  1.4646 -2.2506
 7108TIP3   OH242814   6.573   4.392   4.993 -0.3199  0.3815  0.0899
 7108TIP3    H142815   6.623   4.420   5.069  0.0282  0.7286 -0.2637
 7108TIP3    H242816   6.498   4.451   4.990  0.6571  1.6027 -0.9248
 7109TIP3   OH242817   1.452   4.672   6.644  0.0133  0.2979  0.1785
 7109TIP3    H142818   1.531   4.618   6.646  0.3758  0.7353 -1.3680
 7109TIP3    H242819   1.386   4.616   6.602 -0.0274  0.5225 -0.0580
 7110TIP3   OH242820   3.551   3.896   5.173  0.4885  0.6427 -0.5860
 7110TIP3    H142821   3.524   3.864   5.087  0.4695 -3.3644  0.7960
 7110TIP3    H242822   3.646   3.885   5.175  0.5152  0.9046 -0.1703
 7111TIP3   OH242823   4.802   6.750  11.450 -0.1572  0.3444  0.2174
 7111TIP3    H142824   4.834   6.664  11.478 -0.2741 -0.5092 -2.2032
 7111TIP3    H242825   4.748   6.780  11.523  1.1370 -0.9286  1.7456
 7112TIP3   OH242826   1.746   6.523  11.650  0.2943 -0.8553 -0.2280
 7112TIP3    H142827   1.656   6.505  11.678  0.2357 -2.5813 -1.4672
 7112TIP3    H242828   1.799   6.461  11.700  0.8700  0.4536  0.8214
 7113TIP3   OH242829   1.488   0.785   4.803  0.3066 -0.4704 -0.1036
 7113TIP3    H142830   1.533   0.855   4.756  1.0771 -0.1963  1.0037
 7113TIP3    H242831   1.397   0.813   4.807  0.5604  0.3502  0.0911
 7114TIP3   OH242832   1.906   2.534   4.904  0.5104  0.7772  0.0116
 7114TIP3    H142833   1.969   2.484   4.852 -0.7235  0.6281 -1.3643
 7114TIP3    H242834   1.925   2.509   4.995  0.5785 -1.4228 -0.5705
 7115TIP3   OH242835   2.278   2.494   4.424 -0.0265  0.1952 -0.3001
 7115TIP3    H142836   2.280   2.414   4.477  0.9064  0.2548 -0.2452
 7115TIP3    H242837   2.273   2.565   4.489  1.6413  0.2941 -0.2573
 7116TIP3   OH242838   4.053   6.127  12.343  0.2051 -0.4818 -0.0252
 7116TIP3    H142839   4.143   6.145  12.316 -0.3062 -0.0805 -1.5065
 7116TIP3    H242840   4.039   6.035  12.321 -0.3395 -0.0534 -1.5896
 7117TIP3   OH242841   5.175   3.125   1.007 -0.1516 -0.8639 -0.3411
 7117TIP3    H142842   5.171   3.168   0.921 -0.1622 -0.3751 -0.0947
 7117TIP3    H242843   5.165   3.032   0.987 -2.7992 -0.5510 -0.6291
 7118TIP3   OH242844   2.018   1.441   2.992  0.0919  0.5481 -1.0480
 7118TIP3    H142845   2.052   1.482   3.072 -0.1612  0.9642 -1.1497
 7118TIP3    H242846   2.078   1.469   2.923 -0.0892  0.7591 -1.1203
 7119TIP3   OH242847   5.116   4.757   3.354 -0.2972 -0.6635  0.3677
 7119TIP3    H142848   5.174   4.690   3.317 -0.5130 -0.7359  0.1588
 7119TIP3    H242849   5.102   4.729   3.444  1.1633  0.1341  0.8544
 7120TIP3   OH242850   6.717   1.085   3.692  0.0995  0.3008  0.3454
 7120TIP3    H142851   6.812   1.101   3.699  0.3903 -2.0653  2.6510
 7120TIP3    H242852   6.682   1.117   3.775 -1.0809  0.8263 -0.3519
 7121TIP3   OH242853   1.405   0.535   2.668  0.1646 -0.3936 -0.3496
 7121TIP3    H142854   1.432   0.625   2.650 -0.4106 -0.5456 -2.0899
 7121TIP3    H242855   1.463   0.481   2.615  0.8665 -1.0976  1.1093
 7122TIP3   OH242856   0.407   3.207  16.180  0.7514  0.1479 -0.2727
 7122TIP3    H142857   0.492   3.212  16.223  0.9117 -0.1148 -0.5539
 7122TIP3    H242858   0.416   3.264  16.103 -0.0977  2.0105  0.9764
 7123TIP3   OH242859   0.939   6.597  14.543  0.4795 -0.1355  0.0120
 7123TIP3    H142860   0.900   6.581  14.457  0.1713  1.3177 -0.1290
 7123TIP3    H242861   0.866   6.628  14.597  0.8432 -0.2473  0.5695
 7124TIP3   OH242862   5.223   2.334  16.700  0.8138  0.1490 -0.8635
 7124TIP3    H142863   5.315   2.351  16.684  0.7787  1.1320 -0.0590
 7124TIP3    H242864   5.206   2.369  16.788 -0.9614  2.5360 -2.0847
 7125TIP3   OH242865   6.659   5.015  16.164 -0.2383 -0.1936  0.1423
 7125TIP3    H142866   6.748   4.994  16.193 -0.2956  0.5127  0.8348
 7125TIP3    H242867   6.660   4.997  16.070  1.1351  1.4472 -0.1699
 7126TIP3   OH242868   5.479   2.536   5.802  0.6829  0.0703  0.3116
 7126TIP3    H142869   5.546   2.585   5.755  0.9900 -0.7576 -0.1352
 7126TIP3    H242870   5.512   2.531   5.892  0.8881  0.2567  0.2479
 7127TIP3   OH242871   1.143   6.032  15.988  0.4759 -0.0536 -0.2823
 7127TIP3    H142872   1.101   6.039  15.903  1.9271 -0.1367 -1.0314
 7127TIP3    H242873   1.211   6.099  15.987  2.4742 -1.9876 -0.3993
 7128TIP3   OH242874   0.250   1.908   5.324 -0.2197  0.6195 -0.2608
 7128TIP3    H142875   0.171   1.963   5.320 -1.2835 -0.8569  0.0684
 7128TIP3    H242876   0.268   1.886   5.233 -0.1832  0.9548 -0.3370
 7129TIP3   OH242877   5.754   5.470   2.254  0.7222  0.1837  0.4006
 7129TIP3    H142878   5.746   5.458   2.160 -5.0872 -0.5085  0.8228
 7129TIP3    H242879   5.751   5.565   2.266 -1.7008  0.1673  0.0501
 7130TIP3   OH242880   5.514   3.560  12.930  0.1677  0.2264 -0.0629
 7130TIP3    H142881   5.592   3.610  12.954  0.0835 -0.3537  1.5052
 7130TIP3    H242882   5.450   3.626  12.903  0.5733  0.8528  0.4967
 7131TIP3   OH242883   4.279   1.108   2.560  0.0986  0.2249  0.6165
 7131TIP3    H142884   4.297   1.120   2.466 -0.2249 -1.1857  0.3658
 7131TIP3    H242885   4.275   1.197   2.595  0.4840  0.7581 -0.6626
 7132TIP3   OH242886   4.748   6.129   5.733  0.5190  0.1671 -0.1782
 7132TIP3    H142887   4.783   6.214   5.760 -0.2226  0.3815  0.1162
 7132TIP3    H242888   4.771   6.123   5.640  0.1472  0.9115 -0.3262
 7133TIP3   OH242889   3.044   2.936   0.025 -0.0153  0.2514  0.1206
 7133TIP3    H142890   3.103   2.861   0.035  0.3067  0.1696 -2.1252
 7133TIP3    H242891   3.102   3.009   0.002 -0.4757  0.8728  0.9124
 7134TIP3   OH242892   1.119   1.605  11.628 -0.2128 -0.2581 -0.3316
 7134TIP3    H142893   1.168   1.687  11.629 -0.8714  0.1329 -0.3902
 7134TIP3    H242894   1.140   1.567  11.542  1.2294 -0.8449  0.2638
 7135TIP3   OH242895   5.643   2.885  15.202 -0.4092  0.7206  0.0249
 7135TIP3    H142896   5.608   2.890  15.291 -0.0232 -1.6755  0.3462
 7135TIP3    H242897   5.695   2.805  15.201 -2.1746 -0.4840 -2.9392
 7136TIP3   OH242898   6.219   4.907  16.416 -0.4327  0.0431 -0.2136
 7136TIP3    H142899   6.186   4.989  16.380 -1.0027  0.3186  0.9057
 7136TIP3    H242900   6.159   4.840  16.382  1.3885 -0.2368 -3.0001
 7137TIP3   OH242901   5.850   6.178  15.104 -0.4743 -0.0956  0.4479
 7137TIP3    H142902   5.861   6.090  15.067 -0.7532 -0.4371  1.1499
 7137TIP3    H242903   5.756   6.196  15.095 -0.2323  0.5760 -0.6719
 7138TIP3   OH242904   3.604   5.605  11.812  0.0850 -0.7565 -0.0568
 7138TIP3    H142905   3.590   5.664  11.886 -0.4910  2.0274 -2.3212
 7138TIP3    H242906   3.524   5.552  11.809 -0.1703 -0.4430  0.8714
 7139TIP3   OH242907   4.148   4.816   3.423 -0.1229  0.4647  1.2088
 7139TIP3    H142908   4.142   4.742   3.484  2.3638 -1.0009 -0.2356
 7139TIP3    H242909   4.121   4.779   3.338  0.4478  1.3981  0.6161
 7140TIP3   OH242910   3.548   4.669   0.030 -0.1223 -0.2213 -0.4943
 7140TIP3    H142911   3.631   4.629   0.055 -0.1643 -0.6795 -1.0905
 7140TIP3    H242912   3.512   4.610  -0.036 -0.8232  0.0862 -0.3839
 7141TIP3   OH242913   3.675   1.616  10.713  0.0348  0.1319 -0.6783
 7141TIP3    H142914   3.673   1.539  10.657  0.9536 -1.4674  1.4341
 7141TIP3    H242915   3.736   1.676  10.669  1.1463 -1.3102 -1.1376
 7142TIP3   OH242916   5.294   0.987   4.430 -0.4910  0.3097  0.3255
 7142TIP3    H142917   5.223   1.018   4.375  1.4592  4.0649 -0.2587
 7142TIP3    H242918   5.314   1.061   4.488  0.9665 -1.7127  2.5152
 7143TIP3   OH242919   3.621   4.429   1.952 -0.2159  0.9541  0.1084
 7143TIP3    H142920   3.563   4.364   1.913  0.8261 -0.0066  0.1513
 7143TIP3    H242921   3.579   4.513   1.932 -0.3810  0.4145 -1.9611
 7144TIP3   OH242922   5.972   3.375  12.271  0.9743 -0.9728 -0.0251
 7144TIP3    H142923   6.063   3.401  12.279  0.8455 -0.0397 -1.4226
 7144TIP3    H242924   5.968   3.289  12.313  2.5844 -1.2103 -0.3139
 7145TIP3   OH242925   4.256   4.880  15.070  0.0602  0.0024  0.4400
 7145TIP3    H142926   4.262   4.955  15.129  0.8547  0.4262 -0.1664
 7145TIP3    H242927   4.213   4.914  14.992  0.0326 -0.2858  0.3316
 7146TIP3   OH242928   4.600   2.123   6.383  0.0811 -0.0768  0.0556
 7146TIP3    H142929   4.620   2.037   6.344  0.0588  0.2234 -0.6335
 7146TIP3    H242930   4.514   2.145   6.348 -0.5186 -0.3931  1.3153
 7147TIP3   OH242931   5.981   1.945  10.754  0.6129  0.5614 -0.2242
 7147TIP3    H142932   6.010   1.968  10.666  0.9085  1.8020  0.1849
 7147TIP3    H242933   5.973   1.850  10.753  2.0827  0.4372 -1.1368
 7148TIP3   OH242934   1.899   0.772   5.029  1.1615 -0.0620 -0.1248
 7148TIP3    H142935   1.810   0.756   5.061  0.3288  0.0592 -2.3402
 7148TIP3    H242936   1.893   0.852   4.977  2.4475 -0.3681 -0.7763
 7149TIP3   OH242937   5.744   1.904   1.931  0.3879 -0.2254 -0.0125
 7149TIP3    H142938   5.675   1.838   1.929 -0.3711  0.5264  0.9842
 7149TIP3    H242939   5.711   1.972   1.990  1.8982  0.2288  0.3267
 7150TIP3   OH242940   3.004   4.613  12.821 -0.2407 -0.2335 -0.1980
 7150TIP3    H142941   2.960   4.598  12.738  0.7958  0.9520 -0.9797
 7150TIP3    H242942   2.940   4.660  12.875  0.2236  1.9707 -1.5120
 7151TIP3   OH242943   1.160   1.759   3.045 -0.0460  0.1323  0.8349
 7151TIP3    H142944   1.110   1.767   2.964 -1.1807 -0.6980  1.4567
 7151TIP3    H242945   1.095   1.740   3.113  0.7030  2.2460  2.2080
 7152TIP3   OH242946   4.280   5.534  15.428  0.3106  0.4656  0.1147
 7152TIP3    H142947   4.355   5.522  15.369 -0.0010  0.7885 -0.3460
 7152TIP3    H242948   4.319   5.563  15.510  0.7968 -0.5394  0.2467
 7153TIP3   OH242949   3.943   6.657   5.896 -0.2425 -0.4242  0.3180
 7153TIP3    H142950   4.032   6.622   5.888  0.4791  1.5267 -0.5804
 7153TIP3    H242951   3.890   6.601   5.839  0.4653 -1.3648  0.5690
 7154TIP3   OH242952   6.692   2.272   2.359  0.6643  0.0227 -0.0237
 7154TIP3    H142953   6.717   2.181   2.339  0.4990  0.1441 -0.7932
 7154TIP3    H242954   6.620   2.290   2.299 -0.5964  0.0186  1.4663
 7155TIP3   OH242955   4.852   3.791   4.224 -0.6711  0.1869 -0.2026
 7155TIP3    H142956   4.838   3.824   4.135 -1.0002  0.1716 -0.1578
 7155TIP3    H242957   4.834   3.698   4.217 -1.4525  0.3146  0.0418
 7156TIP3   OH242958   6.801   3.908   0.679  0.3287 -0.3767 -0.2894
 7156TIP3    H142959   6.778   3.882   0.768 -0.2334  2.5772  0.4779
 7156TIP3    H242960   6.896   3.912   0.679  0.2638  1.6793  0.8278
 7157TIP3   OH242961   3.127   6.806   2.456  0.0535 -1.0553  0.4876
 7157TIP3    H142962   3.204   6.765   2.417  1.5748  0.3328  1.9950
 7157TIP3    H242963   3.059   6.796   2.389  1.8466 -1.2571 -1.3571
 7158TIP3   OH242964   2.473   5.977   0.852 -0.3188 -0.1502 -0.4872
 7158TIP3    H142965   2.447   5.983   0.760  0.4124  0.0546 -0.6806
 7158TIP3    H242966   2.537   6.047   0.863 -1.0962  0.4334  0.4128
 7159TIP3   OH242967   5.169   1.802  14.614  0.3604 -0.2685 -0.5454
 7159TIP3    H142968   5.252   1.821  14.659 -0.2614 -1.2839  1.0869
 7159TIP3    H242969   5.165   1.866  14.544  1.5596  1.1151  0.6003
 7160TIP3   OH242970   5.034   3.176  15.145 -0.5744  0.0813  0.4626
 7160TIP3    H142971   5.055   3.082  15.139  0.1428  0.3056 -0.8368
 7160TIP3    H242972   4.973   3.182  15.218 -0.8372 -1.4412  0.3960
 7161TIP3   OH242973   2.703   1.834  16.557 -0.7193  0.0751 -0.5333
 7161TIP3    H142974   2.741   1.755  16.596 -0.2277 -0.1099 -1.3882
 7161TIP3    H242975   2.623   1.850  16.609 -0.7850 -0.9352 -0.3110
 7162TIP3   OH242976   4.266   4.001   2.714 -0.5768 -0.4978 -0.0513
 7162TIP3    H142977   4.283   4.082   2.763 -1.2175  0.1957 -0.9531
 7162TIP3    H242978   4.195   4.024   2.654 -1.1261 -1.8805  0.0430
 7163TIP3   OH242979   4.174   1.190   4.378 -0.5219 -0.0515 -0.6491
 7163TIP3    H142980   4.210   1.103   4.394 -0.6918 -0.5098 -2.6283
 7163TIP3    H242981   4.221   1.247   4.439  1.4507 -1.1247 -1.1360
 7164TIP3   OH242982   0.690   2.377   4.780  0.1798 -0.1449  0.3662
 7164TIP3    H142983   0.720   2.462   4.749 -0.3896 -0.0884 -0.0428
 7164TIP3    H242984   0.721   2.315   4.713  0.5130 -0.2507  0.6151
 7165TIP3   OH242985   1.261   2.430   1.834  0.3354  0.0532 -0.6016
 7165TIP3    H142986   1.341   2.475   1.805 -0.6450  2.6458  0.5253
 7165TIP3    H242987   1.285   2.338   1.834  3.0125  0.6762 -1.3229
 7166TIP3   OH242988   0.619   5.196  12.131 -0.2874 -0.0821 -0.0424
 7166TIP3    H142989   0.675   5.273  12.133 -1.5368  0.8299  0.5966
 7166TIP3    H242990   0.674   5.125  12.165  0.4473  0.8103  0.6472
 7167TIP3   OH242991   0.586   0.107  14.048  0.3356 -0.5172  0.5759
 7167TIP3    H142992   0.539   0.072  14.124 -0.5539 -1.6420 -0.4576
 7167TIP3    H242993   0.642   0.176  14.083 -0.1427 -0.9550  2.2306
 7168TIP3   OH242994   3.694   6.539  12.126 -0.3109  0.0836 -0.9401
 7168TIP3    H142995   3.650   6.476  12.184  1.3119  0.2529  0.5224
 7168TIP3    H242996   3.764   6.488  12.085 -0.4543  0.3708 -1.5429
 7169TIP3   OH242997   1.482   3.989  12.779  0.1399  0.8069  0.4612
 7169TIP3    H142998   1.423   3.927  12.821 -0.4364  1.5878  0.8134
 7169TIP3    H242999   1.452   4.075  12.808  0.6007  1.2835 -0.4395
 7170TIP3   OH243000   3.936   3.924   6.278 -0.1583 -0.0189 -0.1540
 7170TIP3    H143001   3.935   3.854   6.343 -0.0563  0.5636  0.4817
 7170TIP3    H243002   3.868   3.985   6.309  0.0350  0.3591 -0.4804
 7171TIP3   OH243003   4.904   3.111   5.004  0.4402  1.0906 -0.6767
 7171TIP3    H143004   4.985   3.149   5.040  0.3761  0.6376 -0.0320
 7171TIP3    H243005   4.914   3.119   4.909  0.6814  2.1821 -0.5677
 7172TIP3   OH243006   3.874   2.608   1.719 -0.0404 -0.2072  0.4971
 7172TIP3    H143007   3.889   2.575   1.807  0.1657  0.2471  0.6336
 7172TIP3    H243008   3.852   2.701   1.731 -0.0541 -0.1511  0.0746
 7173TIP3   OH243009   1.465   0.860   3.533 -0.5909 -0.1029  0.3187
 7173TIP3    H143010   1.487   0.953   3.524 -2.7322  0.4205  0.0819
 7173TIP3    H243011   1.526   0.827   3.599 -0.4358  1.7240  1.1226
 7174TIP3   OH243012   5.885   6.157   4.217  0.1902  0.0115  0.0966
 7174TIP3    H143013   5.859   6.116   4.299  1.8282  1.4441  1.3578
 7174TIP3    H243014   5.958   6.214   4.240  0.6292  0.5070 -2.3410
 7175TIP3   OH243015   3.023   3.931  11.174  0.4099 -0.7442 -0.6047
 7175TIP3    H143016   3.061   3.847  11.201 -0.2892 -0.5374  1.1166
 7175TIP3    H243017   3.006   3.921  11.081  2.3849 -1.7161 -0.8853
 7176TIP3   OH243018   5.353   4.199  16.516  0.2060  0.1293  0.5540
 7176TIP3    H143019   5.288   4.259  16.552  0.3999 -0.0496  1.2115
 7176TIP3    H243020   5.426   4.203  16.578  0.9984  0.6449 -0.3891
 7177TIP3   OH243021   1.003   1.346   4.601 -0.0122 -0.0922 -0.0056
 7177TIP3    H143022   0.946   1.363   4.677  1.3029 -1.0718  1.2175
 7177TIP3    H243023   1.085   1.389   4.623  0.0440  0.4968 -1.3488
 7178TIP3   OH243024   3.595   5.348   1.674  0.0866 -0.4770  0.0795
 7178TIP3    H143025   3.669   5.387   1.627  0.1264 -0.3483  0.2496
 7178TIP3    H243026   3.603   5.382   1.763 -0.0636 -0.6214  0.1471
 7179TIP3   OH243027   5.715   1.933   6.046 -0.6179  0.2103  0.2154
 7179TIP3    H143028   5.749   1.994   6.112  0.5246 -1.3851  1.1430
 7179TIP3    H243029   5.768   1.950   5.968 -0.1287  0.2208  0.5483
 7180TIP3   OH243030   1.462   5.042  12.564  0.1248 -0.0637 -0.0337
 7180TIP3    H143031   1.461   5.137  12.550 -1.3429  0.2582  1.9946
 7180TIP3    H243032   1.532   5.028  12.627  1.1075 -0.4826 -1.2054
 7181TIP3   OH243033   4.220   3.441  12.117 -0.1394 -0.2906 -0.1242
 7181TIP3    H143034   4.172   3.369  12.076 -3.2544  0.8856  1.3211
 7181TIP3    H243035   4.264   3.401  12.192 -0.7036 -0.9454 -0.1410
 7182TIP3   OH243036   0.875   0.994   1.874  0.3069  0.2481 -0.2945
 7182TIP3    H143037   0.828   0.968   1.953  1.8089 -0.4730  0.3890
 7182TIP3    H243038   0.819   0.964   1.802 -0.0037 -1.1506  0.4985
 7183TIP3   OH243039   1.401   4.032   0.436  0.5398  0.6139 -0.4523
 7183TIP3    H143040   1.492   4.007   0.422  0.7296  0.9842  0.0691
 7183TIP3    H243041   1.406   4.100   0.504 -0.4628 -2.3845  2.7516
 7184TIP3   OH243042   1.634   4.549   0.486 -0.4280  0.0519  0.2871
 7184TIP3    H143043   1.709   4.494   0.465 -0.1454  1.0092 -1.3123
 7184TIP3    H243044   1.559   4.504   0.447 -0.5579 -0.4206  1.0702
 7185TIP3   OH243045   0.528   5.774   5.404  0.1581 -0.5505  0.1581
 7185TIP3    H143046   0.514   5.785   5.498  1.4916 -1.3007  0.4453
 7185TIP3    H243047   0.609   5.724   5.396 -0.2677 -1.0447 -1.3783
 7186TIP3   OH243048   1.425   3.423   0.700 -0.0011  0.0471  0.1422
 7186TIP3    H143049   1.488   3.493   0.684 -0.5791  0.4191 -0.5085
 7186TIP3    H243050   1.417   3.420   0.795  0.2367  0.6784  0.1855
 7187TIP3   OH243051   0.719   3.585   6.909 -0.1305 -0.4510 -0.3487
 7187TIP3    H143052   0.636   3.538   6.902 -0.3190 -0.1096 -0.4751
 7187TIP3    H243053   0.780   3.535   6.856 -0.3384 -0.5340 -0.5107
 7188TIP3   OH243054   2.629   3.909   0.928 -0.3191 -0.2957 -0.1375
 7188TIP3    H143055   2.545   3.867   0.948 -0.2898  0.0359  0.6924
 7188TIP3    H243056   2.616   4.001   0.950  0.5134 -0.3812  0.7576
 7189TIP3   OH243057   1.131   1.732   5.656  0.2551  0.4084 -0.1469
 7189TIP3    H143058   1.115   1.639   5.640  0.1268  0.1078  1.6305
 7189TIP3    H243059   1.180   1.734   5.738 -0.7238  1.9619  0.4154
 7190TIP3   OH243060   3.842   1.051  12.619 -0.5011 -0.4942  0.1930
 7190TIP3    H143061   3.754   1.071  12.653 -0.1832  1.1516  0.0949
 7190TIP3    H243062   3.827   1.025  12.528 -0.9629 -1.0517  0.4205
 7191TIP3   OH243063   4.101   3.060   5.432  0.4875 -0.1468  0.5063
 7191TIP3    H143064   4.065   3.107   5.507  0.1236  0.3146  0.0477
 7191TIP3    H243065   4.180   3.107   5.409 -0.5727  1.0512 -0.7750
 7192TIP3   OH243066   1.224   5.814  12.821  0.2554 -0.0936  0.2717
 7192TIP3    H143067   1.164   5.888  12.808  1.3896  1.0656  1.4900
 7192TIP3    H243068   1.295   5.829  12.759 -0.1583 -0.8789 -0.4005
 7193TIP3   OH243069   6.397   5.659   0.301  0.2231  0.1797 -0.4361
 7193TIP3    H143070   6.478   5.675   0.350 -1.1523 -2.2812  2.8437
 7193TIP3    H243071   6.423   5.666   0.209  2.9797  4.7235  0.5420
 7194TIP3   OH243072   3.441   2.190  10.901 -0.2434 -0.2414 -0.3134
 7194TIP3    H143073   3.364   2.189  10.844 -1.2456  2.2288  0.9311
 7194TIP3    H243074   3.482   2.275  10.884 -0.5402  0.5355  2.5328
 7195TIP3   OH243075   5.375   6.007  16.523 -0.1359  0.1405  0.0504
 7195TIP3    H143076   5.379   5.955  16.443  0.0197  1.2334 -0.6594
 7195TIP3    H243077   5.300   6.064  16.512  1.1100  1.7670 -0.2396
 7196TIP3   OH243078   6.771   3.753  14.442  0.0808 -0.0223  0.2888
 7196TIP3    H143079   6.704   3.767  14.508  1.5830  0.6154  1.7297
 7196TIP3    H243080   6.806   3.841  14.424  0.1135 -0.2678 -0.8931
 7197TIP3   OH243081   0.573   1.159   5.518  0.8060 -0.3464  0.1517
 7197TIP3    H143082   0.492   1.144   5.468  0.4002  0.6529  0.4986
 7197TIP3    H243083   0.582   1.081   5.573  0.0544 -0.4515  0.1334
 7198TIP3   OH243084   5.966   1.370  12.972 -0.3011  0.3634 -0.0529
 7198TIP3    H143085   5.955   1.281  12.940  1.1574  0.2389 -0.2704
 7198TIP3    H243086   5.897   1.381  13.038 -1.3628 -0.4360 -1.0155
 7199TIP3   OH243087   4.803   6.409  11.798 -0.0848  0.0368  0.7036
 7199TIP3    H143088   4.749   6.488  11.804  0.7308  0.8026 -1.5311
 7199TIP3    H243089   4.740   6.338  11.787 -0.8191  0.3543  2.6037
 7200TIP3   OH243090   3.528   2.487   3.395 -0.5015 -0.5201  0.4453
 7200TIP3    H143091   3.584   2.466   3.321  2.6121  1.7609  2.0615
 7200TIP3    H243092   3.440   2.490   3.358  0.9364  0.1481 -3.0670
 7201TIP3   OH243093   1.770   1.325   0.318  0.1601  0.1292  0.0436
 7201TIP3    H143094   1.742   1.374   0.395  0.1925 -0.1035  0.2054
 7201TIP3    H243095   1.763   1.387   0.246 -0.3699  0.1967  0.1481
 7202TIP3   OH243096   3.533   6.560   4.060 -0.5278  0.3669 -0.4736
 7202TIP3    H143097   3.622   6.593   4.071  0.3140 -2.4216  1.3609
 7202TIP3    H243098   3.542   6.484   4.004 -1.6715 -0.3500  0.2956
 7203TIP3   OH243099   3.600   0.295  13.588 -0.1558 -0.2590  0.0509
 7203TIP3    H143100   3.607   0.214  13.536  0.2595 -0.5731  0.5903
 7203TIP3    H243101   3.652   0.278  13.666  0.1409  0.6344  0.0498
 7204TIP3   OH243102   0.685   3.340   5.712  0.1471  0.4895  0.6104
 7204TIP3    H143103   0.643   3.423   5.694 -0.9503  0.2907  2.2097
 7204TIP3    H243104   0.767   3.363   5.756 -0.2960  0.7075  1.3176
 7205TIP3   OH243105   1.183   1.467   0.042 -0.3171  0.4249 -0.3301
 7205TIP3    H143106   1.231   1.387   0.024 -0.8728  0.0560 -0.1756
 7205TIP3    H243107   1.235   1.536   0.001  1.3336  0.2756  1.4914
 7206TIP3   OH243108   2.806   2.142  13.768  0.2994  0.3157 -0.1808
 7206TIP3    H143109   2.843   2.058  13.793  1.4834  0.7410 -0.4838
 7206TIP3    H243110   2.793   2.188  13.851 -1.1137 -0.4671  0.0454
 7207TIP3   OH243111   1.899   1.889   3.558  0.3326 -0.0814  0.4690
 7207TIP3    H143112   1.807   1.862   3.563  0.4761 -0.6703 -0.1300
 7207TIP3    H243113   1.914   1.906   3.465  0.0159  2.8465  0.8970
 7208TIP3   OH243114   4.983   2.790   0.439 -0.4672  0.4664  0.3978
 7208TIP3    H143115   5.006   2.702   0.469 -1.7707 -0.3844 -0.9806
 7208TIP3    H243116   4.950   2.834   0.517 -0.5694 -0.5438  0.9353
 7209TIP3   OH243117   1.399   0.682  15.454 -0.5046  0.4107  0.1906
 7209TIP3    H143118   1.452   0.762  15.453 -1.0649  0.7783  0.0331
 7209TIP3    H243119   1.429   0.634  15.531 -0.1094  0.7329  0.2373
 7210TIP3   OH243120   6.741   4.474  16.694 -0.0418  0.1151  0.3260
 7210TIP3    H143121   6.721   4.381  16.709  0.0152  0.3006  1.6401
 7210TIP3    H243122   6.687   4.521  16.757 -0.6715  1.0365 -0.8824
 7211TIP3   OH243123   3.496   6.333  15.375  0.7298 -0.3695 -0.5366
 7211TIP3    H143124   3.524   6.248  15.339  3.2571 -0.7056  2.0227
 7211TIP3    H243125   3.573   6.389  15.365 -0.5016  1.2535 -1.0317
 7212TIP3   OH243126   0.608   0.080   5.742  0.3207  0.1894 -0.7744
 7212TIP3    H143127   0.608  -0.014   5.761  1.5308  0.5707  1.3084
 7212TIP3    H243128   0.517   0.107   5.752  0.2303 -0.4691  0.2714
 7213TIP3   OH243129   2.730   4.020  15.020 -0.5910 -0.1105  0.3753
 7213TIP3    H143130   2.817   4.042  14.988 -0.3028  1.4582  2.1753
 7213TIP3    H243131   2.705   3.943  14.969  2.1667 -1.0891  0.4224
 7214TIP3   OH243132   4.856   3.909  14.169 -0.1894  0.0295 -0.1536
 7214TIP3    H143133   4.899   3.994  14.182 -1.1649  0.4088  0.6609
 7214TIP3    H243134   4.921   3.856  14.123  0.9516  0.7595  0.5865
 7215TIP3   OH243135   0.190   4.712  15.483 -0.3505 -0.2616  0.1906
 7215TIP3    H143136   0.199   4.640  15.420  1.7194 -1.2941  1.6178
 7215TIP3    H243137   0.109   4.692  15.530 -2.3489  0.9452 -2.6066
 7216TIP3   OH243138   0.821   3.328   0.407  0.3758  0.1266 -0.0664
 7216TIP3    H143139   0.804   3.251   0.461  1.4785  0.6742  1.1021
 7216TIP3    H243140   0.884   3.297   0.341  1.2264  0.1437  0.7242
 7217TIP3   OH243141   3.139   3.327   5.323 -0.1513  0.4155 -0.8405
 7217TIP3    H143142   3.066   3.324   5.384 -1.2428  0.5737 -2.1180
 7217TIP3    H243143   3.107   3.282   5.245  2.3935 -2.9120 -0.1098
 7218TIP3   OH243144   1.370   6.606   1.117 -0.4726  0.1840 -0.1267
 7218TIP3    H143145   1.283   6.583   1.085 -1.2074  2.2104  0.3164
 7218TIP3    H243146   1.366   6.701   1.130  1.7371  0.2710  0.0966
 7219TIP3   OH243147   4.316   5.157   3.800 -0.1665 -0.6298  0.4150
 7219TIP3    H143148   4.303   5.083   3.741  0.8013 -0.9505  0.5898
 7219TIP3    H243149   4.396   5.198   3.768 -0.2323 -0.1651  0.8466
 7220TIP3   OH243150   6.410   6.231  11.748  0.0667  0.2139  0.0835
 7220TIP3    H143151   6.440   6.253  11.836 -0.1452  0.5019  0.0832
 7220TIP3    H243152   6.413   6.315  11.700 -0.6512  0.2224  0.0557
 7221TIP3   OH243153   1.070   5.807   0.412 -0.0954  0.3511  0.4457
 7221TIP3    H143154   1.152   5.834   0.453  0.8450  0.2181 -1.3463
 7221TIP3    H243155   1.002   5.836   0.474  1.2673  0.7218  1.7887
 7222TIP3   OH243156   0.755   6.747   0.426  0.4098 -0.0280  0.3853
 7222TIP3    H143157   0.802   6.665   0.408 -0.2211 -0.3570  0.2174
 7222TIP3    H243158   0.680   6.720   0.479  0.2671  0.4594  0.4266
 7223TIP3   OH243159   6.312   3.466  14.796 -0.5476 -0.2147  0.3583
 7223TIP3    H143160   6.406   3.484  14.792 -0.4919 -0.4003  0.8643
 7223TIP3    H243161   6.305   3.380  14.838 -0.9580 -0.0504  0.6344
 7224TIP3   OH243162   0.454   3.098  15.907 -0.0949  0.3457  0.1725
 7224TIP3    H143163   0.372   3.051  15.897 -0.2100  0.5498  0.1493
 7224TIP3    H243164   0.493   3.062  15.987  0.5312 -0.8453 -0.6642
 7225TIP3   OH243165   1.330   3.207   3.863 -0.3922  0.1029 -0.1955
 7225TIP3    H143166   1.297   3.286   3.820  0.9364 -0.3485 -2.0917
 7225TIP3    H243167   1.385   3.239   3.934  1.8062  0.9325 -2.2237
 7226TIP3   OH243168   3.141   6.487  16.184 -0.7082 -0.4723  0.0327
 7226TIP3    H143169   3.229   6.512  16.211  0.8653 -3.2809 -2.1652
 7226TIP3    H243170   3.121   6.546  16.111 -0.4825 -0.0579  0.3032
 7227TIP3   OH243171   2.091   3.467  12.701 -0.1999 -0.0084 -0.1798
 7227TIP3    H143172   2.001   3.482  12.671  0.1793  1.3206 -0.6823
 7227TIP3    H243173   2.144   3.478  12.622  0.6288  1.5268  0.5816
 7228TIP3   OH243174   3.218   1.090   0.248  0.4066 -0.1304 -0.3273
 7228TIP3    H143175   3.303   1.049   0.266 -0.2908 -1.6923 -0.5300
 7228TIP3    H243176   3.228   1.127   0.160  0.3217 -1.8874 -1.1134
 7229TIP3   OH243177   4.048   3.647   5.173  0.0974 -0.1291  0.3522
 7229TIP3    H143178   4.116   3.592   5.213  1.5423  0.9364 -0.6161
 7229TIP3    H243179   4.064   3.641   5.079 -2.5377 -1.6410 -0.0434
 7230TIP3   OH243180   4.673   1.052   3.708  0.3633 -0.3481 -0.7086
 7230TIP3    H143181   4.715   1.138   3.703 -1.6793  0.6833 -0.5589
 7230TIP3    H243182   4.744   0.992   3.730  1.5133  1.5489  0.8816
 7231TIP3   OH243183   2.888   6.669  17.264  0.4424 -0.7696  0.4292
 7231TIP3    H143184   2.960   6.684  17.203  0.5332  0.9771  0.9327
 7231TIP3    H243185   2.923   6.695  17.350 -0.9185  0.5677  0.6079
 7232TIP3   OH243186   1.295   5.290   1.390 -0.0537 -0.5456  0.4039
 7232TIP3    H143187   1.254   5.295   1.303 -1.7210  0.2055  1.2093
 7232TIP3    H243188   1.283   5.378   1.427  2.0378 -0.4061  0.7821
 7233TIP3   OH243189   1.299   2.736   1.755 -0.5845  0.3627  0.3620
 7233TIP3    H143190   1.367   2.784   1.708  1.7005 -1.8648  1.2892
 7233TIP3    H243191   1.331   2.732   1.845 -1.6095 -1.3133  0.6599
 7234TIP3   OH243192   6.465   3.785   5.699 -0.7914 -0.3253  0.0980
 7234TIP3    H143193   6.388   3.818   5.746  0.3891 -0.1190  1.9316
 7234TIP3    H243194   6.450   3.690   5.694 -0.3348 -0.5437  2.1152
 7235TIP3   OH243195   2.094   3.590   1.272 -0.1858 -0.2748 -0.2488
 7235TIP3    H143196   2.121   3.503   1.302 -0.5722 -0.3722 -0.1776
 7235TIP3    H243197   2.015   3.574   1.219  0.2331 -0.0605 -0.9508
 7236TIP3   OH243198   1.395   5.685  15.867  0.2709  0.7038 -0.6828
 7236TIP3    H143199   1.388   5.777  15.893 -0.6106  0.2967  0.5416
 7236TIP3    H243200   1.486   5.662  15.886  0.2222  1.0356 -0.0377
 7237TIP3   OH243201   3.121   5.761  16.271 -0.5663 -0.2422 -0.7686
 7237TIP3    H143202   3.201   5.730  16.315 -0.9516  0.4899  0.4611
 7237TIP3    H243203   3.122   5.716  16.186  1.8231  0.7513 -1.2978
 7238TIP3   OH243204   5.664   2.991   2.462 -0.6179 -0.0310 -0.2861
 7238TIP3    H143205   5.627   2.959   2.380 -0.9801  0.4327 -0.3062
 7238TIP3    H243206   5.588   3.005   2.519 -0.3046 -1.3210  0.4860
 7239TIP3   OH243207   4.039   6.689   3.721 -0.1968  0.1262  0.0919
 7239TIP3    H143208   4.050   6.745   3.797 -3.1914  0.9965 -0.0912
 7239TIP3    H243209   4.112   6.626   3.727  0.9082  1.5763  2.3935
 7240TIP3   OH243210   4.642   5.417   0.404 -0.1321  0.1632 -0.0727
 7240TIP3    H143211   4.552   5.385   0.408 -0.3124  0.6971  0.1839
 7240TIP3    H243212   4.650   5.459   0.319 -0.0936  0.0293 -0.1359
 7241TIP3   OH243213   6.004   1.998  13.308 -0.2067 -0.4972  0.5242
 7241TIP3    H143214   5.926   2.053  13.317 -0.3523 -0.8851  1.7853
 7241TIP3    H243215   6.077   2.057  13.327  0.1290  0.8046 -4.3141
 7242TIP3   OH243216   5.010   2.099  11.834 -0.7511  0.1513  0.4234
 7242TIP3    H143217   4.957   2.116  11.756  1.4087 -1.2806 -1.4484
 7242TIP3    H243218   4.995   2.007  11.854  0.4667 -0.0847  0.2936
 7243TIP3   OH243219   3.137   5.445  13.979  0.3842  0.0720 -0.2789
 7243TIP3    H143220   3.225   5.420  14.006  0.6086 -0.2529 -1.2803
 7243TIP3    H243221   3.116   5.384  13.908 -0.0424  1.1121 -1.0636
 7244TIP3   OH243222   5.100   1.414   6.221 -0.0446  0.3299 -0.3964
 7244TIP3    H143223   5.157   1.351   6.178  0.6538  1.1726 -0.7149
 7244TIP3    H243224   5.074   1.474   6.151 -0.9940  0.1972 -0.1673
 7245TIP3   OH243225   3.910   4.203   5.673  0.7270 -0.4135 -0.2051
 7245TIP3    H143226   3.869   4.160   5.748 -0.5603 -0.0226 -0.6693
 7245TIP3    H243227   3.911   4.137   5.604  1.2784 -0.5557 -0.0639
 7246TIP3   OH243228   1.485   1.274  12.624 -0.2085 -0.3097 -0.3687
 7246TIP3    H143229   1.402   1.251  12.581  0.2865 -1.4237 -0.7392
 7246TIP3    H243230   1.551   1.263  12.555  0.4259 -0.8328  0.3191
 7247TIP3   OH243231   6.054   3.571  15.375 -0.3893 -0.5138 -0.6166
 7247TIP3    H143232   5.972   3.532  15.344 -0.0274 -0.7394 -1.3117
 7247TIP3    H243233   6.109   3.496  15.398  0.0106 -0.4039 -1.1804
 7248TIP3   OH243234   5.304   1.357   0.660 -0.1358  0.0840  0.5300
 7248TIP3    H143235   5.275   1.430   0.715 -0.8373 -0.1228  0.4325
 7248TIP3    H243236   5.254   1.366   0.579  0.1148 -0.2386  0.3369
 7249TIP3   OH243237   1.500   5.438   2.591 -0.4999  0.6920 -0.1398
 7249TIP3    H143238   1.525   5.358   2.637 -0.9084  0.0822 -0.9731
 7249TIP3    H243239   1.582   5.475   2.558 -0.2414  0.9553  0.7776
 7250TIP3   OH243240   3.860   2.165   4.376 -0.0245 -0.1970 -0.5416
 7250TIP3    H143241   3.844   2.216   4.456 -1.4032  0.2864 -1.1239
 7250TIP3    H243242   3.833   2.076   4.399 -1.2831  0.1258 -0.7500
 7251TIP3   OH243243   4.260   6.382  12.100  0.3310 -0.0973 -0.7983
 7251TIP3    H143244   4.354   6.369  12.089  0.4170  1.2436 -1.8667
 7251TIP3    H243245   4.221   6.348  12.020  0.1564  1.6661 -1.4998
 7252TIP3   OH243246   3.766   1.582  13.378  0.3269  0.4587 -0.1132
 7252TIP3    H143247   3.855   1.586  13.341  0.2226  0.8002 -0.3316
 7252TIP3    H243248   3.779   1.551  13.468  0.8472  2.2475  0.4507
 7253TIP3   OH243249   4.569   5.782   0.061 -0.1522 -0.1180  0.0212
 7253TIP3    H143250   4.555   5.866   0.104 -0.3544  2.2847 -4.4832
 7253TIP3    H243251   4.482   5.755   0.031  0.4945  0.2848 -2.3415
 7254TIP3   OH243252   4.772   5.401   2.575  0.2730  0.0929 -0.0414
 7254TIP3    H143253   4.809   5.460   2.509  0.9207 -0.7442 -0.4410
 7254TIP3    H243254   4.829   5.413   2.651  0.5512 -0.1907 -0.2030
 7255TIP3   OH243255   6.813   5.813   4.663 -0.0171 -0.5288 -0.0631
 7255TIP3    H143256   6.903   5.795   4.634  0.3939 -0.5364  1.1570
 7255TIP3    H243257   6.806   5.908   4.663  0.4743 -0.4835  1.2175
 7256TIP3   OH243258   3.327   5.534  14.541  0.5552 -0.2497 -0.0986
 7256TIP3    H143259   3.317   5.618  14.586 -3.4970 -0.0645 -1.1635
 7256TIP3    H243260   3.420   5.513  14.550  1.4365  3.7613  1.1845
 7257TIP3   OH243261   6.550   2.942   4.796  0.1959 -0.2274 -0.1346
 7257TIP3    H143262   6.626   2.924   4.852  1.7856  2.5785 -1.2662
 7257TIP3    H243263   6.588   2.962   4.711 -2.0104 -1.4017 -1.4241
 7258TIP3   OH243264   1.689   6.749   1.265  0.3827  0.1306 -0.2185
 7258TIP3    H143265   1.703   6.666   1.221  2.2959  0.1758  0.2467
 7258TIP3    H243266   1.595   6.752   1.284  0.4520 -2.3683  0.6236
 7259TIP3   OH243267   3.978   1.941  14.109 -0.2839  0.1096  0.4008
 7259TIP3    H143268   3.919   1.867  14.116 -0.3070 -0.0128 -0.9606
 7259TIP3    H243269   3.923   2.012  14.075  0.6394 -0.4106 -2.3080
 7260TIP3   OH243270   3.133   5.232   1.970 -0.3385 -0.2711 -0.5611
 7260TIP3    H143271   3.090   5.273   1.895 -0.3068  0.0565 -0.4038
 7260TIP3    H243272   3.149   5.142   1.943  1.2987  0.3265 -1.6219
 7261TIP3   OH243273   1.892   4.628   4.227  0.4503  0.2464  0.2052
 7261TIP3    H143274   1.850   4.545   4.252  1.3359  0.0634  1.1235
 7261TIP3    H243275   1.847   4.694   4.278  0.8333  0.1348  0.6836
 7262TIP3   OH243276   3.483   0.946  16.985 -0.0905  0.4738  0.1501
 7262TIP3    H143277   3.415   0.879  16.976 -0.0734  0.6749 -1.7695
 7262TIP3    H243278   3.436   1.029  16.983 -0.1031  0.5326  2.4419
 7263TIP3   OH243279   2.791   5.355  11.083 -0.2166  0.1183 -0.6354
 7263TIP3    H143280   2.762   5.330  10.996  0.9435  1.2789 -1.3712
 7263TIP3    H243281   2.835   5.278  11.117  0.8637  0.2153 -1.7773
 7264TIP3   OH243282   2.932   1.608  11.187 -0.1056  0.2047 -0.2675
 7264TIP3    H143283   2.896   1.656  11.113 -1.5393 -0.1183  0.2188
 7264TIP3    H243284   2.944   1.519  11.154 -0.1349  0.2120 -0.2982
 7265TIP3   OH243285   1.552   2.001  16.492  0.1212  0.3861 -0.4067
 7265TIP3    H143286   1.477   2.030  16.543 -0.2826 -2.4838  0.7357
 7265TIP3    H243287   1.514   1.954  16.418  0.7789  1.5546 -1.5138
 7266TIP3   OH243288   6.349   2.643  15.021 -0.1461  0.4869 -0.1873
 7266TIP3    H143289   6.309   2.676  14.940 -0.4016 -0.2098 -0.3464
 7266TIP3    H243290   6.307   2.558  15.036  2.4189 -1.0254 -1.2596
 7267TIP3   OH243291   5.342   0.365   0.605 -0.0813  0.3265  0.2865
 7267TIP3    H143292   5.418   0.358   0.663  1.5617  0.0652 -1.8396
 7267TIP3    H243293   5.351   0.291   0.546 -3.4628 -1.2426  1.6480
 7268TIP3   OH243294   5.540   6.539  15.815  0.1857  0.3824  0.7815
 7268TIP3    H143295   5.466   6.521  15.755  0.3555  0.7189  0.4671
 7268TIP3    H243296   5.565   6.629  15.795  1.9572 -0.3760 -0.4912
 7269TIP3   OH243297   3.625   6.360   4.947 -0.1870  0.0186  0.2194
 7269TIP3    H143298   3.573   6.413   4.886 -1.1019  0.6716  1.5249
 7269TIP3    H243299   3.643   6.279   4.900  1.5976  1.6385 -1.9878
 7270TIP3   OH243300   2.915   1.624  11.819 -0.2047 -0.1702  0.3693
 7270TIP3    H143301   2.929   1.531  11.804 -0.7666 -0.2441  0.3137
 7270TIP3    H243302   2.895   1.631  11.912  0.3564 -0.0435  0.4837
 7271TIP3   OH243303   2.537   0.945   0.575  0.7438  0.9782  0.6505
 7271TIP3    H143304   2.567   0.943   0.666 -0.9242  0.7268  1.2101
 7271TIP3    H243305   2.608   0.903   0.526  1.2519  0.2599  1.9528
 7272TIP3   OH243306   2.127   3.181  15.197  0.1731 -0.5198  0.0307
 7272TIP3    H143307   2.168   3.123  15.133  0.8694  1.2073 -1.1224
 7272TIP3    H243308   2.070   3.238  15.144  1.0731  1.2083  0.8594
 7273TIP3   OH243309   2.097   4.990  15.557 -0.3299  0.2199 -0.1786
 7273TIP3    H143310   2.131   5.078  15.576 -0.5351  0.4745 -0.9832
 7273TIP3    H243311   2.159   4.931  15.600 -0.4392  0.7652  0.7538
 7274TIP3   OH243312   1.664   2.527   2.487  0.5050 -0.2783  0.3388
 7274TIP3    H143313   1.607   2.596   2.522  1.4928  0.6810  0.0882
 7274TIP3    H243314   1.753   2.560   2.502  1.0101 -1.8854  0.9741
 7275TIP3   OH243315   1.647   2.106   3.120 -0.4106  0.4315  0.1244
 7275TIP3    H143316   1.718   2.056   3.080  0.1979  0.6826  0.8846
 7275TIP3    H243317   1.594   2.041   3.166 -0.0584  0.3776  0.4586
 7276TIP3   OH243318   3.622   0.959  13.976 -0.4476 -0.1350  0.5851
 7276TIP3    H143319   3.708   0.999  13.964 -0.5869  0.3661  1.2849
 7276TIP3    H243320   3.635   0.894  14.045 -0.2931 -1.1109 -0.3324
 7277TIP3   OH243321   6.812   5.562  15.718 -0.2687 -0.1070 -0.3327
 7277TIP3    H143322   6.738   5.517  15.758 -0.0483 -0.8391 -0.7482
 7277TIP3    H243323   6.796   5.655  15.735 -2.3003 -0.1017 -2.1148
 7278TIP3   OH243324   4.016   6.297  16.992 -0.7944 -0.0317  0.3874
 7278TIP3    H143325   4.111   6.292  16.998 -0.9172 -0.1141  2.6678
 7278TIP3    H243326   3.985   6.235  17.058 -2.4351  0.0288 -0.3102
 7279TIP3   OH243327   3.910   5.338  16.966  1.0537 -0.0780 -0.6516
 7279TIP3    H143328   3.924   5.319  17.058 -0.0645 -0.4638 -0.5478
 7279TIP3    H243329   3.845   5.408  16.965  3.1289  1.8994 -1.0950
 7280TIP3   OH243330   3.539   6.357  16.297  0.3154 -0.0569 -0.4595
 7280TIP3    H143331   3.494   6.439  16.280  1.0631  0.5485  0.4685
 7280TIP3    H243332   3.497   6.321  16.375 -0.7627 -1.1242 -1.4970
 7281TIP3   OH243333   3.997   6.271   5.182  0.1276 -0.3146 -0.0345
 7281TIP3    H143334   3.928   6.328   5.214 -0.1205 -0.9744  0.6284
 7281TIP3    H243335   3.951   6.203   5.133  0.2779 -0.8546  0.5560
 7282TIP3   OH243336   4.426   6.457  14.492 -0.5982 -0.4855 -0.1789
 7282TIP3    H143337   4.443   6.525  14.427  0.8203 -0.5065  0.1545
 7282TIP3    H243338   4.384   6.386  14.442 -1.4822  0.3556 -0.6437
 7283TIP3   OH243339   0.286   1.335   5.769 -0.2328 -0.1102  0.0270
 7283TIP3    H143340   0.203   1.380   5.755  0.6715  1.2107 -1.1932
 7283TIP3    H243341   0.262   1.256   5.818 -2.5320 -1.0478 -2.4755
 7284TIP3   OH243342   0.628   4.268   4.324 -0.3355 -0.0469  0.4368
 7284TIP3    H143343   0.629   4.216   4.243  0.2941  1.3625 -0.4801
 7284TIP3    H243344   0.556   4.232   4.375 -1.7700  0.0878 -1.4517
 7285TIP3   OH243345   5.792   5.049   4.889  0.4385 -0.6843  0.1496
 7285TIP3    H143346   5.756   5.014   4.808  1.3121 -1.8508  0.2542
 7285TIP3    H243347   5.885   5.061   4.871  0.8299 -1.8715  1.2679
 7286TIP3   OH243348   0.659   3.260  16.241 -0.2814 -0.5297 -0.5729
 7286TIP3    H143349   0.621   3.308  16.315 -1.5757  1.3489 -2.4343
 7286TIP3    H243350   0.753   3.259  16.260 -0.5761  0.0664  1.0013
 7287TIP3   OH243351   1.364   6.340   1.233 -0.0530 -0.2410  0.0618
 7287TIP3    H143352   1.369   6.259   1.183  0.6689  0.4878 -1.0700
 7287TIP3    H243353   1.366   6.409   1.166 -1.2958  0.6917  0.9648
 7288TIP3   OH243354   2.776   6.016   3.222 -0.0332  0.2228  0.2894
 7288TIP3    H143355   2.743   5.928   3.204 -0.1694  0.3337 -0.0142
 7288TIP3    H243356   2.824   6.040   3.143 -0.9348  0.8570 -0.0744
 7289TIP3   OH243357   1.396   1.975   6.692  0.0799  0.6847 -0.4981
 7289TIP3    H143358   1.438   2.055   6.661 -1.2098  1.9203  0.8827
 7289TIP3    H243359   1.314   1.970   6.643  0.4327 -0.1078 -1.0083
 7290TIP3   OH243360   6.513   6.280   3.285 -0.3039  0.3530 -0.4155
 7290TIP3    H143361   6.423   6.263   3.313 -0.0735  0.9210  0.7089
 7290TIP3    H243362   6.553   6.194   3.276 -1.5145  0.0180 -2.8120
 7291TIP3   OH243363   3.422   3.513  11.202  0.1269  0.1651 -0.8505
 7291TIP3    H143364   3.442   3.537  11.111  0.6217  0.2188 -0.7284
 7291TIP3    H243365   3.480   3.439  11.221  0.3407  0.4389 -0.4354
 7292TIP3   OH243366   6.106   1.741   1.483 -0.1089 -0.1524 -0.1580
 7292TIP3    H143367   6.098   1.817   1.540  1.7336 -0.1761  0.1622
 7292TIP3    H243368   6.192   1.751   1.441  0.1814 -2.0529 -0.0813
 7293TIP3   OH243369   1.435   5.928  15.996  0.8961 -0.0080  0.2784
 7293TIP3    H143370   1.426   6.022  15.984  0.6738 -0.0365  0.1970
 7293TIP3    H243371   1.440   5.915  16.091 -0.1481  0.0039  0.3459
 7294TIP3   OH243372   2.163   0.461  12.169  0.2214 -0.3502 -0.0943
 7294TIP3    H143373   2.097   0.527  12.191 -0.4045 -0.1085 -2.5489
 7294TIP3    H243374   2.150   0.444  12.076  3.6037 -0.3341 -0.6397
 7295TIP3   OH243375   3.789   5.461   0.108  0.3464  0.6231 -0.4772
 7295TIP3    H143376   3.760   5.448   0.198  0.2993  2.1743 -0.2552
 7295TIP3    H243377   3.711   5.491   0.061 -0.3252 -2.7928 -1.6961
 7296TIP3   OH243378   3.120   0.276  16.081 -0.6715 -0.0100  0.1476
 7296TIP3    H143379   3.040   0.236  16.116  0.8038 -1.5920  1.8250
 7296TIP3    H243380   3.137   0.227  16.000 -0.6477 -0.6000  0.5093
 7297TIP3   OH243381   0.247   5.274   0.634 -0.7079 -0.0415 -0.5277
 7297TIP3    H143382   0.197   5.200   0.667  1.0768 -0.4706  1.2902
 7297TIP3    H243383   0.185   5.347   0.631 -1.5412 -0.6739  1.2780
 7298TIP3   OH243384   2.794   0.267   0.667 -0.0988  0.1196  0.3327
 7298TIP3    H143385   2.779   0.361   0.664 -0.7333 -0.0036 -0.5184
 7298TIP3    H243386   2.889   0.257   0.666 -0.0424  0.7275 -0.5000
 7299TIP3   OH243387   1.301   6.282   0.758  0.3093 -0.2893  0.0563
 7299TIP3    H143388   1.334   6.334   0.685  1.1449 -0.4798  0.2818
 7299TIP3    H243389   1.272   6.200   0.718 -2.1671  0.8092 -0.4617
 7300TIP3   OH243390   2.989   1.317   2.937 -0.2587  0.3175  0.1131
 7300TIP3    H143391   3.055   1.255   2.905  0.2261 -0.9161  3.3489
 7300TIP3    H243392   2.939   1.340   2.859  0.9491 -2.4444 -1.5689
 7301TIP3   OH243393   0.477   2.886  12.792  0.7364  0.1060  0.4609
 7301TIP3    H143394   0.545   2.882  12.859  0.6875 -0.2615  0.4916
 7301TIP3    H243395   0.403   2.929  12.835  0.0646 -1.7333  1.2171
 7302TIP3   OH243396   3.886   0.945   1.201 -0.8327 -0.1335  0.1993
 7302TIP3    H143397   3.929   0.874   1.248  0.2258  0.2905 -0.1225
 7302TIP3    H243398   3.794   0.937   1.225 -0.3675 -0.1847  1.9775
 7303TIP3   OH243399   6.239   3.057   6.221 -0.5023  0.2097 -0.3874
 7303TIP3    H143400   6.309   3.091   6.277 -1.1613  0.5144  0.2633
 7303TIP3    H243401   6.183   3.133   6.205  0.2943  0.4024 -2.4189
 7304TIP3   OH243402   4.552   5.483  11.332 -0.2201  0.0812 -0.3553
 7304TIP3    H143403   4.622   5.470  11.396 -1.2103  2.1143  1.1933
 7304TIP3    H243404   4.524   5.395  11.308  2.4451 -0.7668 -0.5623
 7305TIP3   OH243405   0.738   3.768   3.881  0.0529  0.3161 -0.0625
 7305TIP3    H143406   0.746   3.707   3.954 -0.8702 -1.4281 -1.3910
 7305TIP3    H243407   0.654   3.812   3.895  0.7400  1.3473  0.9182
 7306TIP3   OH243408   0.959   5.246   3.375  1.0016  0.2131 -0.1021
 7306TIP3    H143409   0.977   5.306   3.448  1.5517 -0.8339  0.6247
 7306TIP3    H243410   0.934   5.164   3.416 -0.6654  0.1920 -1.1056
 7307TIP3   OH243411   5.623   4.272   4.055 -0.3010  0.8784  0.4344
 7307TIP3    H143412   5.562   4.345   4.070  0.7866  1.9673 -0.3647
 7307TIP3    H243413   5.621   4.259   3.960 -0.0112  0.2841  0.5101
 7308TIP3   OH243414   0.089   4.508  15.894 -0.1740 -0.2412 -0.7381
 7308TIP3    H143415   0.062   4.416  15.896  1.1467 -0.6113  1.2534
 7308TIP3    H243416   0.053   4.545  15.974 -0.8217  1.0425 -1.6023
 7309TIP3   OH243417   2.739   1.582   2.869  0.3115  0.0494  0.1628
 7309TIP3    H143418   2.727   1.575   2.964 -1.9418  0.0547 -0.0818
 7309TIP3    H243419   2.802   1.653   2.858 -1.9905  2.4350  1.5832
 7310TIP3   OH243420   5.523   4.694   3.648 -0.5605  0.6168 -0.1916
 7310TIP3    H143421   5.609   4.658   3.670 -0.3995  0.9614 -0.2517
 7310TIP3    H243422   5.463   4.654   3.711 -0.4957 -0.2941 -0.7118
 7311TIP3   OH243423   5.776   6.063  11.603 -0.1695  0.1502 -0.0382
 7311TIP3    H143424   5.694   6.072  11.651 -0.7062 -1.1610 -0.6907
 7311TIP3    H243425   5.794   6.150  11.570 -1.4455  0.3986 -0.1125
 7312TIP3   OH243426   3.890   6.015  13.039 -0.0940 -0.2950  0.0105
 7312TIP3    H143427   3.830   5.960  13.090 -0.3086 -0.6327 -0.6038
 7312TIP3    H243428   3.925   6.077  13.103 -1.4978  0.2412  0.2687
 7313TIP3   OH243429   6.027   1.369  17.101  0.2137  0.1070  0.6956
 7313TIP3    H143430   5.934   1.350  17.108  0.4967 -0.8238  2.3301
 7313TIP3    H243431   6.066   1.330  17.180  1.6570  2.4862  1.2606
 7314TIP3   OH243432   6.278   1.312  17.278  0.0440  0.7210  0.2748
 7314TIP3    H143433   6.268   1.265  17.195  0.0078  1.4279 -0.1261
 7314TIP3    H243434   6.367   1.347  17.275  0.3504  0.0127  0.9243
 7315TIP3   OH243435   2.402   5.679   5.444  0.0130 -0.0409 -0.2029
 7315TIP3    H143436   2.460   5.751   5.470 -1.0647  1.2445 -1.2688
 7315TIP3    H243437   2.457   5.601   5.449  1.6126  1.0433 -0.4465
 7316TIP3   OH243438   3.151   2.934   3.394 -0.6588  0.0372 -0.0642
 7316TIP3    H143439   3.177   3.026   3.396  1.1110 -0.4448 -0.2906
 7316TIP3    H243440   3.055   2.936   3.398 -0.5684  1.8099  2.0194
 7317TIP3   OH243441   0.143   5.913   3.498  0.3404 -0.0297  0.1323
 7317TIP3    H143442   0.113   5.977   3.563  1.5755 -0.2964  0.9716
 7317TIP3    H243443   0.174   5.967   3.425  1.1764  0.3388  0.7479
 7318TIP3   OH243444   6.421   4.933  14.676 -0.6100 -0.3818  0.5185
 7318TIP3    H143445   6.408   4.936  14.581  3.3333  0.9803 -0.0635
 7318TIP3    H243446   6.461   4.847  14.691 -0.4431 -0.2448  0.8399
 7319TIP3   OH243447   5.858   6.282   6.036  0.3503  0.4049  0.5001
 7319TIP3    H143448   5.841   6.192   6.008 -2.2671  1.2515 -0.7036
 7319TIP3    H243449   5.846   6.280   6.131 -2.6966  0.1031  0.1472
 7320TIP3   OH243450   5.121   4.215  12.589  0.1215  0.3592 -0.1367
 7320TIP3    H143451   5.028   4.210  12.612  0.3389 -0.5015  0.5967
 7320TIP3    H243452   5.124   4.194  12.496 -0.2532 -1.3275  0.2191
 7321TIP3   OH243453   3.432   4.097   5.384 -0.9358  0.0651  0.1068
 7321TIP3    H143454   3.383   4.173   5.352 -0.5476 -0.1296 -0.9907
 7321TIP3    H243455   3.434   4.037   5.310  0.5465 -0.1239  0.2860
 7322TIP3   OH243456   4.571   2.675  11.274 -0.1925 -0.1927  0.3024
 7322TIP3    H143457   4.601   2.627  11.351  0.4288  2.1628  1.5623
 7322TIP3    H243458   4.649   2.688  11.221 -0.5063 -1.2279 -0.4502
 7323TIP3   OH243459   5.140   1.395   2.035 -0.2966  0.5923  0.4868
 7323TIP3    H143460   5.071   1.379   2.100 -0.6658  1.9442  0.4453
 7323TIP3    H243461   5.221   1.395   2.086 -0.5293  1.0600  0.8664
 7324TIP3   OH243462   4.395   4.349  11.903 -0.3828 -0.4212 -0.5876
 7324TIP3    H143463   4.361   4.259  11.903 -0.0969 -0.5715 -2.6495
 7324TIP3    H243464   4.344   4.393  11.834  0.8833  0.4254 -1.0029
 7325TIP3   OH243465   6.508   3.512  16.210  0.6722  0.1630  0.4556
 7325TIP3    H143466   6.543   3.436  16.258 -0.5682  0.6553  2.1656
 7325TIP3    H243467   6.585   3.552  16.170  1.2874 -2.2861 -0.9121
 7326TIP3   OH243468   1.630   6.341   4.227 -0.2454 -0.1173 -0.1943
 7326TIP3    H143469   1.592   6.392   4.298 -0.4734 -2.3984  1.3569
 7326TIP3    H243470   1.568   6.349   4.155 -2.5183 -1.8898  1.5313
 7327TIP3   OH243471   3.568   3.463   2.973  0.4983 -0.1808 -0.0802
 7327TIP3    H143472   3.601   3.418   2.896  1.1799  0.3519 -0.1077
 7327TIP3    H243473   3.510   3.531   2.938  1.7266  0.8177 -0.1855
 7328TIP3   OH243474   0.577   6.126   3.044  0.6513  0.4234 -0.3761
 7328TIP3    H143475   0.587   6.115   2.949 -0.3027  1.6399 -0.6202
 7328TIP3    H243476   0.651   6.182   3.069  1.1923 -0.3082 -0.3107
 7329TIP3   OH243477   5.428   1.441   1.194  0.1098 -0.1781 -0.7038
 7329TIP3    H143478   5.493   1.472   1.257 -0.5822 -2.5821  1.2807
 7329TIP3    H243479   5.377   1.519   1.173  2.1138  1.2490 -0.4765
 7330TIP3   OH243480   3.686   3.396  12.397 -0.5115  0.0495  0.3932
 7330TIP3    H143481   3.736   3.329  12.351 -1.6091  0.9427 -2.1964
 7330TIP3    H243482   3.751   3.444  12.448  1.0383  0.1436 -1.5964
 7331TIP3   OH243483   6.501   2.694   0.599 -0.0726  0.0176 -0.5227
 7331TIP3    H143484   6.538   2.765   0.547 -0.7659  0.6442 -0.1688
 7331TIP3    H243485   6.501   2.727   0.689 -0.3173 -0.4537 -0.3474
 7332TIP3   OH243486   4.608   4.426   4.195  0.2109  0.6021 -0.1071
 7332TIP3    H143487   4.570   4.513   4.183  2.1952  1.2314 -2.1509
 7332TIP3    H243488   4.542   4.366   4.159  0.2485  1.5243 -1.7593
 7333TIP3   OH243489   3.376   5.043  16.963  0.3748 -0.1110 -0.0826
 7333TIP3    H143490   3.282   5.056  16.945  0.8738 -0.4629 -3.3519
 7333TIP3    H243491   3.378   4.974  17.029 -1.6933  0.1737  0.3318
 7334TIP3   OH243492   4.774   3.823  15.518  0.2245  0.4061 -0.4947
 7334TIP3    H143493   4.757   3.746  15.464  0.8716 -0.1235  0.0530
 7334TIP3    H243494   4.750   3.897  15.462 -1.9485 -0.2408 -0.4580
 7335TIP3   OH243495   4.541   1.412   3.695 -0.1861  0.4947  0.2551
 7335TIP3    H143496   4.459   1.441   3.654  0.1632  2.1248  0.6533
 7335TIP3    H243497   4.536   1.446   3.784  0.1133 -0.9833  0.8490
 7336TIP3   OH243498   6.178   2.084   4.324 -0.1564 -0.1748  0.3584
 7336TIP3    H143499   6.255   2.026   4.323 -0.9844 -1.3097 -1.1722
 7336TIP3    H243500   6.182   2.129   4.408  1.8285 -0.7009  0.5698
 7337TIP3   OH243501   0.002   1.714  14.343  0.1878 -0.8736 -0.1865
 7337TIP3    H143502   0.059   1.641  14.320 -0.2982 -1.9306  1.8843
 7337TIP3    H243503  -0.085   1.675  14.355  0.4611 -0.4745  3.6238
 7338TIP3   OH243504   4.812   5.197  16.112  0.2527  0.3661  0.1591
 7338TIP3    H143505   4.886   5.137  16.124  0.1086  0.3905  1.1640
 7338TIP3    H243506   4.736   5.145  16.137 -0.1307  0.1824 -1.3466
 7339TIP3   OH243507   6.208   0.010  12.304  0.4086 -0.3245 -0.0612
 7339TIP3    H143508   6.134  -0.051  12.304  1.5508 -1.7303 -0.5137
 7339TIP3    H243509   6.191   0.069  12.378 -2.9608  1.6180 -2.2674
 7340TIP3   OH243510   5.548   6.587   0.534 -0.0136  0.6710  0.0624
 7340TIP3    H143511   5.638   6.615   0.518 -0.3535  1.1076 -1.1588
 7340TIP3    H243512   5.502   6.668   0.559  0.5743 -0.0294  3.7795
 7341TIP3   OH243513   2.907   2.531   2.145  0.0258 -0.1765 -0.2797
 7341TIP3    H143514   2.938   2.512   2.057 -1.3200  0.2474 -0.8495
 7341TIP3    H243515   2.820   2.569   2.133 -0.4041 -0.6250  1.2560
 7342TIP3   OH243516   4.196   3.810  13.665 -0.6224 -0.4435 -0.0427
 7342TIP3    H143517   4.214   3.749  13.593  0.5145 -1.2332  0.8934
 7342TIP3    H243518   4.101   3.819  13.665 -0.5888  0.2608 -2.2036
 7343TIP3   OH243519   5.841   2.675  15.188  0.1591  0.5166 -0.0694
 7343TIP3    H143520   5.845   2.600  15.247 -0.9715  1.6816  1.5081
 7343TIP3    H243521   5.914   2.731  15.216  0.1879  0.6358 -0.3813
 7344TIP3   OH243522   6.032   0.911  14.652 -0.4940  0.2205  0.1753
 7344TIP3    H143523   6.093   0.866  14.711  0.2416  1.9244  0.7526
 7344TIP3    H243524   5.945   0.888  14.686 -0.0893  0.7988  1.6535
 7345TIP3   OH243525   4.182   6.361   2.609 -0.1978 -0.5497  0.3415
 7345TIP3    H143526   4.145   6.418   2.542  1.6438 -1.2706 -1.3565
 7345TIP3    H243527   4.134   6.279   2.600 -2.6588  0.5850  2.6003
 7346TIP3   OH243528   2.328   5.186  14.869 -0.1124 -0.2200 -0.8850
 7346TIP3    H143529   2.325   5.228  14.783  0.9490  1.6796 -0.0348
 7346TIP3    H243530   2.418   5.199  14.899  0.0744 -2.5761 -0.2965
 7347TIP3   OH243531   4.185   0.650   4.392  0.3908  0.2107 -0.4377
 7347TIP3    H143532   4.142   0.641   4.306 -0.6875 -1.9013  0.2775
 7347TIP3    H243533   4.216   0.740   4.394 -0.2961  0.5316 -2.7279
 7348TIP3   OH243534   0.998   3.693   3.511  0.1109 -0.7880  0.0488
 7348TIP3    H143535   1.052   3.695   3.432 -1.4007  0.5380 -0.9792
 7348TIP3    H243536   0.919   3.646   3.485 -0.2506 -0.6481  0.8798
 7349TIP3   OH243537   4.219   1.708  17.096 -0.1111  0.1519 -0.5477
 7349TIP3    H143538   4.212   1.689  17.002 -1.4836  2.0895 -0.8821
 7349TIP3    H243539   4.129   1.719  17.125  0.3701  0.9578  0.6900
 7350TIP3   OH243540   2.366   4.679   4.225  0.2268 -0.2994  0.2333
 7350TIP3    H143541   2.327   4.733   4.156  2.5897 -0.4815 -1.2883
 7350TIP3    H243542   2.293   4.626   4.258 -0.8716 -0.4628 -2.3852
 7351TIP3   OH243543   1.823   3.771  16.962  0.3889 -0.3978 -0.0296
 7351TIP3    H143544   1.813   3.837  16.893  0.4696 -0.3791 -0.0246
 7351TIP3    H243545   1.854   3.821  17.038  0.2190 -0.4062  0.0427
 7352TIP3   OH243546   6.591   1.614  14.805 -0.1438 -0.1316  0.6034
 7352TIP3    H143547   6.617   1.536  14.854  0.6539 -0.4923 -0.3680
 7352TIP3    H243548   6.510   1.644  14.848 -0.8389 -1.8821  0.5715
 7353TIP3   OH243549   1.827   2.955   2.983  0.7591  0.8141 -0.2902
 7353TIP3    H143550   1.753   2.985   2.930 -2.4617 -1.7411  2.5579
 7353TIP3    H243551   1.867   2.885   2.931  0.7306  1.6801 -1.5009
 7354TIP3   OH243552   2.904   6.804   6.557  0.0544 -0.5436 -1.0313
 7354TIP3    H143553   2.826   6.789   6.504 -0.3751 -1.9225 -0.0476
 7354TIP3    H243554   2.938   6.889   6.528 -1.0897 -0.5329 -2.3482
 7355TIP3   OH243555   2.923   2.874  15.583 -0.2264  0.4548  0.1822
 7355TIP3    H143556   2.916   2.810  15.653  1.1451  0.0812 -0.0013
 7355TIP3    H243557   2.915   2.823  15.503  1.4383  0.3944  0.0231
 7356TIP3   OH243558   1.238   2.549  16.747 -0.5963 -0.1323  0.0155
 7356TIP3    H143559   1.258   2.479  16.685 -2.9293 -1.0558  0.2455
 7356TIP3    H243560   1.186   2.612  16.697  0.0024  0.5624  0.2665
 7357TIP3   OH243561   2.518   0.413   0.002 -0.0493  0.2208 -0.5041
 7357TIP3    H143562   2.518   0.399  -0.093  1.6963 -0.0678 -0.4741
 7357TIP3    H243563   2.566   0.495   0.014 -1.7749  1.1783  0.0246
 7358TIP3   OH243564   5.113   4.910  12.840 -0.2331 -0.2445 -0.5920
 7358TIP3    H143565   5.191   4.858  12.819 -0.2820 -0.3046 -0.6241
 7358TIP3    H243566   5.103   4.900  12.934 -0.4310 -0.5588 -0.6465
 7359TIP3   OH243567   3.321   1.287  13.254 -0.4415  0.7752  0.2935
 7359TIP3    H143568   3.352   1.363  13.303 -0.9090  0.4252  1.1465
 7359TIP3    H243569   3.230   1.307  13.234 -0.2928  0.8522 -0.3032
 7360TIP3   OH243570   0.932   3.156   3.206  0.0413 -0.6960  0.2286
 7360TIP3    H143571   0.894   3.183   3.290 -4.0835 -2.8936 -0.8017
 7360TIP3    H243572   0.888   3.210   3.141  1.3652 -0.7882 -0.7753
 7361TIP3   OH243573   4.420   4.655  14.604 -0.1193  0.6902 -0.1829
 7361TIP3    H143574   4.368   4.687  14.531 -0.9362  1.4231  0.7085
 7361TIP3    H243575   4.493   4.715  14.610  0.2734  0.2760 -0.7728
 7362TIP3   OH243576   5.935   2.505  14.409 -0.3127  0.4551 -0.3485
 7362TIP3    H143577   5.869   2.471  14.349 -1.1285  0.3556  0.5955
 7362TIP3    H243578   5.899   2.589  14.440  0.1517  0.5608 -0.0868
 7363TIP3   OH243579   6.685   3.832   1.638  0.1214  0.2450 -0.6367
 7363TIP3    H143580   6.645   3.838   1.725 -1.7377  1.1514 -1.5171
 7363TIP3    H243581   6.749   3.761   1.646 -1.0648 -0.6744  1.0794
 7364TIP3   OH243582   1.265   5.869  13.474 -0.0894 -0.1098  0.2652
 7364TIP3    H143583   1.195   5.934  13.461 -0.1526 -0.1896  0.2063
 7364TIP3    H243584   1.262   5.814  13.396  1.3310  1.0795 -0.6560
 7365TIP3   OH243585   3.061   0.389  11.607 -1.0094  0.5700 -0.1741
 7365TIP3    H143586   3.137   0.352  11.563 -0.6106  0.3094  0.7374
 7365TIP3    H243587   3.039   0.326  11.676 -1.6180  0.9894  0.0240
 7366TIP3   OH243588   1.571   4.594  10.998 -0.3586 -0.0233 -0.0826
 7366TIP3    H143589   1.483   4.558  11.010 -1.1857  1.1571 -2.4879
 7366TIP3    H243590   1.629   4.522  11.023 -1.9931 -1.7046 -1.0068
 7367TIP3   OH243591   2.983   1.528  15.712  0.6967  0.5067  0.1439
 7367TIP3    H143592   3.011   1.591  15.778 -0.8333  1.2790  0.0696
 7367TIP3    H243593   2.981   1.577  15.630 -0.3891  0.3319  0.0628
 7368TIP3   OH243594   5.137   0.398   2.555 -0.7827 -0.4684 -0.3853
 7368TIP3    H143595   5.180   0.331   2.608 -1.1370 -0.2086  0.2383
 7368TIP3    H243596   5.177   0.480   2.582 -0.9012 -0.3426 -0.5884
 7369TIP3   OH243597   3.330   2.056   0.467  0.1325 -0.2001  0.1860
 7369TIP3    H143598   3.313   2.087   0.378  1.9100  0.7035  0.1373
 7369TIP3    H243599   3.266   1.986   0.481 -0.5297  0.0314 -1.5992
 7370TIP3   OH243600   5.078   3.838  11.336  0.1746  0.7019 -0.1264
 7370TIP3    H143601   5.161   3.820  11.292 -1.0132 -0.6330 -1.8846
 7370TIP3    H243602   5.060   3.760  11.387 -0.1706  0.8515 -0.0186
 7371TIP3   OH243603   1.012   0.136   1.084  0.0595  0.3520  0.6085
 7371TIP3    H143604   0.927   0.162   1.117 -0.1232  0.1776  0.2746
 7371TIP3    H243605   1.048   0.215   1.044  0.5712  0.7431  1.8226
 7372TIP3   OH243606   6.112   1.905  17.047  0.1827  0.0774 -0.3048
 7372TIP3    H143607   6.029   1.867  17.020  1.5781 -2.7982 -0.8061
 7372TIP3    H243608   6.176   1.835  17.030  2.8491  2.6100 -1.0390
 7373TIP3   OH243609   1.530   1.234  15.522  0.6132  0.0518  0.4550
 7373TIP3    H143610   1.434   1.229  15.526  0.6094 -1.1011 -0.5880
 7373TIP3    H243611   1.552   1.314  15.568 -0.9996  1.4556 -1.1269
 7374TIP3   OH243612   1.601   1.686   5.021  0.3573 -0.0025 -0.3823
 7374TIP3    H143613   1.661   1.760   5.008 -0.6491  0.7695 -0.7393
 7374TIP3    H243614   1.562   1.701   5.108 -0.5967  0.4432 -0.8769
 7375TIP3   OH243615   4.382   2.123  14.938  0.4499  0.4707 -0.1998
 7375TIP3    H143616   4.369   2.059  14.869  1.0648 -0.5432  0.6137
 7375TIP3    H243617   4.314   2.104  15.002 -0.6458  1.9393 -0.8907
 7376TIP3   OH243618   3.758   3.628  17.150 -0.0523  0.1457 -0.5534
 7376TIP3    H143619   3.852   3.642  17.163 -0.0459 -0.4105  0.0640
 7376TIP3    H243620   3.744   3.643  17.057  0.8220 -0.6410 -0.8277
 7377TIP3   OH243621   5.509   3.112   4.328 -0.7765 -0.1769 -0.1249
 7377TIP3    H143622   5.423   3.152   4.342 -0.9666 -0.0825 -1.4423
 7377TIP3    H243623   5.504   3.076   4.239  0.7083  0.2213 -0.3779
 7378TIP3   OH243624   3.656   6.633   2.792 -0.2357 -0.0874  0.3374
 7378TIP3    H143625   3.640   6.592   2.877  1.6101 -1.6434 -0.0386
 7378TIP3    H243626   3.735   6.589   2.759 -0.6081  0.9065 -1.9133
 7379TIP3   OH243627   2.390   3.772  15.153 -0.0407  0.2964 -0.1912
 7379TIP3    H143628   2.389   3.680  15.179  0.0931  0.2302 -0.4154
 7379TIP3    H243629   2.460   3.778  15.089 -0.8416  0.3179 -1.0686
 7380TIP3   OH243630   6.066   6.785   6.467  0.6675  0.4853 -0.0300
 7380TIP3    H143631   6.156   6.793   6.434  1.2504 -1.9130  0.8492
 7380TIP3    H243632   6.014   6.763   6.391  0.8927  1.4457 -0.4692
 7381TIP3   OH243633   0.861   3.979   6.142 -0.0170 -0.5268 -0.1085
 7381TIP3    H143634   0.899   3.899   6.180  0.1476 -0.0145  0.8238
 7381TIP3    H243635   0.931   4.043   6.148 -0.9756  0.3902  1.4811
 7382TIP3   OH243636   6.296   4.984   4.752  0.5068  0.2926  0.1953
 7382TIP3    H143637   6.260   5.072   4.744  2.4582  0.9761 -1.5643
 7382TIP3    H243638   6.369   4.994   4.814  0.2504 -0.2668  0.6006
 7383TIP3   OH243639   2.907   4.415   0.567 -0.1407 -0.6945 -0.0284
 7383TIP3    H143640   2.895   4.373   0.652 -2.5230  1.2457  0.6182
 7383TIP3    H243641   2.866   4.354   0.505 -0.3894 -1.0317  0.4605
 7384TIP3   OH243642   1.903   2.021  11.784 -0.4590 -0.1903  0.2255
 7384TIP3    H143643   1.867   1.947  11.736  1.4462 -0.2863 -1.0744
 7384TIP3    H243644   1.997   2.012  11.776 -0.1480  1.0824  2.0522
 7385TIP3   OH243645   2.604   5.345  14.554 -0.1075 -0.6449  0.2693
 7385TIP3    H143646   2.522   5.304  14.583 -0.6555  0.7299  0.7159
 7385TIP3    H243647   2.596   5.349  14.459 -1.2918  0.9410  0.4119
 7386TIP3   OH243648   3.465   6.063  14.866 -0.4070 -0.6013 -0.5380
 7386TIP3    H143649   3.549   6.052  14.822  0.1007 -0.7023  0.4467
 7386TIP3    H243650   3.448   5.979  14.907 -0.4200 -0.2348  0.2319
 7387TIP3   OH243651   4.732   5.237   4.821 -0.4562 -0.1432 -0.4480
 7387TIP3    H143652   4.752   5.285   4.901  1.1268 -0.0161 -0.8957
 7387TIP3    H243653   4.704   5.151   4.852  2.5196 -0.9408  0.2369
 7388TIP3   OH243654   6.721   5.731  12.607 -0.5937  1.0121 -0.0006
 7388TIP3    H143655   6.811   5.763  12.606 -0.3876  0.4041 -1.1426
 7388TIP3    H243656   6.726   5.645  12.648 -0.5780  0.7311 -0.5979
 7389TIP3   OH243657   1.174   6.457   1.413  0.0609 -0.1541  0.0454
 7389TIP3    H143658   1.121   6.448   1.334 -1.1470 -1.1664  0.9297
 7389TIP3    H243659   1.251   6.403   1.396  0.1739  0.2569 -0.7477
 7390TIP3   OH243660   4.532   1.306  12.673  0.3877 -0.0517 -0.2837
 7390TIP3    H143661   4.587   1.353  12.610 -1.8231  0.5386 -1.8240
 7390TIP3    H243662   4.498   1.231  12.625 -0.4352 -0.2178  0.5410
 7391TIP3   OH243663   2.670   0.283  15.216  0.3320  0.0330 -0.6168
 7391TIP3    H143664   2.602   0.345  15.189  0.5635  0.7562  0.4131
 7391TIP3    H243665   2.752   0.332  15.210  0.7674 -0.7965 -1.7285
 7392TIP3   OH243666   3.424   3.026   0.868 -0.3585 -0.1023 -0.0499
 7392TIP3    H143667   3.436   3.094   0.802  0.0265  0.8586  0.9976
 7392TIP3    H243668   3.489   2.959   0.847  0.0731  0.4170 -0.3680
 7393TIP3   OH243669   0.325   4.800  10.900 -0.2866  0.0264 -0.3436
 7393TIP3    H143670   0.308   4.741  10.973 -0.3429  1.2001  0.6156
 7393TIP3    H243671   0.397   4.759  10.853 -0.8411 -1.1993 -0.1484
 7394TIP3   OH243672   4.233   6.348  12.780  0.4779  0.0830  0.2713
 7394TIP3    H143673   4.253   6.311  12.694  2.7538 -1.7651  1.5117
 7394TIP3    H243674   4.139   6.333  12.791  0.5455 -1.5432 -1.0365
 7395TIP3   OH243675   0.571   5.824   4.463 -0.9568  0.0841  0.3617
 7395TIP3    H143676   0.638   5.769   4.422 -2.1330 -0.5752 -0.7081
 7395TIP3    H243677   0.583   5.910   4.422 -0.0323  0.2677  1.0057
 7396TIP3   OH243678   4.386   6.522  12.926 -0.5875  0.2342  0.2715
 7396TIP3    H143679   4.341   6.467  12.862  0.1672  0.3249 -0.3476
 7396TIP3    H243680   4.474   6.533  12.890 -0.2877  0.6333  1.1225
 7397TIP3   OH243681   1.833   2.642  15.172  0.2024  0.0223  0.6510
 7397TIP3    H143682   1.856   2.656  15.264 -0.8233 -0.7114  1.0287
 7397TIP3    H243683   1.870   2.556  15.151 -2.4497 -1.3317  1.3697
 7398TIP3   OH243684   0.490   6.233   5.045  0.4420  0.3862 -0.2846
 7398TIP3    H143685   0.472   6.165   5.111 -0.9515  0.0054 -1.0353
 7398TIP3    H243686   0.586   6.240   5.043  0.6459 -2.0035 -0.6205
 7399TIP3   OH243687   6.101   5.283  12.383 -0.0311  0.4249 -0.2269
 7399TIP3    H143688   6.134   5.373  12.383 -0.1371  0.4637 -0.5032
 7399TIP3    H243689   6.009   5.291  12.358  0.4538  0.0639 -2.2094
 7400TIP3   OH243690   3.946   4.797   3.703 -0.5547 -0.1311  0.2091
 7400TIP3    H143691   4.003   4.724   3.679 -0.9202 -0.9537  1.7721
 7400TIP3    H243692   3.884   4.759   3.765 -2.0431  1.0394 -0.5183
 7401TIP3   OH243693   5.963   5.076  11.661 -0.0566 -0.1777 -0.3920
 7401TIP3    H143694   5.986   5.137  11.731 -0.6577  1.6145 -1.7307
 7401TIP3    H243695   5.868   5.073  11.662 -0.1367  1.0502 -2.1095
 7402TIP3   OH243696   0.049   6.130   0.441 -0.0918  0.0997  0.3759
 7402TIP3    H143697   0.131   6.102   0.483  0.5257  1.4661  0.0975
 7402TIP3    H243698   0.077   6.188   0.370 -1.1943 -1.0691 -1.0529
 7403TIP3   OH243699   0.296   1.091   3.071  0.3408 -0.1850  0.0721
 7403TIP3    H143700   0.256   1.056   3.151 -1.7309 -0.0389 -0.8510
 7403TIP3    H243701   0.305   1.015   3.013 -1.6397  0.2997 -0.9207
 7404TIP3   OH243702   2.596   3.151   4.030  0.3677  0.0352 -0.1159
 7404TIP3    H143703   2.522   3.189   4.076 -1.0124 -0.0390 -2.2102
 7404TIP3    H243704   2.563   3.131   3.942  1.8950 -3.1753 -0.0397
 7405TIP3   OH243705   5.335   1.189   6.623 -0.4641  0.3450  0.2120
 7405TIP3    H143706   5.388   1.124   6.576 -1.3858 -0.2595 -0.0117
 7405TIP3    H243707   5.379   1.201   6.707 -0.2379 -0.5100  0.2169
 7406TIP3   OH243708   2.531   2.091   5.049  0.1784  0.3744 -0.4230
 7406TIP3    H143709   2.564   2.103   5.138  0.3522 -1.8400 -0.1660
 7406TIP3    H243710   2.476   2.012   5.054  1.1935 -0.4949 -2.5308
 7407TIP3   OH243711   0.910   1.447  11.306 -0.3254  0.5864 -0.0618
 7407TIP3    H143712   0.958   1.372  11.272  2.0976  0.4888  3.3521
 7407TIP3    H243713   0.966   1.523  11.287 -1.6311  1.2653 -1.3252
 7408TIP3   OH243714   4.864   3.953  11.591 -0.1639 -0.5961 -0.4003
 7408TIP3    H143715   4.855   4.047  11.574 -2.3141 -0.6033  0.4678
 7408TIP3    H243716   4.947   3.945  11.638 -0.3841  0.9911  0.2900
 7409TIP3   OH243717   5.368   1.471  11.683  0.2962  0.2828 -0.2511
 7409TIP3    H143718   5.283   1.427  11.686  0.0837  0.7200  0.2222
 7409TIP3    H243719   5.429   1.407  11.721  0.5522 -0.8364 -2.4780
 7410TIP3   OH243720   1.646   1.977   2.097  0.2912 -0.0149  0.3860
 7410TIP3    H143721   1.641   2.070   2.074  2.8362  0.1987  0.5067
 7410TIP3    H243722   1.578   1.965   2.163  0.7416  2.0893  1.3118
 7411TIP3   OH243723   2.503   0.950   4.707  0.5518 -0.9879  0.2107
 7411TIP3    H143724   2.566   1.021   4.711 -0.6796  0.1618 -0.3910
 7411TIP3    H243725   2.480   0.934   4.799 -0.3985  0.5373  0.2626
 7412TIP3   OH243726   3.333   6.142  12.079 -0.5026 -0.4662  0.2702
 7412TIP3    H143727   3.266   6.092  12.127 -1.4072 -0.0960 -0.6014
 7412TIP3    H243728   3.316   6.233  12.101 -0.6557 -0.3253 -0.4235
 7413TIP3   OH243729   2.273   5.388   0.511  0.2627 -0.3633  0.3350
 7413TIP3    H143730   2.181   5.392   0.483 -0.2640 -1.4139  1.8269
 7413TIP3    H243731   2.271   5.419   0.601  1.7155  1.6364 -0.2901
 7414TIP3   OH243732   2.950   1.218   3.675  0.3828 -0.0285 -0.6371
 7414TIP3    H143733   3.018   1.152   3.686 -0.3169 -1.0525 -2.2513
 7414TIP3    H243734   2.876   1.170   3.639 -1.2446  1.0533  1.1272
 7415TIP3   OH243735   4.148   4.797   2.410 -0.6750  0.7062 -0.1122
 7415TIP3    H143736   4.140   4.783   2.315  1.3067 -2.1337  0.0765
 7415TIP3    H243737   4.207   4.872   2.418 -1.6617  1.6174 -1.0979
 7416TIP3   OH243738   4.746   0.540   5.823  0.1594  0.2542  0.0961
 7416TIP3    H143739   4.810   0.610   5.811  0.0085  0.4993  0.7211
 7416TIP3    H243740   4.774   0.471   5.762  1.4593  0.0497  0.9101
 7417TIP3   OH243741   3.557   1.638   2.689  0.1590 -0.4320 -0.1645
 7417TIP3    H143742   3.553   1.638   2.593  2.0760  1.2331 -0.2631
 7417TIP3    H243743   3.647   1.611   2.709  0.1533  0.4826  1.1430
 7418TIP3   OH243744   0.441   3.651   6.066 -0.2092  0.1956 -0.3555
 7418TIP3    H143745   0.504   3.716   6.035  0.5257 -0.6466 -0.6586
 7418TIP3    H243746   0.461   3.641   6.159 -0.2426  0.3064 -0.3357
 7419TIP3   OH243747   2.172   3.288   3.351  0.6763  0.6385  0.5442
 7419TIP3    H143748   2.243   3.333   3.398  0.0406  0.7024  1.4743
 7419TIP3    H243749   2.121   3.246   3.421 -0.3526  0.8203 -0.0895
 7420TIP3   OH243750   6.804   6.641  12.740 -0.0877  0.7830  0.8340
 7420TIP3    H143751   6.762   6.726  12.751  1.2304  1.1771  2.9180
 7420TIP3    H243752   6.848   6.648  12.655 -0.0113  2.1584  0.9712
 7421TIP3   OH243753   4.794   4.795   2.694  0.4239  0.2168 -0.1320
 7421TIP3    H143754   4.809   4.726   2.759 -1.5974 -1.6836 -1.6093
 7421TIP3    H243755   4.882   4.825   2.670  1.2722 -0.7161  1.7023
 7422TIP3   OH243756   0.127   3.508   4.516 -0.7192  0.4311 -0.2616
 7422TIP3    H143757   0.087   3.590   4.487  0.6727  1.1820 -0.0903
 7422TIP3    H243758   0.209   3.502   4.467  0.4764  0.5048  1.6668
 7423TIP3   OH243759   0.027   3.122  14.103  0.4053  0.4758  0.2811
 7423TIP3    H143760   0.019   3.104  14.009  0.3212 -0.5733  0.4795
 7423TIP3    H243761   0.022   3.035  14.144 -1.2679  1.0711  1.3731
 7424TIP3   OH243762   0.356   6.494   5.747 -0.3366 -0.5853 -0.3433
 7424TIP3    H143763   0.287   6.507   5.812  1.6132 -1.8270  2.0464
 7424TIP3    H243764   0.317   6.436   5.681 -1.3467 -1.8490  1.3388
 7425TIP3   OH243765   0.245   4.307  11.253  0.2322 -0.8334 -0.0531
 7425TIP3    H143766   0.270   4.219  11.281 -1.2948 -1.1440  0.3802
 7425TIP3    H243767   0.279   4.365  11.321  1.5839 -1.0496 -0.5415
 7426TIP3   OH243768   5.336   0.093  14.554  0.4133 -0.2548  0.3826
 7426TIP3    H143769   5.326   0.130  14.466  0.8093 -1.2010 -0.0708
 7426TIP3    H243770   5.426   0.060  14.555  0.0707 -1.1873  0.7792
 7427TIP3   OH243771   6.202   2.736   5.324 -0.0811 -0.4151 -0.3090
 7427TIP3    H143772   6.213   2.776   5.238  1.4152  0.7340  0.3818
 7427TIP3    H243773   6.145   2.797   5.371 -1.2653 -1.2710 -0.6270
 7428TIP3   OH243774   0.584   5.697  15.686  0.0781  0.1083 -0.2260
 7428TIP3    H143775   0.614   5.613  15.722 -1.7283 -1.1954 -1.7294
 7428TIP3    H243776   0.505   5.718  15.735  0.7783  1.2061  0.4757
 7429TIP3   OH243777   4.921   3.168   1.600  0.0109 -0.1416 -0.4882
 7429TIP3    H143778   5.011   3.201   1.602 -0.4380  1.0885  0.3303
 7429TIP3    H243779   4.929   3.077   1.572  1.6610 -0.5008  1.0533
 7430TIP3   OH243780   3.436   2.860   1.761 -0.0111 -0.3329  0.1818
 7430TIP3    H143781   3.447   2.777   1.809 -1.5085  0.9680  2.8730
 7430TIP3    H243782   3.374   2.910   1.813  1.2809  2.7395 -1.0985
 7431TIP3   OH243783   5.697   1.338  12.716  0.0668  0.7054  0.5286
 7431TIP3    H143784   5.746   1.396  12.657 -0.5993  1.0965  0.3475
 7431TIP3    H243785   5.670   1.396  12.788 -3.7291  1.5318 -1.4144
 7432TIP3   OH243786   2.400   4.762  14.011  0.1982  0.2514 -0.2807
 7432TIP3    H143787   2.487   4.799  14.027  1.2830 -1.5147 -1.9397
 7432TIP3    H243788   2.353   4.831  13.963 -0.3496  2.3578  3.1415
 7433TIP3   OH243789   2.421   2.966   2.387  0.2046 -0.0030 -0.3487
 7433TIP3    H143790   2.418   2.880   2.429 -1.1117 -0.3348 -1.1154
 7433TIP3    H243791   2.499   2.962   2.330  0.9875 -0.1565  0.7176
 7434TIP3   OH243792   2.077   5.478   5.927 -0.1308 -0.3515 -0.0591
 7434TIP3    H143793   2.116   5.540   5.988  0.5154 -0.0088 -0.8108
 7434TIP3    H243794   2.080   5.522   5.842 -1.9866 -0.4004 -0.1686
 7435TIP3   OH243795   4.692   1.863   4.221  0.5513 -0.4729 -0.6221
 7435TIP3    H143796   4.725   1.786   4.269  2.1831  0.0017 -0.9453
 7435TIP3    H243797   4.632   1.827   4.156 -2.2574 -1.0873  2.1703
 7436TIP3   OH243798   3.483   5.616  15.610  0.2353  0.0833  0.2794
 7436TIP3    H143799   3.471   5.653  15.697 -0.9520 -0.0371  0.1659
 7436TIP3    H243800   3.526   5.685  15.560  0.1405  0.4588  0.7140
 7437TIP3   OH243801   0.313   5.884  14.431  0.0602  0.1231 -0.2398
 7437TIP3    H143802   0.330   5.813  14.370  0.5431  1.4636 -1.7009
 7437TIP3    H243803   0.223   5.911  14.412 -0.3915 -0.5774  0.8378
 7438TIP3   OH243804   1.282   4.573   2.682 -0.0979  0.3236  0.2868
 7438TIP3    H143805   1.233   4.491   2.674 -0.5596  0.3035  2.7951
 7438TIP3    H243806   1.336   4.560   2.760  1.3823  1.6277 -0.5161
 7439TIP3   OH243807   0.506   0.820   5.824 -0.7130  0.1611 -0.0402
 7439TIP3    H143808   0.413   0.807   5.845 -0.8880 -1.1132 -1.5360
 7439TIP3    H243809   0.513   0.798   5.731  0.8916  1.3465 -0.2219
 7440TIP3   OH243810   4.549   3.516   3.415  0.4974  0.3694 -0.8989
 7440TIP3    H143811   4.490   3.589   3.395  0.2655  0.2823 -0.5430
 7440TIP3    H243812   4.631   3.559   3.441  0.1710  0.5202 -0.0968
 7441TIP3   OH243813   4.327   5.197  14.946  0.3780 -0.3925  0.1583
 7441TIP3    H143814   4.360   5.286  14.937  1.1168 -0.8878 -2.2194
 7441TIP3    H243815   4.246   5.197  14.895 -0.6432 -0.6056  1.7170
 7442TIP3   OH243816   4.901   3.696  13.887 -0.0321  0.4965  0.2523
 7442TIP3    H143817   4.920   3.613  13.845 -2.1647 -0.3949  1.0022
 7442TIP3    H243818   4.917   3.680  13.980 -0.7178  0.8517  0.4319
 7443TIP3   OH243819   6.060   3.168  15.287 -0.2456  0.9566 -0.1549
 7443TIP3    H143820   6.122   3.142  15.219 -0.2919 -2.0634  0.8493
 7443TIP3    H243821   5.974   3.149  15.250 -0.4382  2.2959 -0.4164
 7444TIP3   OH243822   2.268   0.365  14.334 -0.2674  0.7416 -0.2491
 7444TIP3    H143823   2.235   0.290  14.285 -0.4886  0.5141  0.2554
 7444TIP3    H243824   2.363   0.357  14.328 -0.2859  0.1758  0.1783
 7445TIP3   OH243825   1.843   6.248  14.291 -0.2116  0.1761  0.0247
 7445TIP3    H143826   1.812   6.319  14.234 -0.3253 -0.3897 -0.6189
 7445TIP3    H243827   1.877   6.182  14.231 -2.1825 -1.3281  0.5144
 7446TIP3   OH243828   2.894   0.622   3.451 -0.2261 -0.6779 -0.0101
 7446TIP3    H143829   2.940   0.697   3.412 -0.2134 -1.7048 -2.0332
 7446TIP3    H243830   2.809   0.657   3.476 -0.1520  0.0570 -0.7592
 7447TIP3   OH243831   4.100   4.994  14.866 -0.1024  0.5687  0.4226
 7447TIP3    H143832   4.065   4.973  14.780  0.3397 -0.4064  0.4710
 7447TIP3    H243833   4.041   5.061  14.900 -1.9526 -1.0559  0.5203
 7448TIP3   OH243834   0.206   5.849   5.457 -0.5119 -0.1138  0.0569
 7448TIP3    H143835   0.112   5.833   5.462 -1.0965  3.1178  0.4596
 7448TIP3    H243836   0.218   5.893   5.373  0.1848  2.0724  1.2675
 7449TIP3   OH243837   3.971   6.298  12.838 -0.3399 -0.2300  0.3374
 7449TIP3    H143838   3.927   6.298  12.924 -0.7563  0.3310  0.1284
 7449TIP3    H243839   4.006   6.209  12.829 -0.9773 -0.5236  0.7401
 7450TIP3   OH243840   5.638   1.995   5.464  0.0661 -0.3336  0.4763
 7450TIP3    H143841   5.618   1.936   5.391  0.4981 -0.9405  0.8447
 7450TIP3    H243842   5.653   1.937   5.538 -1.3189  0.3168  1.2895
 7451TIP3   OH243843   2.777   2.065  14.819  0.2752  0.5629 -0.0163
 7451TIP3    H143844   2.853   2.026  14.862  0.9893  0.1180 -1.6472
 7451TIP3    H243845   2.752   2.138  14.876  0.4143 -0.7753  1.7975
 7452TIP3   OH243846   2.550   2.464  13.088 -0.4465  0.1574 -0.0785
 7452TIP3    H143847   2.513   2.464  13.177 -0.6989 -0.2655 -0.1835
 7452TIP3    H243848   2.488   2.413  13.036  0.2162 -0.4483 -0.2853
 7453TIP3   OH243849   1.281   1.252  15.614 -0.3693 -0.3248 -0.0982
 7453TIP3    H143850   1.213   1.185  15.618 -0.3342 -0.2913  1.0852
 7453TIP3    H243851   1.263   1.309  15.688  1.1689 -0.5177  0.4326
 7454TIP3   OH243852   2.081   0.486   1.323  0.5606 -0.0119 -0.1688
 7454TIP3    H143853   2.114   0.467   1.235 -1.3335 -1.2768 -0.6472
 7454TIP3    H243854   2.140   0.439   1.382  0.6176 -0.8483 -0.8923
 7455TIP3   OH243855   6.242   1.444  10.647 -0.8080 -0.1304 -0.0050
 7455TIP3    H143856   6.286   1.510  10.701 -0.5306  0.6990 -1.2336
 7455TIP3    H243857   6.255   1.362  10.695  2.1923  0.0679 -0.3529
 7456TIP3   OH243858   5.477   4.482  16.540 -0.2162 -0.0012 -0.3415
 7456TIP3    H143859   5.503   4.406  16.592 -0.0490 -0.6433 -1.3659
 7456TIP3    H243860   5.387   4.463  16.514 -0.3639  0.4092 -0.1308
 7457TIP3   OH243861   4.248   2.577   0.647  0.0911 -0.1971 -0.1272
 7457TIP3    H143862   4.178   2.638   0.671  0.7303  0.7509 -0.6404
 7457TIP3    H243863   4.232   2.557   0.555 -1.1813 -2.2585  0.4869
 7458TIP3   OH243864   1.533   4.645   3.759 -0.0342 -0.0320 -0.3189
 7458TIP3    H143865   1.550   4.599   3.677 -0.3124 -0.8236  0.0574
 7458TIP3    H243866   1.461   4.597   3.799 -0.6184  1.0090 -0.1149
 7459TIP3   OH243867   2.769   6.717  16.413  0.0811  0.2783 -0.1906
 7459TIP3    H143868   2.855   6.724  16.455  0.4122 -0.3081 -0.7669
 7459TIP3    H243869   2.788   6.682  16.326 -0.6867  0.7057 -0.5286
 7460TIP3   OH243870   1.421   6.104   5.648  0.3600 -0.2677 -0.0472
 7460TIP3    H143871   1.438   6.196   5.672 -0.8488 -0.1141  0.2618
 7460TIP3    H243872   1.425   6.103   5.553 -1.3549  0.4652 -0.1332
 7461TIP3   OH243873   4.893   1.782   0.928  0.1092  0.2178 -0.1875
 7461TIP3    H143874   4.951   1.776   1.004 -1.5061 -0.3388  1.0441
 7461TIP3    H243875   4.940   1.837   0.866  0.4683  2.7680  2.1961
 7462TIP3   OH243876   1.522   6.713  14.857  0.1350 -0.0870  0.4029
 7462TIP3    H143877   1.510   6.764  14.938  0.7539  1.4798 -0.4662
 7462TIP3    H243878   1.458   6.642  14.864 -0.7631  0.8188  1.6554
 7463TIP3   OH243879   1.579   5.357   1.800 -0.7803  0.4589 -0.0272
 7463TIP3    H143880   1.524   5.281   1.782 -0.7822  0.0453  1.6570
 7463TIP3    H243881   1.517   5.431   1.802 -0.8425  0.4496 -1.1809
 7464TIP3   OH243882   5.837   2.267  13.803 -0.0798  0.4747 -0.2144
 7464TIP3    H143883   5.852   2.296  13.713 -0.5675  1.2615 -0.0459
 7464TIP3    H243884   5.924   2.260  13.841  0.1935 -0.9602 -1.0870
 7465TIP3   OH243885   0.794   3.455   3.119 -0.0012 -0.2656  0.2105
 7465TIP3    H143886   0.803   3.428   3.027 -0.6051  0.6414 -0.1176
 7465TIP3    H243887   0.872   3.419   3.161 -0.1405 -1.4252 -0.4747
 7466TIP3   OH243888   3.467   0.508  11.685  0.1500 -0.3651  0.0104
 7466TIP3    H143889   3.476   0.603  11.693  0.0261 -0.2699 -0.9194
 7466TIP3    H243890   3.391   0.487  11.738 -1.0647  0.3308 -1.4162
 7467TIP3   OH243891   6.222   1.470  11.996  0.4097  0.1680  0.3516
 7467TIP3    H143892   6.270   1.441  12.073  1.7419 -1.2069 -0.9517
 7467TIP3    H243893   6.163   1.538  12.028  0.8225 -0.4943  2.5928
 7468TIP3   OH243894   6.194   5.159  16.782 -0.5388 -0.3903  0.1076
 7468TIP3    H143895   6.175   5.160  16.876  0.8272 -0.4576  0.3944
 7468TIP3    H243896   6.252   5.084  16.769  1.9975  1.5709 -0.2275
 7469TIP3   OH243897   1.511   2.534  12.337  0.1530  0.0762  0.1125
 7469TIP3    H143898   1.486   2.624  12.319  2.7866  0.8320 -0.0178
 7469TIP3    H243899   1.510   2.527  12.433  0.5585  0.4321  0.1438
 7470TIP3   OH243900   6.497   3.258   5.024  0.1911  0.3307  0.4873
 7470TIP3    H143901   6.451   3.324   4.972  0.7979  0.1312 -0.3019
 7470TIP3    H243902   6.580   3.245   4.979 -0.2667 -1.5898  0.1541
 7471TIP3   OH243903   5.457   4.037   0.574  0.5609  0.0775 -0.1698
 7471TIP3    H143904   5.363   4.051   0.587  0.6133 -0.3715  0.7061
 7471TIP3    H243905   5.488   4.120   0.537 -0.3723 -0.1469 -1.5077
 7472TIP3   OH243906   0.254   4.453  12.591 -0.0150 -0.3039 -0.4006
 7472TIP3    H143907   0.312   4.386  12.555 -0.2391 -0.5476 -0.3025
 7472TIP3    H243908   0.306   4.495  12.660 -0.4242 -1.4063  0.5868
 7473TIP3   OH243909   0.960   4.873  14.615  0.0465  0.3578  0.1260
 7473TIP3    H143910   1.024   4.919  14.669  1.7133 -0.0278 -1.4931
 7473TIP3    H243911   0.905   4.942  14.579  0.3913  0.8013  0.4466
 7474TIP3   OH243912   2.310   5.768   5.123 -0.3960  0.2882 -0.1173
 7474TIP3    H143913   2.299   5.802   5.212 -1.6902  1.2091 -0.6126
 7474TIP3    H243914   2.378   5.822   5.084  0.1961 -0.1391  0.3268
 7475TIP3   OH243915   1.513   4.472  16.242  0.2078  0.0032  0.5141
 7475TIP3    H143916   1.474   4.559  16.235  1.6206  0.7711  1.8368
 7475TIP3    H243917   1.477   4.423  16.167 -1.0306  1.5391  0.0859
 7476TIP3   OH243918   2.100   4.301  16.636 -0.1528  0.0937 -0.1018
 7476TIP3    H143919   2.183   4.254  16.626 -0.2101 -0.6897  2.5471
 7476TIP3    H243920   2.033   4.233  16.626 -0.3072 -0.0486  1.6592
 7477TIP3   OH243921   1.853   1.173   4.128  0.5004 -0.0478 -0.3369
 7477TIP3    H143922   1.875   1.197   4.037  3.2157  1.5047  0.6645
 7477TIP3    H243923   1.853   1.077   4.128 -1.5410 -0.0960 -2.3985
 7478TIP3   OH243924   0.240   2.957  13.756 -0.1882  0.2650 -0.5314
 7478TIP3    H143925   0.266   2.974  13.665  0.4510  0.7809 -0.2573
 7478TIP3    H243926   0.242   2.862  13.764 -0.4805  0.2021 -1.1242
 7479TIP3   OH243927   4.943   5.116  14.769  0.5615  0.4044 -0.2225
 7479TIP3    H143928   5.022   5.166  14.790  1.2914 -0.8356  0.0402
 7479TIP3    H243929   4.915   5.079  14.853 -1.8970  3.0483  0.2084
 7480TIP3   OH243930   6.403   0.897   2.865  0.1218  0.3276 -0.1669
 7480TIP3    H143931   6.497   0.899   2.846  0.5611  0.6145  1.9393
 7480TIP3    H243932   6.395   0.943   2.949 -1.9599  0.7009 -0.5512
 7481TIP3   OH243933   3.287   0.382   3.116 -0.4322 -0.8778  0.1265
 7481TIP3    H143934   3.209   0.420   3.076 -0.5384 -0.8206  0.3823
 7481TIP3    H243935   3.257   0.352   3.202  0.2254  0.7797  0.9731
 7482TIP3   OH243936   0.810   2.447   1.527 -0.2463 -0.4421  0.3753
 7482TIP3    H143937   0.892   2.495   1.511 -0.1082 -0.7861  0.0440
 7482TIP3    H243938   0.831   2.388   1.600  0.0937 -1.2284 -0.3447
 7483TIP3   OH243939   4.602   6.224  11.780  0.4113 -0.1065 -0.0963
 7483TIP3    H143940   4.592   6.143  11.730 -1.3901 -0.5457  0.9059
 7483TIP3    H243941   4.512   6.251  11.799  1.0361  0.7389  1.7743
 7484TIP3   OH243942   1.838   5.384   3.634  0.6184 -0.5597 -0.3084
 7484TIP3    H143943   1.867   5.425   3.552 -0.5396  4.1765  1.5298
 7484TIP3    H243944   1.750   5.351   3.614 -0.0406  1.4020 -0.7645
 7485TIP3   OH243945   1.597   0.626   3.210 -0.2822  0.3692 -0.0825
 7485TIP3    H143946   1.636   0.706   3.246 -0.4739  1.0231 -1.2872
 7485TIP3    H243947   1.590   0.643   3.116 -0.6601 -0.9305 -0.3042
 7486TIP3   OH243948   2.843   5.301  11.883 -0.5683 -0.6694  0.2004
 7486TIP3    H143949   2.798   5.299  11.799 -0.2214  0.0356  0.0033
 7486TIP3    H243950   2.916   5.360  11.871  0.1758 -1.4821  0.6573
 7487TIP3   OH243951   1.124   3.837  17.163  0.0712 -0.5852 -0.3156
 7487TIP3    H143952   1.208   3.791  17.162 -0.1940 -1.1541  1.7244
 7487TIP3    H243953   1.148   3.929  17.159  0.8525 -0.7077  1.0905
 7488TIP3   OH243954   2.711   5.531   5.317  0.3399  0.6410  0.1533
 7488TIP3    H143955   2.719   5.622   5.288 -0.7475  0.9484  0.7940
 7488TIP3    H243956   2.797   5.509   5.351  0.0641  2.0963  1.8622
 7489TIP3   OH243957   2.336   3.473  13.166  0.6960  0.4125  0.0045
 7489TIP3    H143958   2.262   3.472  13.227  0.9322 -0.6295  0.2724
 7489TIP3    H243959   2.362   3.382  13.158  1.2013  0.6391 -1.0185
 7490TIP3   OH243960   5.716   5.912   4.882  0.2307  0.4229 -0.7283
 7490TIP3    H143961   5.761   5.829   4.867 -0.9069 -0.0863 -1.3420
 7490TIP3    H243962   5.714   5.954   4.796 -3.2997 -0.9997 -1.4261
 7491TIP3   OH243963   0.032   1.525   0.854  0.1366 -0.2292  0.5583
 7491TIP3    H143964  -0.046   1.470   0.852 -0.6164  0.8470 -0.1295
 7491TIP3    H243965   0.098   1.474   0.808 -0.2461 -1.0096  0.8630
 7492TIP3   OH243966   2.920   3.322  14.242 -0.2810 -0.3591  0.0391
 7492TIP3    H143967   2.978   3.374  14.186  1.4715  0.4631  2.5197
 7492TIP3    H243968   2.950   3.232  14.228 -2.0668 -0.5682 -2.8169
 7493TIP3   OH243969   0.815   1.541  13.300 -0.2191 -0.0958 -0.4051
 7493TIP3    H143970   0.831   1.516  13.209  0.5625  0.7513 -0.5092
 7493TIP3    H243971   0.797   1.635  13.295 -1.7660 -0.3469  0.1368
 7494TIP3   OH243972   4.087   1.056  13.318  0.4403  0.2316  0.0270
 7494TIP3    H143973   4.042   1.139  13.334  0.9575  0.7972 -1.3601
 7494TIP3    H243974   4.159   1.055  13.381  0.9347  1.2272 -0.5160
 7495TIP3   OH243975   6.502   3.109  13.479 -0.4519 -0.5049 -0.0453
 7495TIP3    H143976   6.578   3.050  13.479  0.8049  1.0195  3.3077
 7495TIP3    H243977   6.538   3.195  13.457 -1.7257 -0.3095 -1.4536
 7496TIP3   OH243978   3.510   2.134  13.282  0.1641  0.1632 -0.4589
 7496TIP3    H143979   3.493   2.054  13.233 -1.2287  0.1898 -0.0307
 7496TIP3    H243980   3.456   2.201  13.240  0.4676  0.6244 -0.1249
 7497TIP3   OH243981   4.407   6.625   4.544 -0.3366  0.2645  0.6456
 7497TIP3    H143982   4.469   6.681   4.592  0.2252 -0.5349  0.8531
 7497TIP3    H243983   4.401   6.666   4.457  1.4871 -0.3930  0.1937
 7498TIP3   OH243984   6.051   2.733   2.979  0.3205 -0.6030 -0.0649
 7498TIP3    H143985   5.979   2.739   2.917  0.8141 -0.2175 -0.6165
 7498TIP3    H243986   6.073   2.640   2.982 -0.5219 -0.7885  0.4908
 7499TIP3   OH243987   0.036   3.769   0.268 -0.6469  0.1377 -0.4019
 7499TIP3    H143988   0.085   3.741   0.345  0.4563 -0.3134 -1.2376
 7499TIP3    H243989   0.092   3.836   0.227 -1.4685  0.7686 -0.5179
 7500TIP3   OH243990   4.437   3.507  14.181 -0.3393  0.5994  0.3829
 7500TIP3    H143991   4.507   3.564  14.211 -0.8322  0.4945  1.7981
 7500TIP3    H243992   4.360   3.564  14.174 -0.1747  0.6775 -0.9768
 7501TIP3   OH243993   2.931   5.893  11.498  0.4448  0.2095 -0.4103
 7501TIP3    H143994   2.840   5.864  11.484  0.7735 -0.6136 -0.8793
 7501TIP3    H243995   2.974   5.877  11.414  1.2016 -0.0748  0.0339
 7502TIP3   OH243996   1.314   2.229   3.776  0.3914 -0.2057  0.0251
 7502TIP3    H143997   1.295   2.307   3.827  0.8977 -0.9816  1.4371
 7502TIP3    H243998   1.339   2.262   3.690 -0.1975  1.1370  0.3518
 7503TIP3   OH243999   1.285   4.824   2.374 -0.5949 -0.4320 -0.0933
 7503TIP3    H144000   1.259   4.856   2.288 -0.0773 -0.3318 -0.2149
 7503TIP3    H244001   1.203   4.803   2.418 -0.8508 -0.7799 -0.7238
 7504TIP3   OH244002   0.237   2.003   4.793 -0.1279  0.0387 -0.0586
 7504TIP3    H144003   0.175   2.045   4.854 -0.6074 -0.4996 -0.1720
 7504TIP3    H244004   0.323   2.037   4.819 -0.5890  1.6938 -0.6396
 7505TIP3   OH244005   1.221   0.722   4.664  0.3787  0.5972 -0.8135
 7505TIP3    H144006   1.180   0.654   4.718  1.6184 -0.4949 -1.2116
 7505TIP3    H244007   1.175   0.802   4.687  0.9033  0.1581  1.8722
 7506TIP3   OH244008   2.453   1.804  13.109  0.1579  0.5174  0.1879
 7506TIP3    H144009   2.445   1.868  13.038 -1.1081 -1.3961 -1.4734
 7506TIP3    H244010   2.529   1.750  13.084 -2.2559 -2.2555 -1.5598
 7507TIP3   OH244011   0.785   4.314  15.169  0.1990 -0.9954  0.1189
 7507TIP3    H144012   0.806   4.238  15.115 -3.2840 -1.2447 -1.0040
 7507TIP3    H244013   0.723   4.364  15.116  0.4635  1.3071  1.9272
 7508TIP3   OH244014   0.610   5.196   6.075 -0.2279 -0.0991  0.6759
 7508TIP3    H144015   0.528   5.153   6.098 -0.2771 -0.2372  0.2540
 7508TIP3    H244016   0.677   5.148   6.125 -0.4537  0.3364  1.4078
 7509TIP3   OH244017   6.123   4.765  14.638  0.1675  0.6226  0.1023
 7509TIP3    H144018   6.144   4.765  14.732 -0.0414  2.9754  0.1867
 7509TIP3    H244019   6.208   4.776  14.595  0.0272  1.9050  0.1279
 7510TIP3   OH244020   6.122   1.987   5.154  0.0934  0.0158  0.3797
 7510TIP3    H144021   6.104   1.991   5.060  1.1428 -1.5874  0.0922
 7510TIP3    H244022   6.217   1.993   5.160  0.1125 -1.1532  1.2700
 7511TIP3   OH244023   3.430   0.300   4.887 -0.0381 -0.1011  0.3924
 7511TIP3    H144024   3.434   0.240   4.962  0.1945 -0.7040 -0.0982
 7511TIP3    H244025   3.401   0.245   4.814  1.2697  0.1345 -0.3199
 7512TIP3   OH244026   0.686   6.404  11.217  0.1327  0.4478 -0.6942
 7512TIP3    H144027   0.756   6.388  11.153 -0.9358  0.4165 -1.8833
 7512TIP3    H244028   0.613   6.351  11.185 -0.0488 -0.5051  1.2283
 7513TIP3   OH244029   0.003   1.619  12.044  0.2596 -0.4989  0.2899
 7513TIP3    H144030   0.019   1.582  12.131  2.1245  0.7993  0.5213
 7513TIP3    H244031  -0.092   1.610  12.032 -0.8646  3.4200  4.4530
 7514TIP3   OH244032   0.726   2.539   6.278 -0.4891 -0.2001 -0.2283
 7514TIP3    H144033   0.795   2.526   6.342 -0.0846  0.5260 -0.5164
 7514TIP3    H244034   0.712   2.634   6.275 -0.9014 -0.2717 -0.7860
 7515TIP3   OH244035   0.008   2.265  12.016 -0.2439 -0.3178 -0.3665
 7515TIP3    H144036  -0.072   2.226  11.982  0.0740  0.8121 -2.4749
 7515TIP3    H244037   0.078   2.218  11.972  0.2473 -0.6405  0.7384
 7516TIP3   OH244038   2.347   4.578   2.002 -0.0602  0.4119  0.1048
 7516TIP3    H144039   2.376   4.593   1.912  1.0960  2.0885  0.7218
 7516TIP3    H244040   2.406   4.511   2.036  0.6620  1.0603  0.1507
 7517TIP3   OH244041   5.248   5.943   0.498 -0.3221 -0.3838 -0.3323
 7517TIP3    H144042   5.238   5.948   0.594 -0.9643  0.1409 -0.4202
 7517TIP3    H244043   5.286   5.857   0.483  2.1342  0.4999  0.5834
 7518TIP3   OH244044   5.029   4.186  17.279  0.2895 -0.0838  0.5123
 7518TIP3    H144045   5.062   4.220  17.362 -2.5051  1.7411  0.9445
 7518TIP3    H244046   5.000   4.264  17.231 -0.2708 -1.3110 -1.2094
 7519TIP3   OH244047   4.319   0.620  12.056  0.0877 -0.2908 -0.3495
 7519TIP3    H144048   4.363   0.626  11.971  0.1251  0.6574 -0.2673
 7519TIP3    H244049   4.240   0.569  12.039  1.1409 -1.9076 -0.5264
 7520TIP3   OH244050   1.506   3.906   2.003 -0.1948 -0.7448 -0.2623
 7520TIP3    H144051   1.420   3.933   1.971 -0.5620 -2.4904 -0.8156
 7520TIP3    H244052   1.520   3.958   2.082 -0.8136  1.0980 -1.3403
 7521TIP3   OH244053   4.845   4.322   4.241  0.2032 -0.1557  0.4701
 7521TIP3    H144054   4.909   4.389   4.220  1.9581 -1.5068  1.3897
 7521TIP3    H244055   4.760   4.365   4.230  1.3067  2.9013  3.3411
 7522TIP3   OH244056   3.521   4.850   3.668  0.1856 -0.1770  0.6619
 7522TIP3    H144057   3.495   4.858   3.576  1.2812 -0.1595  0.3376
 7522TIP3    H244058   3.597   4.909   3.675 -0.1857  0.1774  1.6906
 7523TIP3   OH244059   0.858   2.448   5.525 -0.5853 -0.1852 -0.4831
 7523TIP3    H144060   0.832   2.484   5.610  0.4142 -1.0318  0.2058
 7523TIP3    H244061   0.851   2.521   5.464  0.5144  0.9350  0.6951
 7524TIP3   OH244062   5.336   3.799  14.658  0.0880 -0.6365 -0.5528
 7524TIP3    H144063   5.264   3.836  14.606 -0.1233 -1.1103 -0.6049
 7524TIP3    H244064   5.399   3.768  14.593  0.2216 -0.4499 -0.5108
 7525TIP3   OH244065   1.279   2.490   1.012 -0.7593 -0.3533  0.1545
 7525TIP3    H144066   1.289   2.399   0.986 -0.6376 -0.7073  1.3816
 7525TIP3    H244067   1.288   2.540   0.931  1.3210 -1.2868 -0.2229
 7526TIP3   OH244068   1.110   4.702  16.725 -0.8799  0.2601 -0.6861
 7526TIP3    H144069   1.202   4.720  16.745 -0.5855 -0.6605 -1.1591
 7526TIP3    H244070   1.069   4.788  16.721 -0.0586  0.6717 -0.3410
 7527TIP3   OH244071   1.235   1.622   4.468  0.0191 -0.2980  0.1871
 7527TIP3    H144072   1.218   1.676   4.544 -0.0659 -1.1995  0.8156
 7527TIP3    H244073   1.296   1.555   4.498  1.1375  0.1965 -0.9055
 7528TIP3   OH244074   5.874   3.833  11.536  0.2301  0.1335  0.1369
 7528TIP3    H144075   5.927   3.906  11.570 -0.4018  0.6816 -0.0613
 7528TIP3    H244076   5.892   3.832  11.442 -1.7037  1.6403 -0.2770
 7529TIP3   OH244077   3.097   3.206  12.084 -0.2336  0.3024  0.2486
 7529TIP3    H144078   3.018   3.246  12.048 -0.7727 -0.6929  0.3386
 7529TIP3    H244079   3.073   3.179  12.173  0.3747  0.5089  0.4820
 7530TIP3   OH244080   4.903   4.185  14.250 -0.1920  0.0351 -0.0886
 7530TIP3    H144081   4.914   4.264  14.197 -2.6390  1.8998  2.0084
 7530TIP3    H244082   4.969   4.193  14.319 -1.6133  1.2477  1.1784
 7531TIP3   OH244083   2.962   4.464   0.248  0.8976  0.2674  0.6995
 7531TIP3    H144084   2.994   4.480   0.159 -1.0084 -0.4962 -0.1736
 7531TIP3    H244085   3.040   4.446   0.299  2.0510  0.9862 -0.7819
 7532TIP3   OH244086   3.847   0.341   2.789 -0.1088  0.2474 -0.0311
 7532TIP3    H144087   3.901   0.400   2.736  0.6727 -0.4706 -0.0438
 7532TIP3    H244088   3.890   0.256   2.780 -1.1526 -0.2907  0.0994
 7533TIP3   OH244089   6.669   0.044  14.668 -0.7054 -0.5464 -0.8192
 7533TIP3    H144090   6.627  -0.039  14.644 -1.1471 -0.6557  0.3362
 7533TIP3    H244091   6.597   0.103  14.687 -0.3487 -1.0295  2.1758
 7534TIP3   OH244092   0.157   4.262   3.331 -0.2290 -0.2386  0.3605
 7534TIP3    H144093   0.143   4.356   3.345 -1.1805 -0.3190  0.0188
 7534TIP3    H244094   0.238   4.257   3.281 -1.6552  0.6151 -2.1962
 7535TIP3   OH244095   5.342   4.117  12.277  0.4069 -0.0332  0.4053
 7535TIP3    H144096   5.328   4.208  12.304  0.9163  0.1509  0.0572
 7535TIP3    H244097   5.295   4.109  12.194 -0.2112 -0.2845  0.7704
 7536TIP3   OH244098   1.218   6.400  15.293 -0.2285 -0.3289 -0.3568
 7536TIP3    H144099   1.157   6.406  15.220 -1.5884  1.0261  0.8500
 7536TIP3    H244100   1.205   6.311  15.327 -1.3098 -0.1572 -0.3049
 7537TIP3   OH244101   5.638   1.208   0.169  0.1875  0.4603 -0.3232
 7537TIP3    H144102   5.695   1.278   0.201 -0.1558 -0.3481  2.1595
 7537TIP3    H244103   5.698   1.143   0.133  0.5827  1.3861 -1.3746
 7538TIP3   OH244104   2.192   3.098  12.589  0.2541  0.1373 -0.3528
 7538TIP3    H144105   2.097   3.095  12.580  0.1233  1.2996  0.5262
 7538TIP3    H244106   2.210   3.184  12.627  1.6561 -0.0875 -0.4659
 7539TIP3   OH244107   5.304   2.000  12.779  0.9258 -0.1333 -0.6345
 7539TIP3    H144108   5.236   2.063  12.801  0.4611 -0.1302 -2.0775
 7539TIP3    H244109   5.273   1.917  12.816  2.6381  0.8728  3.3669
 7540TIP3   OH244110   5.283   1.340   3.549 -0.1660  0.4320 -0.0794
 7540TIP3    H144111   5.340   1.272   3.585  0.1853  1.1934  0.8186
 7540TIP3    H244112   5.232   1.295   3.481 -0.2510 -0.8233  0.8002
 7541TIP3   OH244113   0.210   5.331  16.097  0.8270  0.1119 -0.1493
 7541TIP3    H144114   0.277   5.326  16.029 -1.0090 -1.8641 -1.9202
 7541TIP3    H244115   0.132   5.292  16.056 -0.1081 -1.9273  3.3675
 7542TIP3   OH244116   0.780   2.853  11.797  0.2014  0.0661  0.2932
 7542TIP3    H144117   0.709   2.903  11.836 -1.6261 -0.9761 -1.5631
 7542TIP3    H244118   0.795   2.781  11.858 -0.1097  0.4749  0.8529
 7543TIP3   OH244119   6.610   3.962  12.184 -0.4956 -0.4108  0.5588
 7543TIP3    H144120   6.643   4.022  12.251  1.4892 -2.2004  1.2295
 7543TIP3    H244121   6.687   3.941  12.131 -1.4089 -1.4375 -0.3709
 7544TIP3   OH244122   5.572   0.193  16.267  0.2224  0.3731  0.5451
 7544TIP3    H144123   5.526   0.269  16.302  1.7241  1.4458  0.2210
 7544TIP3    H244124   5.601   0.220  16.180  0.6136 -0.6386  0.3491
 7545TIP3   OH244125   2.998   2.341   3.469  0.4367  0.3017 -0.3849
 7545TIP3    H144126   3.051   2.310   3.395  0.4536 -1.3255  0.2901
 7545TIP3    H244127   3.004   2.272   3.534 -1.2012  0.8159  0.3591
 7546TIP3   OH244128   0.698   3.741  15.622 -0.2619 -0.4006 -0.7338
 7546TIP3    H144129   0.635   3.697  15.679 -0.5975  0.5005 -0.3873
 7546TIP3    H244130   0.678   3.709  15.535  0.0821 -1.5937 -0.3788
 7547TIP3   OH244131   5.649   3.370   5.764 -0.8660  0.2690  0.0577
 7547TIP3    H144132   5.581   3.308   5.738 -0.7247 -0.1285  0.6177
 7547TIP3    H244133   5.692   3.328   5.839  2.0604 -0.9911 -2.2196
 7548TIP3   OH244134   1.970   0.913   6.735  0.2698 -0.1377  0.0479
 7548TIP3    H144135   2.018   0.990   6.765  0.8270 -0.3448 -0.2969
 7548TIP3    H244136   1.891   0.912   6.788 -1.1364  2.2761 -1.9096
 7549TIP3   OH244137   3.654   2.351   2.729 -0.4678  0.0745  0.0221
 7549TIP3    H144138   3.641   2.443   2.707  1.8682 -0.1055 -2.2744
 7549TIP3    H244139   3.573   2.308   2.700 -0.8394  1.1280 -0.5261
 7550TIP3   OH244140   0.849   1.220  14.390  0.6840  0.6102 -0.0850
 7550TIP3    H144141   0.820   1.131  14.368  0.0598  0.0695  2.7282
 7550TIP3    H244142   0.918   1.239  14.326  1.3266 -2.1782 -0.3043
 7551TIP3   OH244143   3.047   1.914   1.639 -0.0623  0.3657 -0.5134
 7551TIP3    H144144   3.128   1.904   1.589  2.4630  0.5159  3.3447
 7551TIP3    H244145   3.020   1.824   1.659  0.9693  0.3710  0.9453
 7552TIP3   OH244146   6.559   2.045  11.054 -0.2189 -0.6691 -0.2535
 7552TIP3    H144147   6.589   2.135  11.067  0.6552 -1.1260  0.9642
 7552TIP3    H244148   6.464   2.053  11.039  0.2477  0.6635 -2.8226
 7553TIP3   OH244149   0.065   4.096  15.157  0.4433 -0.2146 -0.5220
 7553TIP3    H144150   0.053   4.007  15.124 -1.7473 -0.0892 -0.1725
 7553TIP3    H244151   0.126   4.087  15.231 -0.2340 -1.5143 -0.1142
 7554TIP3   OH244152   0.346   2.032   6.054 -0.5778 -0.8810 -0.2346
 7554TIP3    H144153   0.297   2.015   6.134 -0.1505 -1.2685 -0.0518
 7554TIP3    H244154   0.438   2.033   6.081 -0.4745 -0.2574 -0.5899
 7555TIP3   OH244155   1.502   5.657  16.747 -0.2157 -0.2285 -0.3773
 7555TIP3    H144156   1.567   5.636  16.814 -1.3321 -0.0677  0.7717
 7555TIP3    H244157   1.553   5.668  16.666  1.3929  1.7053  0.8644
 7556TIP3   OH244158   6.646   2.956   2.149  0.0436  0.4896  0.6969
 7556TIP3    H144159   6.633   2.890   2.217 -0.3281  0.4906  0.6303
 7556TIP3    H244160   6.738   2.948   2.125  0.3478  0.9416  1.6699
 7557TIP3   OH244161   0.687   2.000  15.358  0.3590 -0.2161  0.4214
 7557TIP3    H144162   0.722   2.009  15.269  1.6047  0.5440  0.9764
 7557TIP3    H244163   0.594   2.021  15.349  0.5178  0.0768 -0.6666
 7558TIP3   OH244164   0.347   0.756   1.311 -1.0951  0.2505 -0.4218
 7558TIP3    H144165   0.278   0.707   1.357 -1.2792  1.7872  0.9959
 7558TIP3    H244166   0.337   0.846   1.343 -0.8821  1.2666 -3.0908
 7559TIP3   OH244167   6.450   6.365   4.680 -0.4324  0.0030  0.0919
 7559TIP3    H144168   6.381   6.341   4.742 -1.8767 -0.0662 -1.4826
 7559TIP3    H244169   6.403   6.387   4.600  1.4004 -0.1762 -1.0682
 7560TIP3   OH244170   0.139   2.683   2.601  0.4826  0.2720  0.0887
 7560TIP3    H144171   0.046   2.681   2.582  0.4896  0.5633  0.0099
 7560TIP3    H244172   0.145   2.733   2.683  0.6110  0.7169 -0.1882
 7561TIP3   OH244173   4.268   2.932  13.124 -0.5644 -0.6745  0.2492
 7561TIP3    H144174   4.319   2.860  13.158  0.4717  0.2018  0.5827
 7561TIP3    H244175   4.183   2.924  13.166 -0.6173 -1.9831 -0.1008
 7562TIP3   OH244176   1.496   3.238   5.337  0.2362  0.4576  0.9344
 7562TIP3    H144177   1.462   3.325   5.313 -0.5694  0.5608  2.4122
 7562TIP3    H244178   1.418   3.189   5.364  0.2727 -1.6269 -2.4516
 7563TIP3   OH244179   1.483   3.263  16.161 -0.9906  0.2385  0.7488
 7563TIP3    H144180   1.568   3.233  16.128 -1.5058  0.8255 -1.1751
 7563TIP3    H244181   1.480   3.232  16.252  0.8201 -0.7148  0.5017
 7564TIP3   OH244182   1.133   6.736  11.695 -0.8133  0.5443  0.8276
 7564TIP3    H144183   1.052   6.777  11.668 -0.9697 -0.5106 -0.3796
 7564TIP3    H244184   1.202   6.796  11.667 -1.0463  0.0903 -0.7582
 7565TIP3   OH244185   3.695   1.638  16.902  0.1302 -0.3009 -0.2230
 7565TIP3    H144186   3.617   1.694  16.906 -0.0820 -0.4980 -1.3926
 7565TIP3    H244187   3.665   1.553  16.934  0.6745  0.4424  2.4546
 7566TIP3   OH244188   2.565   6.814  15.196  0.0323 -0.3358  0.5908
 7566TIP3    H144189   2.591   6.899  15.232 -0.7531  0.2378 -0.1919
 7566TIP3    H244190   2.635   6.754  15.224  0.0410  0.3440  2.0427
 7567TIP3   OH244191   4.709   3.412  13.261  0.5052 -0.2206  0.1537
 7567TIP3    H144192   4.741   3.425  13.172  0.9108 -1.2975  0.1397
 7567TIP3    H244193   4.741   3.489  13.309  1.0983 -0.1132 -0.4015
 7568TIP3   OH244194   0.599   2.912   4.809  0.5797  0.5696  0.6222
 7568TIP3    H144195   0.670   2.850   4.829  1.4001 -0.2444 -4.2405
 7568TIP3    H244196   0.529   2.857   4.775 -0.8518  1.8218  1.5056
 7569TIP3   OH244197   0.796   5.526  11.743 -0.2273  0.4376 -0.0965
 7569TIP3    H144198   0.808   5.480  11.659 -1.6325  0.5057 -0.3450
 7569TIP3    H244199   0.770   5.457  11.804  0.9567  0.3619  0.3308
 7570TIP3   OH244200   6.458   0.351  14.574  0.1311  0.5004 -0.3314
 7570TIP3    H144201   6.463   0.439  14.610  1.9421 -0.0396  0.7847
 7570TIP3    H244202   6.444   0.294  14.650  0.8194 -0.3428 -0.8242
 7571TIP3   OH244203   1.789   3.384  15.913 -0.1961  0.1378  0.5039
 7571TIP3    H144204   1.769   3.305  15.964 -0.1760 -1.3626 -1.7749
 7571TIP3    H244205   1.883   3.376  15.893 -0.5259  0.0051 -0.9877
 7572TIP3   OH244206   6.542   5.493  15.779  0.7526 -0.1982 -0.4027
 7572TIP3    H144207   6.538   5.498  15.683 -0.1247  0.1832 -0.3529
 7572TIP3    H244208   6.455   5.523  15.808 -0.0085 -3.0847  0.4072
 7573TIP3   OH244209   6.394   2.695  13.291  0.3018  0.1495  0.3258
 7573TIP3    H144210   6.369   2.620  13.237  0.0520  0.5230 -0.0787
 7573TIP3    H244211   6.316   2.751  13.292  1.0558  1.2355 -0.8012
 7574TIP3   OH244212   2.063   4.594   1.699  0.1202 -0.2516 -0.7202
 7574TIP3    H144213   2.076   4.663   1.634 -0.6833  0.6787  0.0900
 7574TIP3    H244214   2.055   4.641   1.782 -0.1573 -1.3392 -0.1289
 7575TIP3   OH244215   5.690   4.705   5.199 -0.1992 -0.2503  0.1024
 7575TIP3    H144216   5.754   4.634   5.192  0.5775  0.3149  1.2911
 7575TIP3    H244217   5.617   4.666   5.247 -0.1403 -0.4903 -0.0022
 7576TIP3   OH244218   1.108   4.363  16.687  0.1390  0.1738 -0.3068
 7576TIP3    H144219   1.035   4.315  16.648  0.6851 -0.0413 -1.0691
 7576TIP3    H244220   1.186   4.312  16.663  0.4107 -0.5347  1.9178
 7577TIP3   OH244221   5.035   3.345  16.461  0.1798 -0.6124  1.2617
 7577TIP3    H144222   5.070   3.383  16.542 -0.6025 -0.8973  1.7451
 7577TIP3    H244223   4.963   3.403  16.436  1.4814  0.4299 -0.1782
 7578TIP3   OH244224   5.223   0.158  13.619  0.0131 -0.2093 -0.2366
 7578TIP3    H144225   5.259   0.127  13.536 -1.3963  0.7482 -1.1991
 7578TIP3    H244226   5.300   0.171  13.675  1.0350  0.0659 -1.6953
 7579TIP3   OH244227   0.275   5.616  15.274 -0.1784 -0.2570  0.0648
 7579TIP3    H144228   0.228   5.535  15.251 -1.5749 -0.1052  2.2543
 7579TIP3    H244229   0.221   5.686  15.238  0.3728 -0.2347 -0.7290
 7580TIP3   OH244230   1.616   6.503  10.392  0.1761 -0.5128 -0.3509
 7580TIP3    H144231   1.576   6.590  10.389  0.6534 -0.2714  0.2515
 7580TIP3    H244232   1.543   6.445  10.413 -0.3451 -0.3970 -1.7626
 7581TIP3   OH244233   0.985   2.466   1.861  0.2883 -0.5374 -0.1268
 7581TIP3    H144234   0.948   2.380   1.840  0.2377 -0.2031 -1.4925
 7581TIP3    H244235   1.076   2.461   1.830 -0.0994  0.3329 -1.4528
 7582TIP3   OH244236   2.472   3.672  14.379 -0.2286  0.0168  0.2475
 7582TIP3    H144237   2.509   3.748  14.424  1.9511 -0.8312 -0.0407
 7582TIP3    H244238   2.439   3.706  14.297 -0.4120  0.8667  0.6708
 7583TIP3   OH244239   2.623   0.872  16.584 -0.0689 -0.7195  0.2265
 7583TIP3    H144240   2.606   0.885  16.678  0.4723 -0.5941  0.3143
 7583TIP3    H244241   2.719   0.871  16.578 -0.1017 -0.3839 -0.3695
 7584TIP3   OH244242   0.062   0.124   3.435  0.0484  0.0816  0.2362
 7584TIP3    H144243   0.142   0.088   3.475 -0.0071 -0.7371 -0.3780
 7584TIP3    H244244   0.006   0.047   3.422 -0.1470  0.4248 -0.9299
 7585TIP3   OH244245   3.388   6.552  11.524 -0.1096 -0.4403 -0.4765
 7585TIP3    H144246   3.370   6.510  11.608  0.4034  0.4787  0.1049
 7585TIP3    H244247   3.473   6.595  11.537  0.0761 -0.4670 -1.5368
 7586TIP3   OH244248   1.552   2.407   6.213  0.4165 -0.7267 -0.1773
 7586TIP3    H144249   1.481   2.344   6.214 -0.1302 -0.1255  2.3464
 7586TIP3    H244250   1.516   2.484   6.170 -0.6644 -0.2270  1.5868
 7587TIP3   OH244251   6.390   3.669  15.130 -0.0374  0.0018  0.3406
 7587TIP3    H144252   6.389   3.740  15.066 -0.5361 -0.2842  0.0317
 7587TIP3    H244253   6.450   3.604  15.092 -2.4543 -1.4032 -1.1879
 7588TIP3   OH244254   2.237   0.288   3.724  1.0197  0.5863 -0.5481
 7588TIP3    H144255   2.280   0.239   3.793 -2.6525 -0.1419  1.3718
 7588TIP3    H244256   2.215   0.221   3.658  2.5085  0.9107 -1.3939
 7589TIP3   OH244257   4.274   5.613   1.797 -0.1668  0.0648  0.3568
 7589TIP3    H144258   4.179   5.609   1.792 -0.0681 -0.6970 -1.2498
 7589TIP3    H244259   4.297   5.556   1.870 -0.9769  0.8041  1.1939
 7590TIP3   OH244260   1.272   3.703   1.862 -0.0873  0.1732  0.0590
 7590TIP3    H144261   1.325   3.629   1.891  0.9272  0.6819 -0.4547
 7590TIP3    H244262   1.235   3.675   1.778 -1.6679 -0.6570  1.0008
 7591TIP3   OH244263   0.109   6.557   3.161  0.6983  0.2006 -0.1144
 7591TIP3    H144264   0.123   6.551   3.067  0.4871 -0.3968 -0.1072
 7591TIP3    H244265   0.026   6.603   3.170  0.2974 -0.4932 -0.2365
 7592TIP3   OH244266   0.904   6.476  10.698  0.4004 -0.2061 -0.2679
 7592TIP3    H144267   0.947   6.392  10.708  2.7396  1.3291  3.6509
 7592TIP3    H244268   0.960   6.525  10.637 -1.2526 -1.5445 -2.9805
 7593TIP3   OH244269   1.140   2.796   1.497  0.2155 -0.4521 -0.4076
 7593TIP3    H144270   1.178   2.878   1.463 -0.5342 -0.1649 -0.5707
 7593TIP3    H244271   1.169   2.792   1.588  0.3006 -0.0301 -0.4151
 7594TIP3   OH244272   2.674   3.287   3.768 -0.2294 -0.1322 -0.4042
 7594TIP3    H144273   2.646   3.376   3.749 -0.7830 -0.2172 -0.0170
 7594TIP3    H244274   2.716   3.293   3.854  0.1001 -0.1692 -0.5646
 7595TIP3   OH244275   5.955   5.122  16.645 -0.2832  0.0934 -0.7322
 7595TIP3    H144276   6.038   5.115  16.692 -0.0785  1.3282 -0.8909
 7595TIP3    H244277   5.894   5.070  16.697  0.1702  0.6514  0.3793
 7596TIP3   OH244278   2.779   4.037   1.567 -0.0830 -0.0064  0.3491
 7596TIP3    H144279   2.824   4.050   1.484 -0.9427 -3.5573 -0.7485
 7596TIP3    H244280   2.819   4.100   1.627  1.5552  1.5899 -2.3477
 7597TIP3   OH244281   4.431   0.196  14.259 -0.1079  0.0622 -0.0366
 7597TIP3    H144282   4.407   0.255  14.188 -0.5822 -0.3509 -0.2196
 7597TIP3    H244283   4.518   0.164  14.234 -0.3690 -0.2585 -0.5486
 7598TIP3   OH244284   0.422   5.535   6.342 -0.3897 -0.4164 -0.0923
 7598TIP3    H144285   0.440   5.607   6.402 -0.4150 -1.2283  0.9040
 7598TIP3    H244286   0.480   5.464   6.371 -0.8064 -1.0014 -0.6706
 7599TIP3   OH244287   4.190   3.840   5.497  0.1639 -0.3019 -0.1234
 7599TIP3    H144288   4.157   3.929   5.508  0.2266 -0.2485 -0.3572
 7599TIP3    H244289   4.171   3.819   5.405  3.2401  0.7337 -1.0486
 7600TIP3   OH244290   3.598   5.091   3.188 -0.1410 -0.4681 -0.2365
 7600TIP3    H144291   3.634   5.179   3.182  0.3612 -0.4442  2.3359
 7600TIP3    H244292   3.643   5.041   3.120 -0.8010  1.3481 -2.0505
 7601TIP3   OH244293   5.996   0.665  11.888 -0.2920  0.1342 -0.4498
 7601TIP3    H144294   5.983   0.667  11.793 -1.1181  0.1197 -0.3392
 7601TIP3    H244295   6.006   0.572  11.908 -1.2205  0.0455 -0.3800
 7602TIP3   OH244296   0.887   6.393  12.958 -1.2405 -0.1833  0.0060
 7602TIP3    H144297   0.963   6.341  12.984 -0.5727  1.2878  1.0327
 7602TIP3    H244298   0.814   6.356  13.008 -0.3920  1.1518  2.2739
 7603TIP3   OH244299   1.396   5.415  10.834  0.8660  0.5315  0.3506
 7603TIP3    H144300   1.362   5.388  10.749 -1.6041  1.2023  1.0897
 7603TIP3    H244301   1.446   5.339  10.865 -0.1119 -0.5612 -0.6826
 7604TIP3   OH244302   2.304   4.061   0.698 -0.3212  0.3382 -0.3513
 7604TIP3    H144303   2.249   4.117   0.754 -1.5653 -0.0988 -1.1137
 7604TIP3    H244304   2.336   3.993   0.757  0.7773  1.5334  0.4666
 7605TIP3   OH244305   1.360   3.018   4.384 -0.2752 -0.4280  0.5685
 7605TIP3    H144306   1.439   3.069   4.369 -0.4494  0.1014  1.4368
 7605TIP3    H244307   1.297   3.050   4.319 -0.0009 -0.3824  0.3246
 7606TIP3   OH244308   4.383   1.247  11.549 -0.4478 -0.1970 -0.1481
 7606TIP3    H144309   4.418   1.223  11.635  0.2745 -2.1455 -0.9721
 7606TIP3    H244310   4.288   1.252  11.562 -0.2525  0.7334  1.0304
 7607TIP3   OH244311   6.685   3.946  16.676  0.0592 -0.1679  0.2788
 7607TIP3    H144312   6.697   3.894  16.756 -0.2679  0.2023  0.5706
 7607TIP3    H244313   6.648   3.884  16.613  0.6806 -0.5570  0.2967
 7608TIP3   OH244314   4.940   4.448  14.088 -0.0466  0.4564 -0.0650
 7608TIP3    H144315   4.891   4.517  14.043  0.3450  2.1784  2.0654
 7608TIP3    H244316   4.963   4.386  14.019 -1.9629  1.5393 -1.7289
 7609TIP3   OH244317   5.636   1.382   0.512  0.1886 -0.3309  0.2651
 7609TIP3    H144318   5.577   1.309   0.490 -0.9435  0.9822 -1.1561
 7609TIP3    H244319   5.668   1.413   0.428  0.5087  0.9397  0.8409
 7610TIP3   OH244320   2.935   0.804  16.923 -0.4032 -0.1640  0.5502
 7610TIP3    H144321   3.005   0.752  16.885 -0.3782  1.4088 -1.6172
 7610TIP3    H244322   2.978   0.856  16.991  0.4296  0.3341 -0.3431
 7611TIP3   OH244323   4.626   1.147   1.889  0.0179  0.1265  0.4268
 7611TIP3    H144324   4.630   1.113   1.979  1.1049 -0.6669  0.0833
 7611TIP3    H244325   4.691   1.096   1.841 -0.4528  0.6531 -0.7866
 7612TIP3   OH244326   1.591   2.371   4.052  0.1451  0.1705 -0.2822
 7612TIP3    H144327   1.670   2.367   3.999  0.1410 -2.1782 -0.1592
 7612TIP3    H244328   1.525   2.410   3.993  0.6941 -0.4085 -1.2981
 7613TIP3   OH244329   4.935   5.128   5.060 -0.2062  0.7133  0.0268
 7613TIP3    H144330   4.899   5.052   5.106 -2.3080  0.3507 -2.1270
 7613TIP3    H244331   4.883   5.202   5.091  0.9807  1.0914  1.1478
 7614TIP3   OH244332   3.548   0.223   5.860 -0.2901  0.7790 -0.4146
 7614TIP3    H144333   3.491   0.149   5.883  0.0603 -0.0736 -2.2482
 7614TIP3    H244334   3.619   0.218   5.924 -1.0174  0.4059  0.3859
 7615TIP3   OH244335   4.096   0.839  15.026  0.7091 -0.4795  0.1767
 7615TIP3    H144336   4.082   0.831  15.120 -0.2436  2.2233  0.3133
 7615TIP3    H244337   4.031   0.780  14.987  0.5673 -0.9972  1.1779
 7616TIP3   OH244338   0.114   0.695  12.644 -0.3001  0.3884  0.1192
 7616TIP3    H144339   0.195   0.658  12.607  0.1352  0.2853  1.1618
 7616TIP3    H244340   0.058   0.619  12.661 -0.7916  0.4939 -1.0045
 7617TIP3   OH244341   6.458   2.142  13.067 -0.0549  0.0638 -0.4389
 7617TIP3    H144342   6.456   2.218  13.125  0.4067  0.1833 -0.5766
 7617TIP3    H244343   6.432   2.069  13.122  0.5716  0.1466 -0.0372
 7618TIP3   OH244344   6.042   3.624  14.961 -0.2332 -0.1983  0.7693
 7618TIP3    H144345   6.101   3.549  14.966 -0.3928 -0.4306 -0.4974
 7618TIP3    H244346   6.078   3.687  15.023  0.4788 -0.9258  1.1124
 7619TIP3   OH244347   6.034   1.133   1.851 -0.0356 -0.0057  0.1620
 7619TIP3    H144348   5.974   1.156   1.781 -0.9965  0.2006  1.0398
 7619TIP3    H244349   6.120   1.162   1.820 -0.6422  1.2578 -0.3689
 7620TIP3   OH244350   5.880   4.765   4.933 -0.5446 -0.0014  0.0154
 7620TIP3    H144351   5.845   4.762   5.022 -1.4798 -0.1643 -0.3482
 7620TIP3    H244352   5.968   4.801   4.943  0.9079 -3.6850  1.4831
 7621TIP3   OH244353   2.401   2.424  15.786  0.4296 -0.2106  0.7975
 7621TIP3    H144354   2.319   2.472  15.800  1.2413  1.4882 -0.1905
 7621TIP3    H244355   2.374   2.340  15.750 -0.8659  0.4506  0.2037
 7622TIP3   OH244356   5.245   5.793  11.164 -0.1859 -0.1046  0.1539
 7622TIP3    H144357   5.240   5.717  11.105 -1.4268  0.2148 -0.1741
 7622TIP3    H244358   5.338   5.817  11.165  0.4244 -2.3734  1.2265
 7623TIP3   OH244359   4.474   3.880   3.006  0.7152 -0.5039  0.0102
 7623TIP3    H144360   4.418   3.852   2.933 -0.3412  2.8561 -0.5828
 7623TIP3    H244361   4.562   3.854   2.980 -0.0565 -2.1672 -1.0036
 7624TIP3   OH244362   1.928   0.239   2.099  0.0131  0.8757 -0.4740
 7624TIP3    H144363   1.971   0.268   2.018  2.1658  2.1599  1.0946
 7624TIP3    H244364   1.981   0.276   2.169 -0.8209 -1.6706  1.5708
 7625TIP3   OH244365   4.959   0.002   5.190  0.0367 -0.1944 -0.0069
 7625TIP3    H144366   4.888  -0.020   5.130  0.1320 -1.6583  0.3864
 7625TIP3    H244367   4.949  -0.060   5.262  0.4129  1.0051  1.0904
 7626TIP3   OH244368   1.414   0.498   0.729 -0.7024  0.2676 -0.7163
 7626TIP3    H144369   1.437   0.476   0.819 -0.7198 -0.8112 -0.9751
 7626TIP3    H244370   1.448   0.426   0.677  0.7579  1.6663 -1.7682
 7627TIP3   OH244371   5.116   1.111  12.215  0.0230  0.0895 -0.0313
 7627TIP3    H144372   5.106   1.201  12.246 -1.2980 -0.1461  0.2817
 7627TIP3    H244373   5.063   1.059  12.276  0.5210 -0.8614 -0.3956
 7628TIP3   OH244374   5.670   2.904  13.255  0.0123  0.1917  0.2284
 7628TIP3    H144375   5.677   2.958  13.333 -1.9914  0.4359  0.2580
 7628TIP3    H244376   5.576   2.889  13.244  0.2602  0.1184 -2.1049
 7629TIP3   OH244377   0.186   4.976   0.399  0.0374 -0.3075  0.0723
 7629TIP3    H144378   0.231   4.892   0.391  0.9550  0.1285  0.6208
 7629TIP3    H244379   0.215   5.011   0.483 -1.6016 -0.1804  0.6154
 7630TIP3   OH244380   6.195   6.559  14.449 -0.7473 -0.2453 -0.2340
 7630TIP3    H144381   6.163   6.523  14.532  1.9539  0.1444  1.0565
 7630TIP3    H244382   6.160   6.648  14.445 -0.8571 -0.2549  0.5109
 7631TIP3   OH244383   2.186   0.163   1.545 -0.4691  0.1124  0.1745
 7631TIP3    H144384   2.104   0.176   1.592 -0.0467 -0.3781  1.0485
 7631TIP3    H244385   2.170   0.088   1.488 -0.5282 -0.1671  0.5606
 7632TIP3   OH244386   5.561   0.911   4.068 -0.4092 -0.1390  0.6775
 7632TIP3    H144387   5.621   0.985   4.075 -0.0274 -0.4985  1.2776
 7632TIP3    H244388   5.607   0.840   4.112 -1.7359 -0.1229  2.1179
 7633TIP3   OH244389   4.331   0.812   0.048 -0.5419  0.1559 -0.2616
 7633TIP3    H144390   4.307   0.758  -0.027 -0.0146 -0.7374  0.1969
 7633TIP3    H244391   4.407   0.862   0.019  1.9376 -2.8221  0.7683
 7634TIP3   OH244392   2.469   4.768   3.918  0.6582 -0.4929  0.0790
 7634TIP3    H144393   2.377   4.767   3.942  0.9319  1.1993  1.2983
 7634TIP3    H244394   2.497   4.677   3.927 -0.4535 -0.7218  1.4422
 7635TIP3   OH244395   0.919   4.643   3.881  0.4094  0.3211 -0.1372
 7635TIP3    H144396   0.980   4.569   3.890  1.2618  1.0163 -0.1711
 7635TIP3    H244397   0.973   4.715   3.849 -0.1717  1.3019  1.0651
 7636TIP3   OH244398   4.542   2.244   2.399 -0.5349 -0.3539  0.3585
 7636TIP3    H144399   4.587   2.329   2.399 -0.5754 -0.2861 -2.1101
 7636TIP3    H244400   4.589   2.192   2.333 -1.2863 -1.8389  0.9622
 7637TIP3   OH244401   0.795   5.022   4.065  0.6613 -0.3360 -0.8218
 7637TIP3    H144402   0.884   5.011   4.032  0.4581  0.3665 -1.6244
 7637TIP3    H244403   0.745   4.954   4.021  0.8437 -0.9154 -0.1545
 7638TIP3   OH244404   3.428   3.225   4.825 -0.3044 -0.1068 -0.1811
 7638TIP3    H144405   3.498   3.209   4.889 -0.1411  0.4016 -0.2267
 7638TIP3    H244406   3.471   3.222   4.740  0.3727  3.6705 -0.0601
 7639TIP3   OH244407   4.294   4.776  14.362  0.1089 -0.0832 -0.8438
 7639TIP3    H144408   4.230   4.832  14.319 -0.0848  0.2736 -0.1075
 7639TIP3    H244409   4.319   4.712  14.296 -0.5721  0.1363 -1.3157
 7640TIP3   OH244410   0.101   2.383   1.915 -0.6297  0.1897  0.8908
 7640TIP3    H144411   0.026   2.442   1.922  0.0294  0.7715  3.6528
 7640TIP3    H244412   0.177   2.441   1.915 -0.0583 -0.5482  1.7265
 7641TIP3   OH244413   2.814   3.301   4.010 -0.2683  0.0147 -0.0360
 7641TIP3    H144414   2.802   3.323   4.103  0.7275  2.0967 -0.3828
 7641TIP3    H244415   2.789   3.208   4.005  0.9245 -0.4983  2.5585
 7642TIP3   OH244416   1.400   6.668  10.528  0.0710  0.1633 -0.0412
 7642TIP3    H144417   1.394   6.736  10.461 -1.7310  1.0867  1.0076
 7642TIP3    H244418   1.395   6.716  10.611 -2.5616 -1.3138  0.7156
 7643TIP3   OH244419   6.472   0.643  12.298 -0.3089 -0.0978 -0.6880
 7643TIP3    H144420   6.536   0.707  12.329 -0.9360  1.1087 -1.8463
 7643TIP3    H244421   6.506   0.613  12.214 -0.1489 -1.1137 -0.2725
 7644TIP3   OH244422   1.255   2.799  16.983 -0.3330 -0.3146 -0.1197
 7644TIP3    H144423   1.273   2.709  17.011 -1.2219 -0.9803 -1.6127
 7644TIP3    H244424   1.228   2.790  16.892  0.6416  1.5931 -0.6041
 7645TIP3   OH244425   2.094   6.792  11.095 -0.6428 -0.1366 -0.1214
 7645TIP3    H144426   2.113   6.752  11.010 -0.5798 -0.1520 -0.0999
 7645TIP3    H244427   2.010   6.753  11.121 -0.6849 -0.0982 -0.1988
 7646TIP3   OH244428   4.755   6.105   0.895 -0.3197 -0.3418  0.1067
 7646TIP3    H144429   4.674   6.054   0.891 -1.1770  0.9774  0.3470
 7646TIP3    H244430   4.731   6.191   0.860  0.9536  0.0844  0.2618
 7647TIP3   OH244431   5.121   1.554   2.591  0.0219 -0.7063  0.6743
 7647TIP3    H144432   5.168   1.637   2.594 -0.1749 -0.3990 -2.7043
 7647TIP3    H244433   5.029   1.578   2.599  0.0682 -0.8165  1.6729
 7648TIP3   OH244434   2.048   2.099   5.108  0.2398  0.1640 -0.5047
 7648TIP3    H144435   1.960   2.127   5.081 -0.1181  1.4082  1.7927
 7648TIP3    H244436   2.065   2.019   5.058 -1.9197  0.2941 -1.4858
 7649TIP3   OH244437   6.197   0.460  16.719  0.1644 -0.3755 -0.2991
 7649TIP3    H144438   6.126   0.525  16.726 -0.4766 -0.9608 -1.3166
 7649TIP3    H244439   6.168   0.387  16.774  1.4450  0.6734  1.8336
 7650TIP3   OH244440   1.256   5.067  15.671 -0.6585 -0.2018 -0.3561
 7650TIP3    H144441   1.228   5.084  15.761  0.2089 -0.5784 -0.0152
 7650TIP3    H244442   1.249   5.152  15.627 -0.9063  0.0204  0.1153
 7651TIP3   OH244443   2.009   4.084  15.738 -0.4465 -0.1452 -0.0506
 7651TIP3    H144444   2.012   4.028  15.661 -0.8034 -1.6603  1.0254
 7651TIP3    H244445   2.076   4.151  15.722 -0.8197 -0.1916 -1.8561
 7652TIP3   OH244446   5.338   5.935  12.071  0.0258  0.0036  0.5819
 7652TIP3    H144447   5.249   5.904  12.054 -0.3868  1.1849  0.5174
 7652TIP3    H244448   5.389   5.855  12.083 -1.0784 -0.6861  0.8059
 7653TIP3   OH244449   4.305   6.489  14.145 -0.4955 -0.3753  0.6268
 7653TIP3    H144450   4.281   6.449  14.061  0.6908 -0.1278  0.1518
 7653TIP3    H244451   4.394   6.521  14.131 -0.2435 -0.4399  2.0230
 7654TIP3   OH244452   1.600   5.370  12.429 -0.1347 -0.1778  0.3742
 7654TIP3    H144453   1.650   5.446  12.460 -0.4574 -0.3360  1.2859
 7654TIP3    H244454   1.610   5.373  12.334 -0.6864  1.3888  0.3393
 7655TIP3   OH244455   6.424   0.797  13.777  0.1630  0.2123  0.2539
 7655TIP3    H144456   6.518   0.797  13.755  0.3600 -0.1255  1.0615
 7655TIP3    H244457   6.408   0.884  13.813 -0.3446  1.0617 -1.9291
 7656TIP3   OH244458   0.439   2.311   5.491  0.5270 -0.1350  0.3700
 7656TIP3    H144459   0.487   2.239   5.532 -0.1925 -1.1053 -0.4754
 7656TIP3    H244460   0.350   2.304   5.526  0.6823  0.9281  1.0103
 7657TIP3   OH244461   4.020   1.985   2.849  0.5241  0.2192 -0.2048
 7657TIP3    H144462   3.948   2.048   2.844 -0.0420 -0.4264 -0.2485
 7657TIP3    H244463   4.002   1.935   2.929 -0.2538 -1.3616 -1.3442
 7658TIP3   OH244464   6.660   0.488   1.693 -0.0320  0.1456  0.2144
 7658TIP3    H144465   6.677   0.566   1.747 -0.1038 -0.9410  1.8640
 7658TIP3    H244466   6.564   0.486   1.685 -0.0588 -0.0187  0.5599
 7659TIP3   OH244467   0.549   1.409  16.044 -0.0489  0.2754  0.5890
 7659TIP3    H144468   0.532   1.498  16.075 -1.3245  0.4324 -0.4932
 7659TIP3    H244469   0.578   1.421  15.953  0.1212 -0.3880  0.5532
 7660TIP3   OH244470   5.419   6.798   0.636 -0.4968 -0.5594 -0.0024
 7660TIP3    H144471   5.456   6.876   0.678 -0.8648 -0.7872  0.7604
 7660TIP3    H244472   5.336   6.827   0.599  1.5526  0.5725 -3.9232
 7661TIP3   OH244473   6.130   2.478  12.451  0.9278 -0.2032 -0.2140
 7661TIP3    H144474   6.133   2.411  12.520  0.7008 -0.1667 -0.1694
 7661TIP3    H244475   6.038   2.505  12.448  1.2203  0.9043  0.5389
 7662TIP3   OH244476   6.190   5.783  10.490 -0.4003 -0.0641 -0.7564
 7662TIP3    H144477   6.282   5.781  10.463 -0.5836 -2.0990 -1.2814
 7662TIP3    H244478   6.184   5.719  10.560 -1.6099 -0.6551 -1.3885
 7663TIP3   OH244479   0.508   4.944   1.650  0.4221 -0.3735  0.0335
 7663TIP3    H144480   0.468   4.890   1.582  0.6638 -2.5044  1.5236
 7663TIP3    H244481   0.599   4.953   1.623  0.5539 -1.3446  0.1549
 7664TIP3   OH244482   1.376   6.206   2.201  0.2415 -0.3334 -0.3198
 7664TIP3    H144483   1.455   6.165   2.236  1.1028  0.6257 -1.1243
 7664TIP3    H244484   1.349   6.149   2.129  0.4706 -0.4022 -0.3501
 7665TIP3   OH244485   3.785   0.631   5.178  0.2303 -0.3810  1.2809
 7665TIP3    H144486   3.768   0.651   5.086 -1.9943 -1.3204  1.4668
 7665TIP3    H244487   3.849   0.560   5.176 -1.2194 -1.6903  0.3977
 7666TIP3   OH244488   0.063   2.031   5.102 -0.0912  0.4883 -0.0870
 7666TIP3    H144489   0.123   2.080   5.158 -0.5133 -1.9273  2.5816
 7666TIP3    H244490  -0.023   2.070   5.117  0.2735  1.8971 -1.5173
 7667TIP3   OH244491   5.572   0.222  12.914  0.1515  0.0910  0.1518
 7667TIP3    H144492   5.497   0.271  12.946 -1.6629 -2.4565 -0.0983
 7667TIP3    H244493   5.627   0.208  12.991 -0.8394 -0.1488  0.8202
 7668TIP3   OH244494   3.708   5.721  14.632  0.5568 -0.1763  0.0415
 7668TIP3    H144495   3.625   5.768  14.637  0.9368  0.6596 -1.2422
 7668TIP3    H244496   3.712   5.671  14.713 -0.7744  0.4800  0.5275
 7669TIP3   OH244497   5.384   0.870  17.085 -0.0111 -0.6037  0.3564
 7669TIP3    H144498   5.324   0.903  17.153 -1.2405  1.0939 -1.5146
 7669TIP3    H244499   5.465   0.852  17.132 -1.4564 -1.3782  2.6590
 7670TIP3   OH244500   1.278   2.007  16.567  0.0334  0.3366  0.4331
 7670TIP3    H144501   1.236   1.922  16.557 -1.7665  1.3546 -0.8221
 7670TIP3    H244502   1.209   2.064  16.602  0.5377  1.8540 -0.9751
 7671TIP3   OH244503   0.512   0.521  16.613 -0.2374 -0.5115 -0.1596
 7671TIP3    H144504   0.432   0.474  16.590 -1.5545  1.5208  0.1428
 7671TIP3    H244505   0.497   0.551  16.702  0.5842  0.4699 -0.3434
 7672TIP3   OH244506   1.883   1.043  11.643  0.2598  0.2187  0.1404
 7672TIP3    H144507   1.957   1.003  11.598  1.3575  3.0170 -0.6224
 7672TIP3    H244508   1.808   1.026  11.586  0.4405 -1.9169  0.5149
 7673TIP3   OH244509   1.104   0.995   5.997 -0.0064 -0.0947  0.6575
 7673TIP3    H144510   1.186   1.018   5.955 -0.7972  1.6842  0.0393
 7673TIP3    H244511   1.125   0.919   6.050  1.1369 -2.1550 -2.5796
 7674TIP3   OH244512   1.364   3.314  13.025  0.1933  0.0111 -0.1061
 7674TIP3    H144513   1.376   3.365  13.105 -2.3676  0.7236 -0.1469
 7674TIP3    H244514   1.428   3.243  13.033 -0.1202 -0.0335  2.6334
 7675TIP3   OH244515   6.754   0.558  12.872  0.1294  0.3304 -0.2165
 7675TIP3    H144516   6.708   0.616  12.811 -0.5310 -0.3247 -0.3566
 7675TIP3    H244517   6.810   0.504  12.815  1.1564  1.1993 -0.0339
 7676TIP3   OH244518   0.531   5.454   4.448 -0.5476  0.1247 -0.2013
 7676TIP3    H144519   0.453   5.485   4.403  0.5416  2.7738 -0.3481
 7676TIP3    H244520   0.599   5.452   4.380  0.0711  0.0821  0.4108
 7677TIP3   OH244521   1.416   4.532   6.294  0.2951  0.1145  0.1430
 7677TIP3    H144522   1.498   4.578   6.314 -0.9835  1.6400  2.0832
 7677TIP3    H244523   1.364   4.539   6.375 -1.3632 -1.6650 -0.7312
 7678TIP3   OH244524   3.960   5.777  14.227 -0.7045 -0.4111 -0.5308
 7678TIP3    H144525   3.992   5.821  14.306  1.3309  0.3497 -1.7565
 7678TIP3    H244526   3.932   5.849  14.170  0.3735 -0.8238 -1.5811
 7679TIP3   OH244527   3.023   3.046   3.727 -0.6015  0.2397 -0.1451
 7679TIP3    H144528   3.100   2.991   3.739 -0.8827 -0.3282 -0.9486
 7679TIP3    H244529   2.971   3.002   3.660 -0.8989  1.3953 -0.7017
 7680TIP3   OH244530   2.022   4.294   2.458 -0.0139 -0.1969 -0.0580
 7680TIP3    H144531   2.110   4.314   2.424  0.5637 -0.8185  1.0492
 7680TIP3    H244532   2.005   4.364   2.521  0.1703 -0.7121  0.5676
 7681TIP3   OH244533   6.162   1.574   0.196  0.1549 -0.2118  0.2208
 7681TIP3    H144534   6.245   1.527   0.186  1.9653  2.6150  1.2027
 7681TIP3    H244535   6.140   1.603   0.108  0.5729 -0.3761  0.0585
 7682TIP3   OH244536   4.420   1.918   4.059  0.2375  0.1006  0.0249
 7682TIP3    H144537   4.474   1.842   4.039  1.8500  1.6237 -1.4966
 7682TIP3    H244538   4.392   1.951   3.974  0.3637  1.7907  0.6302
 7683TIP3   OH244539   6.651   3.809   3.488 -0.3559 -0.6515  0.2117
 7683TIP3    H144540   6.735   3.817   3.532 -0.3907 -0.5026  0.2525
 7683TIP3    H244541   6.653   3.875   3.419 -1.2144  0.7427  1.4785
 7684TIP3   OH244542   1.335   1.494  11.860  0.2578  0.0607 -0.5776
 7684TIP3    H144543   1.403   1.428  11.846 -0.3007 -0.7117  0.2769
 7684TIP3    H244544   1.288   1.499  11.777  0.7365 -0.1193 -0.8601
 7685TIP3   OH244545   3.108   4.956   5.369  0.3196  0.7205  0.0900
 7685TIP3    H144546   3.109   4.905   5.288 -0.3334 -0.3977  0.7813
 7685TIP3    H244547   3.063   5.037   5.345  1.9588  1.2916 -1.1856
 7686TIP3   OH244548   3.423   6.630  16.247  0.6475 -0.5112  0.1062
 7686TIP3    H144549   3.459   6.646  16.334  0.0331  3.6862 -0.2827
 7686TIP3    H244550   3.493   6.658  16.187  0.2921 -1.3706 -0.7210
 7687TIP3   OH244551   5.375   5.219   3.246 -0.3729  0.3864  0.5154
 7687TIP3    H144552   5.357   5.300   3.197 -1.8745 -0.3134 -0.1458
 7687TIP3    H244553   5.364   5.244   3.338 -2.3804  0.5841  0.2434
 7688TIP3   OH244554   0.667   1.699  11.749  0.1924 -0.0125  0.3598
 7688TIP3    H144555   0.645   1.772  11.691  0.0755 -0.3269 -0.0007
 7688TIP3    H244556   0.638   1.621  11.701 -1.2487 -0.1830  1.4925
 7689TIP3   OH244557   5.326   6.609  14.984 -0.1156  0.1825  0.0865
 7689TIP3    H144558   5.416   6.641  14.993  0.0627 -0.3218  0.1216
 7689TIP3    H244559   5.322   6.533  15.042  0.4037 -1.8251 -2.4357
 7690TIP3   OH244560   2.383   6.425  16.027  0.1543 -0.2818  0.0122
 7690TIP3    H144561   2.422   6.397  16.110  0.8505  2.2529  0.5736
 7690TIP3    H244562   2.290   6.437  16.047  0.3871  0.6789  0.5140
 7691TIP3   OH244563   3.457   2.224   6.570  0.6178  0.1162  0.1673
 7691TIP3    H144564   3.506   2.267   6.639  0.5977  0.7244 -0.1910
 7691TIP3    H244565   3.463   2.284   6.495 -0.8785  0.3312  0.2038
 7692TIP3   OH244566   1.881   2.608  16.140 -0.4888  0.5085 -0.5563
 7692TIP3    H144567   1.797   2.627  16.098 -1.3129  0.2090  0.9101
 7692TIP3    H244568   1.886   2.513  16.141 -1.2042  0.4742  1.3919
 7693TIP3   OH244569   1.552   2.182  15.286  0.5665  0.4853 -0.0814
 7693TIP3    H144570   1.498   2.260  15.270 -0.2648  0.0235  0.4436
 7693TIP3    H244571   1.494   2.109  15.266  1.5126 -0.0037 -1.1109
 7694TIP3   OH244572   6.374   0.686   4.398  0.5768  0.0453 -0.0893
 7694TIP3    H144573   6.441   0.754   4.387  0.7666  0.0194  0.8600
 7694TIP3    H244574   6.341   0.670   4.309  1.9418 -0.0612 -0.5826
 7695TIP3   OH244575   4.882   2.279  15.852 -0.1775  0.1209 -0.4393
 7695TIP3    H144576   4.941   2.205  15.838  0.6545  0.9614 -1.4025
 7695TIP3    H244577   4.899   2.338  15.779 -0.3781  1.5695  0.6582
 7696TIP3   OH244578   3.667   1.019  13.490  0.3614  1.0167  0.1622
 7696TIP3    H144579   3.720   0.944  13.516 -0.8871 -0.1156 -0.5190
 7696TIP3    H244580   3.614   0.987  13.418 -2.0163  1.7870  1.5199
 7697TIP3   OH244581   2.499   2.909   5.678  0.7145  0.0685  0.4885
 7697TIP3    H144582   2.512   2.971   5.750 -0.6049  0.7987  0.1278
 7697TIP3    H244583   2.412   2.930   5.644  1.8852  0.7213 -2.2742
 7698TIP3   OH244584   2.251   4.861  11.853  0.7252  0.1604 -0.0145
 7698TIP3    H144585   2.165   4.835  11.885  0.8090 -0.4894 -0.3119
 7698TIP3    H244586   2.306   4.865  11.931  0.4756  0.3861  0.1498
 7699TIP3   OH244587   0.238   6.304   0.902  0.4561  0.3231  0.9942
 7699TIP3    H144588   0.143   6.308   0.889  0.2588 -1.4112  1.7489
 7699TIP3    H244589   0.270   6.389   0.872 -0.8704 -0.4577 -3.0380
 7700TIP3   OH244590   0.017   4.368   0.156  0.1738  0.6115 -0.7120
 7700TIP3    H144591   0.105   4.348   0.123  0.3115  0.0860 -0.0223
 7700TIP3    H244592  -0.041   4.341   0.085  0.3588 -2.2419  0.1604
 7701TIP3   OH244593   3.340   5.786  17.218 -0.1929  0.1463  0.1543
 7701TIP3    H144594   3.257   5.740  17.235 -0.9927  0.9323 -1.4549
 7701TIP3    H244595   3.313   5.871  17.182  1.3146  0.1147 -1.0915
 7702TIP3   OH244596   0.730   6.639   1.772  0.1945  0.1487 -0.1356
 7702TIP3    H144597   0.683   6.603   1.697 -0.0430  2.7948 -1.2943
 7702TIP3    H244598   0.821   6.617   1.756  0.0709  0.1714 -0.8935
 7703TIP3   OH244599   2.143   1.847  12.871 -0.2609 -0.0767 -0.4401
 7703TIP3    H144600   2.108   1.880  12.789 -0.6468 -1.0869 -0.6855
 7703TIP3    H244601   2.069   1.852  12.932 -0.6240 -1.5173 -0.7651
 7704TIP3   OH244602   4.783   4.438  13.118 -0.0693 -0.1245 -0.2691
 7704TIP3    H144603   4.834   4.374  13.167 -3.4859 -1.3484  1.8681
 7704TIP3    H244604   4.784   4.517  13.172  0.4307  0.1949 -0.7416
 7705TIP3   OH244605   0.184   0.678  12.071 -0.0489 -0.3353 -0.1152
 7705TIP3    H144606   0.148   0.767  12.079 -2.0761 -1.1728  0.1629
 7705TIP3    H244607   0.249   0.673  12.141 -1.0645  0.3787  0.8908
 7706TIP3   OH244608   6.471   3.506   5.711  0.1417  0.2007 -0.7560
 7706TIP3    H144609   6.525   3.475   5.783  0.3198  1.2789 -0.4311
 7706TIP3    H244610   6.382   3.477   5.734  0.3526 -0.3370 -0.6079
 7707TIP3   OH244611   3.703   2.068   3.369  0.6813 -0.6011 -0.3677
 7707TIP3    H144612   3.741   2.006   3.307  0.2283 -1.1676 -0.0758
 7707TIP3    H244613   3.612   2.042   3.377  0.4498  0.1854 -0.3428
 7708TIP3   OH244614   1.953   5.757  15.274 -0.0307  0.0201 -0.3093
 7708TIP3    H144615   1.876   5.701  15.259 -1.3842  1.7215  0.1285
 7708TIP3    H244616   2.013   5.735  15.202 -0.8977 -1.3733 -0.6272
 7709TIP3   OH244617   5.305   3.747   1.985  0.4338 -0.5278 -0.5773
 7709TIP3    H144618   5.315   3.837   2.015 -0.2793  0.2427 -2.5264
 7709TIP3    H244619   5.254   3.704   2.054 -2.1580  1.4816 -1.1458
 7710TIP3   OH244620   2.820   6.642  13.338 -0.6504  0.0358 -0.1384
 7710TIP3    H144621   2.905   6.661  13.377 -0.4835 -0.6847 -0.1480
 7710TIP3    H244622   2.819   6.548  13.326 -0.7022  0.2476 -1.9088
 7711TIP3   OH244623   4.753   1.144   2.542  0.0738 -0.5178  0.2947
 7711TIP3    H144624   4.709   1.228   2.528  1.1143 -0.2473 -1.4679
 7711TIP3    H244625   4.681   1.083   2.561 -0.9710  0.1801 -1.2755
 7712TIP3   OH244626   5.169   3.672  16.962 -0.5532  0.2611  0.0548
 7712TIP3    H144627   5.096   3.611  16.967  0.3746 -0.8630  0.0312
 7712TIP3    H244628   5.189   3.693  17.054  0.8167 -1.5304  0.1971
 7713TIP3   OH244629   4.122   6.652   2.420 -0.2456 -0.0062  0.0574
 7713TIP3    H144630   4.054   6.585   2.410 -0.0933 -0.1560  0.0134
 7713TIP3    H244631   4.085   6.715   2.482 -0.7809  0.3845 -0.6579
 7714TIP3   OH244632   5.744   6.182   4.737  0.0996  0.7822  0.6929
 7714TIP3    H144633   5.722   6.263   4.782 -0.7203  1.3987 -0.8041
 7714TIP3    H244634   5.779   6.210   4.652  0.3955 -0.4122  0.4052
 7715TIP3   OH244635   0.366   1.130   3.972 -0.6127 -0.3594  0.3801
 7715TIP3    H144636   0.355   1.070   4.046  1.1597 -1.6085 -0.3257
 7715TIP3    H244637   0.340   1.079   3.896  0.0265  0.0670 -0.1296
 7716TIP3   OH244638   6.019   5.897   3.405 -0.1609 -0.2818  0.0428
 7716TIP3    H144639   5.991   5.926   3.319 -0.4293  0.3415  0.3394
 7716TIP3    H244640   5.969   5.817   3.422  0.7438 -1.0589 -0.8687
 7717TIP3   OH244641   1.390   6.287   3.264  0.5248  0.0715  0.2514
 7717TIP3    H144642   1.322   6.354   3.264  0.0256 -0.4252 -0.4812
 7717TIP3    H244643   1.345   6.207   3.292  0.9547 -0.1132  0.4194
 7718TIP3   OH244644   2.001   1.504  11.524 -0.1627 -0.2393 -0.2303
 7718TIP3    H144645   2.000   1.449  11.602  1.3795 -0.2171 -0.1822
 7718TIP3    H244646   1.959   1.586  11.552  0.6337 -0.1290  0.6501
 7719TIP3   OH244647   5.768   0.490  16.694 -0.2074 -0.0183 -0.0029
 7719TIP3    H144648   5.796   0.444  16.773  0.6220  0.5742  0.0579
 7719TIP3    H244649   5.678   0.517  16.712 -0.6991 -1.5896 -0.0341
 7720TIP3   OH244650   4.923   4.654   4.492  0.3358 -0.0836  0.5219
 7720TIP3    H144651   4.883   4.672   4.578 -1.0222  0.2080 -0.1610
 7720TIP3    H244652   5.017   4.666   4.507 -0.0651  2.3352  1.3900
 7721TIP3   OH244653   4.815   3.510   4.943 -0.5560  0.0702  0.2249
 7721TIP3    H144654   4.775   3.582   4.992 -0.0810 -0.3204  1.2076
 7721TIP3    H244655   4.898   3.494   4.988  0.3092  0.2783 -1.2455
 7722TIP3   OH244656   3.763   1.791   2.422  0.0350  1.1124 -0.3838
 7722TIP3    H144657   3.758   1.709   2.470 -1.2876  1.1745 -0.4101
 7722TIP3    H244658   3.857   1.808   2.413  0.3158  1.2211  2.3778
 7723TIP3   OH244659   0.174   2.795   1.674 -0.1490 -0.4053  0.4899
 7723TIP3    H144660   0.250   2.775   1.728 -0.8385  2.3473  2.5921
 7723TIP3    H244661   0.210   2.812   1.587  1.3252 -1.8773  0.8018
 7724TIP3   OH244662   5.974   5.782   5.046 -0.4981  0.9687 -1.0329
 7724TIP3    H144663   5.995   5.696   5.010  4.0944  0.8200  1.6037
 7724TIP3    H244664   5.920   5.764   5.123 -0.6861  0.5487 -1.2605
 7725TIP3   OH244665   4.960   5.678   0.336 -0.3579  0.0400 -0.1432
 7725TIP3    H144666   4.959   5.767   0.373  0.6874 -0.5269  1.3278
 7725TIP3    H244667   5.015   5.686   0.258  0.9579  0.4165  0.7891
 7726TIP3   OH244668   3.555   3.577  15.157 -0.4452 -0.1302 -0.1787
 7726TIP3    H144669   3.545   3.673  15.160  0.0247 -0.0918  0.3626
 7726TIP3    H244670   3.612   3.562  15.082 -1.4948 -0.0757 -0.9918
 7727TIP3   OH244671   3.683   0.933   3.380 -0.4495  0.0499  0.2433
 7727TIP3    H144672   3.706   0.844   3.354 -1.6508  0.1982 -1.4067
 7727TIP3    H244673   3.704   0.937   3.473 -0.8863 -2.1299  0.4607
 7728TIP3   OH244674   6.168   0.958   4.677  0.0223 -0.1510  0.4580
 7728TIP3    H144675   6.191   1.050   4.662 -0.7422 -0.1564 -0.8673
 7728TIP3    H244676   6.095   0.942   4.617 -1.3991 -0.9793  2.3661
 7729TIP3   OH244677   2.978   4.204   1.645  0.5732 -0.0805 -0.0384
 7729TIP3    H144678   3.072   4.196   1.662  0.6189 -1.4250 -0.8330
 7729TIP3    H244679   2.969   4.180   1.553 -0.4833  0.6772 -0.1359
 7730TIP3   OH244680   6.431   5.649  14.757  0.0568  0.1242  0.0102
 7730TIP3    H144681   6.484   5.713  14.804 -0.4046  0.0399  0.6527
 7730TIP3    H244682   6.453   5.565  14.798  2.1523 -0.4418 -2.1277
 7731TIP3   OH244683   5.407   6.655   1.657  0.5352  0.1998  0.7461
 7731TIP3    H144684   5.489   6.665   1.610  1.0436  1.2570  1.8121
 7731TIP3    H244685   5.377   6.567   1.637  1.6446  0.0209 -0.1065
 7732TIP3   OH244686   2.610   1.937  11.822 -0.3417 -0.1758 -0.1264
 7732TIP3    H144687   2.621   1.955  11.915  0.7290 -0.8483 -0.1207
 7732TIP3    H244688   2.687   1.886  11.798 -0.7023 -0.1612 -1.3410
 7733TIP3   OH244689   0.407   1.427  15.594 -0.1634  0.5523 -0.1176
 7733TIP3    H144690   0.498   1.429  15.566 -0.4646  0.3651 -1.1347
 7733TIP3    H244691   0.367   1.358  15.542 -0.9399  0.7890  0.1547
 7734TIP3   OH244692   5.860   3.499   1.846 -0.2306  0.3197 -0.1119
 7734TIP3    H144693   5.830   3.411   1.868 -0.1422  0.1468 -0.6653
 7734TIP3    H244694   5.781   3.551   1.841 -0.4012 -0.0150 -1.0341
 7735TIP3   OH244695   4.042   4.177   0.500  0.2993 -0.6917  0.3945
 7735TIP3    H144696   3.964   4.144   0.544  0.9540 -0.6921  1.5612
 7735TIP3    H244697   4.038   4.272   0.513  0.4234 -0.6801  0.3507
 7736TIP3   OH244698   5.150   1.475   1.235  0.2433 -0.4085  0.2570
 7736TIP3    H144699   5.150   1.448   1.327  0.5553 -1.4258 -0.0409
 7736TIP3    H244700   5.162   1.394   1.186 -2.5471 -0.2419 -0.7929
 7737TIP3   OH244701   6.533   2.249   0.357 -0.3848 -0.0557 -0.2869
 7737TIP3    H144702   6.538   2.328   0.303 -1.0326  1.5174  1.8909
 7737TIP3    H244703   6.449   2.256   0.403  0.8582 -0.5282  2.1400
 7738TIP3   OH244704   5.687   4.967   5.143 -0.3529  0.2229 -0.3935
 7738TIP3    H144705   5.684   4.875   5.171  0.2384  0.3033 -0.0527
 7738TIP3    H244706   5.736   4.966   5.061  1.6337  0.4899  0.7470
 7739TIP3   OH244707   5.617   5.273   1.860 -0.0850 -0.3790 -0.5191
 7739TIP3    H144708   5.647   5.292   1.771  1.4709 -1.1962 -0.1991
 7739TIP3    H244709   5.642   5.181   1.874  0.2056 -0.0846  0.9610
 7740TIP3   OH244710   4.992   1.921   4.184  0.1782  0.4993 -0.2056
 7740TIP3    H144711   4.919   1.879   4.230  0.3760 -0.0268 -0.3766
 7740TIP3    H244712   5.070   1.880   4.219  0.3305  0.0884 -1.0205
 7741TIP3   OH244713   1.824   0.448   1.431  0.2434 -0.4882 -0.1319
 7741TIP3    H144714   1.749   0.500   1.402 -0.1936 -0.2068  1.4183
 7741TIP3    H244715   1.895   0.470   1.370 -1.1495 -1.3841 -2.1128
 7742TIP3   OH244716   5.199   5.572   6.129  0.0159  0.2524 -0.2582
 7742TIP3    H144717   5.221   5.664   6.114  0.8980  0.0233 -0.4056
 7742TIP3    H244718   5.103   5.570   6.130 -0.0094  1.2873  0.4778
 7743TIP3   OH244719   6.735   4.971  15.036 -0.2640 -0.0663 -0.0351
 7743TIP3    H144720   6.682   4.894  15.057  2.7578 -2.1774  0.1813
 7743TIP3    H244721   6.740   5.019  15.119 -2.4164  0.5942 -0.2457
 7744TIP3   OH244722   6.553   2.337  14.327  0.0736  0.0604  0.7096
 7744TIP3    H144723   6.495   2.317  14.401 -1.7107 -1.8365 -1.1264
 7744TIP3    H244724   6.539   2.430  14.310  0.2975  0.4539  2.5677
 7745TIP3   OH244725   2.800   2.230  11.877 -0.0696  0.2675  0.1898
 7745TIP3    H144726   2.728   2.188  11.923 -0.3774 -0.7339 -1.1587
 7745TIP3    H244727   2.758   2.285  11.811  0.3758  0.8004  0.3508
 7746TIP3   OH244728   2.864   2.971   3.265 -0.2065 -0.0056  0.1548
 7746TIP3    H144729   2.876   2.882   3.231 -1.7849 -0.5754  1.0236
 7746TIP3    H244730   2.793   2.963   3.328  0.0536  1.7718  0.7035
 7747TIP3   OH244731   2.112   1.041   1.695 -0.4988 -0.3755  0.1041
 7747TIP3    H144732   2.026   1.080   1.678  0.1292  1.3521  0.7734
 7747TIP3    H244733   2.095   0.947   1.700 -2.4719  0.0057  0.9707
 7748TIP3   OH244734   6.813   2.872  16.010 -0.1124 -0.1541  0.0399
 7748TIP3    H144735   6.741   2.850  15.951  0.2135  0.1978 -0.4973
 7748TIP3    H244736   6.776   2.938  16.069  0.0845  0.8650 -0.9544
 7749TIP3   OH244737   0.028   3.664   2.858  0.1172 -0.0855 -0.0587
 7749TIP3    H144738  -0.035   3.599   2.829  0.4462 -0.5828  0.3367
 7749TIP3    H244739  -0.011   3.700   2.938  0.2625 -0.2804  0.0990
 7750TIP3   OH244740   6.212   6.460   4.518 -0.8605  0.1678 -0.1890
 7750TIP3    H144741   6.207   6.547   4.559  1.4181  0.5197 -0.5833
 7750TIP3    H244742   6.201   6.478   4.424 -1.1561 -0.0639 -0.1973
 7751TIP3   OH244743   5.633   3.342  15.101  0.2734  0.3007  0.9535
 7751TIP3    H144744   5.653   3.249  15.110 -0.0534  0.0877 -0.3903
 7751TIP3    H244745   5.573   3.347  15.026 -0.4919  1.4872  1.6214
 7752TIP3   OH244746   1.377   5.051   1.064 -0.0119 -0.1097 -0.3052
 7752TIP3    H144747   1.448   5.112   1.042 -1.1434  1.7374  0.9666
 7752TIP3    H244748   1.299   5.107   1.071 -0.7526 -1.4079  2.6337
 7753TIP3   OH244749   3.555   3.934  17.034 -0.4231 -0.4985  0.3439
 7753TIP3    H144750   3.585   3.917  16.945  0.0074  0.2033  0.3524
 7753TIP3    H244751   3.460   3.929  17.029 -0.5595  2.2213 -0.7381
 7754TIP3   OH244752   2.729   1.236   2.104 -0.4245 -0.2444  0.0855
 7754TIP3    H144753   2.788   1.196   2.040  1.0555  1.3262  0.4121
 7754TIP3    H244754   2.665   1.283   2.051  0.1305  0.1200 -0.2690
 7755TIP3   OH244755   0.422   4.609   2.517 -0.0547 -0.1016  0.2441
 7755TIP3    H144756   0.455   4.607   2.607  0.5386 -0.2248  0.0272
 7755TIP3    H244757   0.394   4.700   2.504  2.8187  0.7415 -0.4765
 7756TIP3   OH244758   6.227   4.785  15.760 -0.2264  0.5026 -0.2367
 7756TIP3    H144759   6.165   4.843  15.806 -3.5113 -2.4369 -0.6977
 7756TIP3    H244760   6.193   4.781  15.671  0.1351 -1.8262 -0.2811
 7757TIP3   OH244761   2.679   1.742   6.227  0.3906  0.2398 -0.2007
 7757TIP3    H144762   2.749   1.745   6.162  0.8843  0.9983  0.3617
 7757TIP3    H244763   2.724   1.728   6.310  0.1590  3.6789  0.5686
 7758TIP3   OH244764   3.361   5.351   1.998 -0.3928  0.6439 -0.6063
 7758TIP3    H144765   3.280   5.330   2.044 -0.1664  1.1489  0.0177
 7758TIP3    H244766   3.333   5.381   1.912 -0.7881 -0.9150 -1.0395
 7759TIP3   OH244767   3.395   4.154   0.665  0.1728  0.2983 -0.5448
 7759TIP3    H144768   3.363   4.225   0.720 -1.5734  0.2750 -1.4987
 7759TIP3    H244769   3.464   4.193   0.611  1.7076  0.3852  1.4136
 7760TIP3   OH244770   3.478   2.324  14.215 -0.3270 -0.2501 -0.3988
 7760TIP3    H144771   3.484   2.346  14.308 -0.8498 -0.8526 -0.2204
 7760TIP3    H244772   3.467   2.409  14.171  1.5100  0.1747 -0.0617
 7761TIP3   OH244773   0.411   6.486  17.022 -0.4057  0.5053 -0.1112
 7761TIP3    H144774   0.367   6.427  16.961  0.1641  0.7804 -0.7957
 7761TIP3    H244775   0.477   6.530  16.969 -2.5628  3.7087 -0.2886
 7762TIP3   OH244776   5.587   2.685   5.254 -0.3971 -0.3149 -0.0487
 7762TIP3    H144777   5.570   2.724   5.340 -0.2626  0.1883 -0.2504
 7762TIP3    H244778   5.681   2.696   5.241 -0.1722 -1.6578  0.3601
 7763TIP3   OH244779   5.229   4.964  12.551  0.1303 -0.3120  0.3316
 7763TIP3    H144780   5.186   4.925  12.627 -0.4688  1.1591  0.7558
 7763TIP3    H244781   5.254   5.052  12.580 -0.1190  0.2707 -1.1790
 7764TIP3   OH244782   5.401   3.528  11.480 -0.4279 -0.0052 -0.4251
 7764TIP3    H144783   5.464   3.600  11.476 -0.3958 -0.0403 -0.5546
 7764TIP3    H244784   5.431   3.474  11.553 -0.1520 -0.1682 -0.6595
 7765TIP3   OH244785   4.230   1.349   2.663  0.2808 -0.4060 -0.3170
 7765TIP3    H144786   4.285   1.424   2.640  0.9425 -0.8926 -0.3083
 7765TIP3    H244787   4.172   1.383   2.731  2.2656 -0.5627  1.5092
 7766TIP3   OH244788   1.350   4.533  15.040 -0.4204  0.3980 -0.2743
 7766TIP3    H144789   1.298   4.586  15.100  0.8402  1.1414  0.1999
 7766TIP3    H244790   1.326   4.565  14.953 -0.0544  1.4074 -0.0152
 7767TIP3   OH244791   6.648   0.648   3.435 -0.6113 -0.3861 -0.2748
 7767TIP3    H144792   6.580   0.581   3.436  0.1459 -1.1557  0.3408
 7767TIP3    H244793   6.610   0.721   3.484 -1.1033 -0.6977 -0.1866
 7768TIP3   OH244794   1.882   0.444  12.884 -0.2475  0.5118  0.4003
 7768TIP3    H144795   1.892   0.439  12.789  2.5081 -1.3674  0.7281
 7768TIP3    H244796   1.915   0.531  12.907  0.2335  0.5027 -0.2331
 7769TIP3   OH244797   4.365   4.824   3.878  0.8865  0.5199  0.1856
 7769TIP3    H144798   4.353   4.802   3.971 -0.4436 -1.6880 -0.4725
 7769TIP3    H244799   4.282   4.864   3.852  0.6132 -0.4262 -0.4488
 7770TIP3   OH244800   5.941   2.372  11.283  0.0085 -0.0828  0.3399
 7770TIP3    H144801   5.882   2.436  11.243 -1.8870 -0.1835  2.7981
 7770TIP3    H244802   5.916   2.288  11.245  0.8610  0.3171 -1.1123
 7771TIP3   OH244803   5.225   0.285  16.857  0.2021  0.4687  0.4155
 7771TIP3    H144804   5.300   0.226  16.844  2.1989  2.2694  3.1710
 7771TIP3    H244805   5.152   0.226  16.878  1.4005 -1.1916  0.0440
 7772TIP3   OH244806   5.771   4.371   4.789  0.6138 -0.3596  0.5644
 7772TIP3    H144807   5.764   4.419   4.706 -2.5445  0.5509  1.2852
 7772TIP3    H244808   5.819   4.292   4.767 -0.5690 -0.3505 -2.2529
 7773TIP3   OH244809   4.713   0.319  11.443 -0.1161  0.2281 -0.0010
 7773TIP3    H144810   4.693   0.404  11.404 -2.3750  0.0665  0.7448
 7773TIP3    H244811   4.717   0.335  11.537  0.5068 -0.2975  0.0683
 7774TIP3   OH244812   3.257   1.193  11.544  0.5003 -0.2268  0.1272
 7774TIP3    H144813   3.281   1.238  11.463  1.9199 -0.4460  0.4039
 7774TIP3    H244814   3.329   1.132  11.559 -1.0182 -2.0102  0.1969
 7775TIP3   OH244815   6.191   2.466  17.001 -0.2049  0.4110  0.2518
 7775TIP3    H144816   6.134   2.541  17.017 -1.6721 -0.9570  1.7037
 7775TIP3    H244817   6.212   2.434  17.089 -2.6243 -3.0374 -0.3099
 7776TIP3   OH244818   1.149   4.303  11.258  0.4575 -0.7314 -0.1296
 7776TIP3    H144819   1.152   4.246  11.182  0.9946  0.2102 -0.8193
 7776TIP3    H244820   1.118   4.247  11.329  1.5470 -2.0335 -0.6607
 7777TIP3   OH244821   1.569   0.306  13.167 -0.2597 -0.7955 -0.1473
 7777TIP3    H144822   1.561   0.250  13.244 -0.2106  0.0279  0.4651
 7777TIP3    H244823   1.538   0.392  13.196  1.3139 -0.0588 -0.5603
 7778TIP3   OH244824   6.757   0.355   6.899 -0.2996 -0.5083  0.1131
 7778TIP3    H144825   6.745   0.444   6.934 -1.3812 -0.3138 -0.7257
 7778TIP3    H244826   6.677   0.338   6.849  1.4269 -0.5891 -2.6944
 7779TIP3   OH244827   4.317   1.936  15.456  0.1103  0.0574 -0.2671
 7779TIP3    H144828   4.277   2.022  15.474  1.3889  0.7019 -0.4005
 7779TIP3    H244829   4.411   1.953  15.463  0.3491 -1.4792  0.2821
 7780TIP3   OH244830   1.878   6.554  14.904 -0.0815 -0.4390 -0.1064
 7780TIP3    H144831   1.823   6.479  14.925 -0.6201 -0.4309 -1.3898
 7780TIP3    H244832   1.840   6.626  14.954 -0.5917 -0.6631 -0.1666
 7781TIP3   OH244833   1.082   4.981  12.432 -0.4938 -0.1760  0.3172
 7781TIP3    H144834   1.110   4.968  12.341  0.0906 -1.4080  0.6590
 7781TIP3    H244835   1.144   4.929  12.484  0.9583  2.7735  1.6569
 7782TIP3   OH244836   0.468   3.273   5.881 -0.5196  0.1287 -0.0539
 7782TIP3    H144837   0.488   3.238   5.968  0.2522 -3.0930 -1.4387
 7782TIP3    H244838   0.554   3.288   5.841 -0.8653 -0.2205 -0.9353
 7783TIP3   OH244839   6.053   5.964  17.117 -0.4133 -0.0077 -0.1310
 7783TIP3    H144840   6.106   5.956  17.197 -1.5709  0.1058  0.6541
 7783TIP3    H244841   6.106   6.020  17.059 -0.1607  1.0110  1.0571
 7784TIP3   OH244842   3.479   5.165   6.729  0.1611 -0.4700  1.2278
 7784TIP3    H144843   3.544   5.103   6.763  1.1596 -0.1571 -0.0402
 7784TIP3    H244844   3.505   5.177   6.637 -1.2411  0.2612  0.9240
 7785TIP3   OH244845   1.103   5.137  11.604 -0.1191  0.3765  0.6688
 7785TIP3    H144846   1.187   5.096  11.585 -0.5272  0.6592 -1.9017
 7785TIP3    H244847   1.038   5.079  11.565 -1.0796  0.6089  1.8750
 7786TIP3   OH244848   6.727   6.386  16.396  1.0734 -0.1728 -0.0963
 7786TIP3    H144849   6.677   6.314  16.435 -1.1470  0.8474 -0.9386
 7786TIP3    H244850   6.798   6.343  16.348 -0.0548 -1.8126 -0.3583
 7787TIP3   OH244851   3.927   2.990   5.233 -0.1230  0.2136  0.0683
 7787TIP3    H144852   3.986   2.998   5.308  2.3514 -2.3639 -1.4967
 7787TIP3    H244853   3.942   3.069   5.182  1.7347 -0.2463 -0.1139
 7788TIP3   OH244854   1.407   3.282   2.852 -0.1283 -0.6030 -0.0376
 7788TIP3    H144855   1.408   3.257   2.945 -0.5043  0.6006  0.3016
 7788TIP3    H244856   1.386   3.201   2.805  0.7983 -1.3831  0.8749
 7789TIP3   OH244857   4.461   2.416   0.204  0.3612 -0.1304  0.0638
 7789TIP3    H144858   4.489   2.331   0.239  3.0581  0.5149 -0.4445
 7789TIP3    H244859   4.422   2.396   0.119  1.2528 -0.8270 -0.1792
 7790TIP3   OH244860   0.646   6.805  16.546  0.6129  0.4005 -0.3583
 7790TIP3    H144861   0.683   6.894  16.551  0.1417  0.5415  1.0724
 7790TIP3    H244862   0.716   6.752  16.508  0.7220  1.4750 -1.6992
 7791TIP3   OH244863   0.153   0.016   2.242 -0.0375  0.0360  0.2510
 7791TIP3    H144864   0.160   0.076   2.317 -1.0402  0.7930 -0.2394
 7791TIP3    H244865   0.089  -0.049   2.269  0.9599 -0.7528  0.7365
 7792TIP3   OH244866   4.027   2.643  11.379  0.4006  0.4853  0.1481
 7792TIP3    H144867   4.060   2.711  11.437  3.4128 -1.9472  1.4713
 7792TIP3    H244868   4.043   2.675  11.291 -0.5735  2.5379  0.6995
 7793TIP3   OH244869   2.583   0.750  13.908  0.5939 -0.6577  0.1016
 7793TIP3    H144870   2.560   0.842  13.899 -3.1008 -1.6139 -0.9898
 7793TIP3    H244871   2.545   0.724  13.991 -0.1118 -1.6632 -0.5241
 7794TIP3   OH244872   0.415   4.069  10.905  0.5285  0.3266  0.6594
 7794TIP3    H144873   0.358   4.134  10.946  0.2198 -0.6451  1.7890
 7794TIP3    H244874   0.383   3.985  10.937  1.6941 -0.3116  0.1779
 7795TIP3   OH244875   6.455   1.104   5.180 -0.2908 -0.1213 -0.3536
 7795TIP3    H144876   6.464   1.107   5.085  0.4653 -2.4492 -0.3967
 7795TIP3    H244877   6.507   1.178   5.212  1.0413 -0.4561 -1.6942
 7796TIP3   OH244878   5.876   3.662   0.994  0.4047 -0.3951  0.0979
 7796TIP3    H144879   5.837   3.664   1.081  1.4768 -1.7994  0.6364
 7796TIP3    H244880   5.896   3.754   0.974  0.2486 -0.0737  1.3751
 7797TIP3   OH244881   5.439   1.107   0.859  0.2472  0.2615 -0.1466
 7797TIP3    H144882   5.403   1.073   0.941  0.8415 -0.8544 -0.3327
 7797TIP3    H244883   5.383   1.181   0.837 -0.3375  0.1436  0.9086
 7798TIP3   OH244884   1.102   3.460  15.974 -0.5014 -0.8829  0.5910
 7798TIP3    H144885   1.144   3.406  16.041  2.4068 -0.7353 -1.0258
 7798TIP3    H244886   1.111   3.549  16.005  0.3414 -0.8594  0.2913
 7799TIP3   OH244887   0.195   2.260   4.921  0.0917  0.6717 -0.2477
 7799TIP3    H144888   0.142   2.299   4.852 -1.2489  0.9826  0.9377
 7799TIP3    H244889   0.177   2.313   4.999  0.0282 -0.8825  0.8290
 7800TIP3   OH244890   3.523   0.507  12.404 -0.2012 -0.5335 -0.5518
 7800TIP3    H144891   3.464   0.556  12.460  0.0005 -0.6589 -0.2284
 7800TIP3    H244892   3.540   0.426  12.452  1.7046  0.2814  0.2242
 7801TIP3   OH244893   4.269   1.672   5.199 -0.2022  0.8512 -0.3542
 7801TIP3    H144894   4.295   1.761   5.174  1.5921  0.6129  0.5783
 7801TIP3    H244895   4.201   1.685   5.265 -0.4310  1.5298 -0.7180
 7802TIP3   OH244896   1.434   0.502   4.824  0.2878 -0.4274  0.1597
 7802TIP3    H144897   1.366   0.538   4.880 -0.2864  0.4135 -1.0534
 7802TIP3    H244898   1.470   0.578   4.778 -0.4751 -1.2770 -1.9231
 7803TIP3   OH244899   1.320   5.137  15.157  0.1852  0.8271  0.4215
 7803TIP3    H144900   1.348   5.081  15.230  0.0887 -2.9349 -2.2917
 7803TIP3    H244901   1.400   5.151  15.106 -0.5620 -0.2949 -1.1002
 7804TIP3   OH244902   0.255   5.983   3.899 -0.4599 -0.1230 -0.4158
 7804TIP3    H144903   0.305   5.900   3.899 -1.2238 -0.6044  0.9433
 7804TIP3    H244904   0.168   5.958   3.930 -1.4280  0.8082 -2.2998
 7805TIP3   OH244905   0.875   1.339   5.661  0.6252  0.2389  0.1708
 7805TIP3    H144906   0.789   1.374   5.637  0.8784 -0.3488 -1.7296
 7805TIP3    H244907   0.864   1.306   5.750 -0.4579  2.2956  0.8198
 7806TIP3   OH244908   1.209   0.511  12.329  0.0721 -0.0332  0.2818
 7806TIP3    H144909   1.202   0.479  12.419 -0.9458 -1.2530 -0.2205
 7806TIP3    H244910   1.288   0.566  12.329  0.7135 -0.9384  1.6359
 7807TIP3   OH244911   2.088   6.199  15.431 -0.7045  0.1628  0.3136
 7807TIP3    H144912   2.123   6.279  15.392  1.5247 -1.7345 -1.6526
 7807TIP3    H244913   2.126   6.197  15.519 -0.3072  0.9560  0.1658
 7808TIP3   OH244914   4.662   4.162   1.836 -0.5799 -0.3624  0.1277
 7808TIP3    H144915   4.722   4.202   1.773 -0.3055  0.3564  0.8247
 7808TIP3    H244916   4.678   4.068   1.830 -1.0421 -0.3574 -1.3526
 7809TIP3   OH244917   5.108   1.759  15.736 -0.1265 -0.0207 -0.2930
 7809TIP3    H144918   5.160   1.720  15.665 -0.2193  0.3254 -0.5512
 7809TIP3    H244919   5.127   1.853  15.731 -1.9634  0.3135 -1.3804
 7810TIP3   OH244920   0.869   5.712  15.439  0.2363 -0.2926 -0.1552
 7810TIP3    H144921   0.942   5.670  15.394 -1.1203 -0.2463 -2.5101
 7810TIP3    H244922   0.797   5.649  15.430 -0.4215  0.3189  0.7741
 7811TIP3   OH244923   4.941   5.533  13.688 -0.1895 -0.2204 -0.3776
 7811TIP3    H144924   4.887   5.602  13.650  0.9453  1.5020  1.0572
 7811TIP3    H244925   4.879   5.464  13.712 -1.6616  1.3925  0.5500
 7812TIP3   OH244926   4.537   0.452   2.097  0.4374 -0.1914 -0.1314
 7812TIP3    H144927   4.598   0.388   2.134  1.2653  0.7760  0.2310
 7812TIP3    H244928   4.455   0.437   2.143  1.0215 -0.0674  0.9789
 7813TIP3   OH244929   3.549   5.941   4.269  0.1630  0.2300 -0.4699
 7813TIP3    H144930   3.466   5.894   4.278  0.5601 -1.0407 -2.9970
 7813TIP3    H244931   3.554   5.996   4.347 -2.4248 -0.6479  0.3642
 7814TIP3   OH244932   3.331   1.263   4.256  0.0590  0.0925  0.5919
 7814TIP3    H144933   3.301   1.310   4.178  1.7908  0.1906 -0.0366
 7814TIP3    H244934   3.398   1.203   4.224  0.5495 -0.1079  1.9513
 7815TIP3   OH244935   5.489   0.165   6.835 -0.1459 -0.7377 -0.3520
 7815TIP3    H144936   5.468   0.123   6.919  0.3916 -1.4206 -0.5496
 7815TIP3    H244937   5.419   0.138   6.776 -0.0909 -0.9194 -0.3339
 7816TIP3   OH244938   5.020   3.529  17.277 -0.4003  0.1615  0.2870
 7816TIP3    H144939   5.019   3.513  17.183 -2.1265 -0.0776  0.3264
 7816TIP3    H244940   4.993   3.621  17.285  1.2559  0.6381  0.4763
 7817TIP3   OH244941   0.143   3.055  15.868 -0.2345 -0.5991 -0.1086
 7817TIP3    H144942   0.113   3.139  15.903  0.7749 -0.7944  1.2489
 7817TIP3    H244943   0.092   2.989  15.914 -1.3213 -0.7426 -1.4703
 7818TIP3   OH244944   0.872   3.083   2.369 -0.8066  0.7196 -0.2932
 7818TIP3    H144945   0.924   3.127   2.301  1.5228 -0.6360  0.5348
 7818TIP3    H244946   0.858   3.151   2.436  3.3829  0.1967  1.3147
 7819TIP3   OH244947   0.270   6.423   2.483  0.6822  0.5715  0.6573
 7819TIP3    H144948   0.204   6.373   2.532  0.1004 -0.5263 -1.1767
 7819TIP3    H244949   0.337   6.444   2.548  0.8933 -2.5324  1.5557
 7820TIP3   OH244950   0.834   4.743   0.185 -0.3361 -0.3902  0.2162
 7820TIP3    H144951   0.778   4.734   0.262 -1.2148  1.2926 -0.2048
 7820TIP3    H244952   0.785   4.700   0.115 -0.4473 -0.1913  0.1704
 7821TIP3   OH244953   6.304   2.501   0.605 -0.1956  0.2315 -0.3528
 7821TIP3    H144954   6.228   2.538   0.650 -0.2861  0.4533 -0.6784
 7821TIP3    H244955   6.350   2.578   0.569  0.6009  0.1555  0.4873
 7822TIP3   OH244956   4.102   3.352   4.781  0.7301  0.8410  0.1934
 7822TIP3    H144957   4.157   3.274   4.773  2.3390  1.7180  2.0815
 7822TIP3    H244958   4.013   3.318   4.792  1.2282 -0.6786 -0.3210
 7823TIP3   OH244959   3.703   0.934  15.118  0.7528 -0.1031  0.2231
 7823TIP3    H144960   3.638   1.001  15.137  1.1122 -0.0015  1.0789
 7823TIP3    H244961   3.743   0.962  15.036  0.8439  0.6805  0.5337
 7824TIP3   OH244962   1.545   1.496  14.434  0.2755  0.6247  0.5546
 7824TIP3    H144963   1.458   1.455  14.439 -0.0073  1.0460 -0.7475
 7824TIP3    H244964   1.577   1.474  14.346  0.2023  2.9837 -0.0984
 7825TIP3   OH244965   5.052   5.865  13.946 -0.3610 -0.2704  0.1969
 7825TIP3    H144966   5.131   5.909  13.913  1.7557 -3.3227  0.9316
 7825TIP3    H244967   5.072   5.772  13.937 -3.7213 -1.1044  0.9038
 7826TIP3   OH244968   3.721   5.479   4.775 -0.0324  0.3548 -0.0999
 7826TIP3    H144969   3.720   5.546   4.843 -1.2891  1.0839 -0.8106
 7826TIP3    H244970   3.784   5.512   4.710  0.5887  0.0342  0.3354
 7827TIP3   OH244971   0.656   6.334   4.493  0.0577 -0.0153 -0.5607
 7827TIP3    H144972   0.630   6.242   4.489  0.3085 -0.1774  1.2856
 7827TIP3    H244973   0.577   6.382   4.467 -0.5133 -0.6974 -0.1016
 7828TIP3   OH244974   4.292   0.735  17.031 -0.0264 -0.7285  0.0329
 7828TIP3    H144975   4.208   0.741  16.985  0.1130 -1.2019 -0.2817
 7828TIP3    H244976   4.348   0.800  16.988 -0.0838 -0.7421 -0.0613
 7829TIP3   OH244977   3.718   4.938  12.735  0.0129 -0.2527  0.5796
 7829TIP3    H144978   3.663   4.860  12.740  0.1216 -0.2483  1.9583
 7829TIP3    H244979   3.688   4.994  12.806  1.4585 -0.0373  1.0547
 7830TIP3   OH244980   1.653   3.730  11.014 -0.5410  0.3263 -0.0972
 7830TIP3    H144981   1.686   3.812  11.050 -0.3635  0.0762  0.3080
 7830TIP3    H244982   1.589   3.699  11.078  1.3721 -1.2343  1.1080
 7831TIP3   OH244983   3.216   6.266   4.958  0.6459 -0.6756 -0.7404
 7831TIP3    H144984   3.237   6.350   5.000  0.5559 -1.3952  0.7724
 7831TIP3    H244985   3.175   6.291   4.875  0.3926  0.7907 -0.2015
 7832TIP3   OH244986   0.715   1.760  15.936  0.4005  0.2580  0.1270
 7832TIP3    H144987   0.631   1.744  15.979 -0.3487  0.4817 -1.2596
 7832TIP3    H244988   0.779   1.713  15.991 -0.5581  0.4298  1.4164
 7833TIP3   OH244989   2.535   6.303  13.534 -0.6569 -0.2079 -0.2470
 7833TIP3    H144990   2.541   6.329  13.442 -1.2752  3.5985  0.7253
 7833TIP3    H244991   2.553   6.383  13.583 -1.6028 -1.8803  2.9508
 7834TIP3   OH244992   0.303   5.143   2.572 -0.0380  0.2840 -0.4429
 7834TIP3    H144993   0.398   5.136   2.563 -0.0237 -1.1535  0.6599
 7834TIP3    H244994   0.281   5.226   2.528  2.1097  2.2795  2.0518
 7835TIP3   OH244995   2.525   4.783  12.871  0.0252 -0.3062  0.1799
 7835TIP3    H144996   2.487   4.738  12.947  0.9577 -1.4654 -0.0362
 7835TIP3    H244997   2.520   4.876  12.894 -0.1302 -0.6211  1.4638
 7836TIP3   OH244998   1.178   2.743   4.242 -0.1336  0.0897 -0.1691
 7836TIP3    H144999   1.113   2.718   4.177  0.2478 -1.3091 -0.0291
 7836TIP3    H245000   1.255   2.769   4.190 -0.4120  0.6438 -0.3076
 7837TIP3   OH245001   5.025   1.113   6.402 -0.1580  0.0301 -0.0086
 7837TIP3    H145002   4.934   1.112   6.433 -0.4099 -0.2685 -0.7449
 7837TIP3    H245003   5.033   1.196   6.355 -0.0661  0.0361  0.0185
 7838TIP3   OH245004   3.583   4.492   1.083 -0.0621 -0.4952 -0.1357
 7838TIP3    H145005   3.587   4.456   1.172  0.4196  0.8197  0.3846
 7838TIP3    H245006   3.623   4.424   1.029 -1.1820 -1.7107  0.5116
 7839TIP3   OH245007   4.028   1.726  14.424 -0.7556  0.5348  0.1673
 7839TIP3    H145008   4.034   1.633  14.400 -2.5636  0.9056 -1.8175
 7839TIP3    H245009   3.966   1.727  14.497 -1.4030  0.2950 -0.3823
 7840TIP3   OH245010   4.907   1.256   5.350  0.3526 -0.2804 -0.5177
 7840TIP3    H145011   4.832   1.289   5.301 -0.0671  0.8811  0.8783
 7840TIP3    H245012   4.935   1.179   5.302 -2.5176 -1.4658 -0.3894
 7841TIP3   OH245013   6.360   0.204   5.256 -0.6120 -0.0322  0.6434
 7841TIP3    H145014   6.387   0.201   5.164 -0.4493  0.0692  0.6897
 7841TIP3    H245015   6.266   0.226   5.252 -1.2108 -2.4423  0.3999
 7842TIP3   OH245016   1.107   5.115   1.547 -0.2650 -0.2013  0.5771
 7842TIP3    H145017   1.068   5.180   1.605 -0.5342  0.7656 -0.6665
 7842TIP3    H245018   1.159   5.166   1.485 -2.3852 -0.9449 -1.8979
 7843TIP3   OH245019   5.908   0.014  15.749 -0.2191 -0.0672  0.4125
 7843TIP3    H145020   5.934  -0.078  15.759 -0.8186 -0.2356  0.4618
 7843TIP3    H245021   5.847   0.029  15.821 -2.1754 -0.3962 -1.1229
 7844TIP3   OH245022   3.720   4.087  11.174  0.4483  0.0585 -0.3338
 7844TIP3    H145023   3.731   4.010  11.230  2.2126 -0.6491 -1.6218
 7844TIP3    H245024   3.785   4.149  11.207  0.7149  0.0623 -0.8631
 7845TIP3   OH245025   5.899   6.041   5.339 -0.3121 -0.1337 -0.3154
 7845TIP3    H145026   5.835   6.051   5.269 -0.0329 -2.2998 -0.9103
 7845TIP3    H245027   5.973   6.095   5.311 -0.7693  0.1390 -1.0059
 7846TIP3   OH245028   4.693   0.758   5.372  0.5567  0.0468 -0.3581
 7846TIP3    H145029   4.639   0.711   5.435  0.7901 -0.6259 -0.6554
 7846TIP3    H245030   4.742   0.821   5.425 -0.9941  1.1146 -0.1699
 7847TIP3   OH245031   0.861   0.763   4.863 -0.5169  0.3967 -0.4525
 7847TIP3    H145032   0.942   0.763   4.914  0.5666  0.4144 -2.1293
 7847TIP3    H245033   0.873   0.693   4.799 -2.5520 -0.7437  0.3876
 7848TIP3   OH245034   4.354   5.094  15.914 -0.4115  0.7112 -0.2323
 7848TIP3    H145035   4.320   5.006  15.930  1.2125  0.0650 -0.2219
 7848TIP3    H245036   4.342   5.108  15.820  0.2610  0.0551 -0.4247
 7849TIP3   OH245037   3.826   4.741   3.462  0.2976  0.4606 -0.3344
 7849TIP3    H145038   3.883   4.784   3.525  0.5463  0.6171 -0.6684
 7849TIP3    H245039   3.775   4.811   3.423  0.5805  0.4310 -0.7542
 7850TIP3   OH245040   5.355   4.978  16.389  0.1950 -0.1159  0.1183
 7850TIP3    H145041   5.416   4.977  16.316  0.1109  2.0362  0.0032
 7850TIP3    H245042   5.377   4.900  16.439  0.9093 -1.0891 -1.6449
 7851TIP3   OH245043   0.391   5.161   4.924  0.0880 -0.4403  0.3749
 7851TIP3    H145044   0.433   5.183   5.007  1.2347 -1.5954  0.0997
 7851TIP3    H245045   0.448   5.199   4.857  0.0388 -0.9325  0.0516
 7852TIP3   OH245046   2.518   5.994  12.041 -0.3478  0.0873 -0.4243
 7852TIP3    H145047   2.524   6.070  12.098 -0.1524  0.2217 -0.6246
 7852TIP3    H245048   2.560   5.924  12.090 -0.8327  0.0235 -0.0967
 7853TIP3   OH245049   5.292   5.675  16.489  0.1650  0.2357 -0.3702
 7853TIP3    H145050   5.337   5.718  16.416 -0.1153  1.6599  0.2695
 7853TIP3    H245051   5.234   5.743  16.525 -1.7968 -1.2938 -0.5858
 7854TIP3   OH245052   3.198   0.768  12.052 -0.1756  0.6133  0.6412
 7854TIP3    H145053   3.106   0.754  12.072 -0.0628 -0.0160  0.7276
 7854TIP3    H245054   3.243   0.761  12.136  0.2138 -1.3540  0.2942
 7855TIP3   OH245055   0.906   3.602   3.769  0.5561  0.2967 -0.6666
 7855TIP3    H145056   0.896   3.630   3.678 -0.6556  0.3684 -0.5259
 7855TIP3    H245057   0.843   3.656   3.818 -0.3184 -1.2129 -0.0948
 7856TIP3   OH245058   0.730   5.571   5.373 -0.0206  0.4064 -0.2993
 7856TIP3    H145059   0.818   5.587   5.408  0.0602  0.7901 -0.6719
 7856TIP3    H245060   0.744   5.547   5.282 -0.2606 -0.1922 -0.1800
 7857TIP3   OH245061   2.784   2.150   1.556 -0.1074 -0.6314  0.0008
 7857TIP3    H145062   2.840   2.135   1.632 -1.0339 -0.9739  0.6268
 7857TIP3    H245063   2.695   2.135   1.588 -0.5447 -0.3421 -1.0401
 7858TIP3   OH245064   2.261   6.397   1.137 -0.4056 -0.0222  0.0497
 7858TIP3    H145065   2.309   6.475   1.163 -0.7225  0.7602 -1.6697
 7858TIP3    H245066   2.291   6.378   1.048 -1.3705 -1.0414 -0.0755
 7859TIP3   OH245067   1.769   1.733  12.913  0.1745  0.0952 -0.3504
 7859TIP3    H145068   1.811   1.661  12.866 -1.7372 -0.1523 -1.7419
 7859TIP3    H245069   1.802   1.726  13.002 -0.5185 -2.9631 -0.2699
 7860TIP3   OH245070   4.196   3.428   4.300 -0.6307 -0.2022 -0.4607
 7860TIP3    H145071   4.283   3.401   4.270 -0.4967  1.3134 -1.5099
 7860TIP3    H245072   4.211   3.472   4.383 -0.0396  2.2768 -1.8170
 7861TIP3   OH245073   5.081   5.334  14.175  0.2469  0.4306  0.2397
 7861TIP3    H145074   5.067   5.334  14.080  2.6644 -0.6902 -0.1677
 7861TIP3    H245075   5.173   5.308  14.185  0.6179  2.5687  2.8195
 7862TIP3   OH245076   2.907   6.019   5.606 -0.0031 -0.7112  0.6437
 7862TIP3    H145077   2.870   5.979   5.684 -1.3807 -0.5449  0.0888
 7862TIP3    H245078   2.897   6.113   5.621  2.7327 -0.5519  1.7081
 7863TIP3   OH245079   4.774   5.604   5.200  0.4084 -0.1312  0.4192
 7863TIP3    H145080   4.817   5.664   5.140  0.2903 -0.3568  0.1015
 7863TIP3    H245081   4.774   5.649   5.285 -1.3495  1.1345 -0.2076
 7864TIP3   OH245082   2.286   1.170   2.857 -0.2534 -0.2003 -0.7749
 7864TIP3    H145083   2.293   1.263   2.833  0.4632  0.2586  1.1054
 7864TIP3    H245084   2.377   1.141   2.865 -0.4471 -0.0628  2.2653
 7865TIP3   OH245085   0.117   3.635  13.035  0.0997 -0.0814  0.0263
 7865TIP3    H145086   0.102   3.704  13.099 -1.6511 -1.4938  1.1672
 7865TIP3    H245087   0.212   3.622  13.036  0.0304 -0.8475  3.1942
 7866TIP3   OH245088   4.115   6.634   5.612 -0.2070  0.3570 -0.5014
 7866TIP3    H145089   4.191   6.675   5.571  0.6416 -0.5491  0.1403
 7866TIP3    H245090   4.148   6.602   5.696 -0.8555 -1.6260 -0.9807
 7867TIP3   OH245091   2.264   5.479  14.442 -0.3471  0.4912  0.2698
 7867TIP3    H145092   2.275   5.574  14.438 -1.1167  0.5162 -2.1031
 7867TIP3    H245093   2.232   5.455  14.355  2.2404 -2.2637 -0.0040
 7868TIP3   OH245094   4.410   6.604  17.109 -0.4186 -0.5720 -0.2904
 7868TIP3    H145095   4.386   6.697  17.112 -1.2958 -0.8290  1.2005
 7868TIP3    H245096   4.492   6.599  17.158 -1.0163 -0.7553  0.7133
 7869TIP3   OH245097   2.744   1.514  14.213 -0.6264 -0.2336 -0.2411
 7869TIP3    H145098   2.826   1.559  14.229 -0.2066 -1.3793  0.9396
 7869TIP3    H245099   2.729   1.522  14.119  0.6184  0.3209 -0.3927
 7870TIP3   OH245100   6.050   4.543   4.086  0.3612 -0.2469  0.4760
 7870TIP3    H145101   6.005   4.482   4.027 -0.0453  2.1401 -1.7969
 7870TIP3    H245102   6.037   4.629   4.046  2.8090  1.0940  2.3848
 7871TIP3   OH245103   2.260   4.239  15.118  0.3410 -0.1339 -0.3669
 7871TIP3    H145104   2.341   4.288  15.129  0.7994 -1.2132  1.3026
 7871TIP3    H245105   2.283   4.166  15.060  0.4357 -0.1634 -0.2900
 7872TIP3   OH245106   5.994   5.535  15.470 -0.2741  0.2187  0.0028
 7872TIP3    H145107   6.085   5.557  15.451  0.1547 -0.5223  1.1232
 7872TIP3    H245108   5.943   5.601  15.423  0.7803 -0.4108 -2.0754
 7873TIP3   OH245109   4.430   1.291  15.309  0.0777  0.0767  0.0682
 7873TIP3    H145110   4.383   1.235  15.371 -1.5570  0.1346 -1.0702
 7873TIP3    H245111   4.405   1.380  15.334 -0.6190  0.0975 -0.6701
 7874TIP3   OH245112   4.382   4.561   0.282  0.2151  0.0114  0.4200
 7874TIP3    H145113   4.411   4.492   0.341 -0.3612  1.5139  2.5356
 7874TIP3    H245114   4.293   4.536   0.257  0.2922 -0.3907  0.5533
 7875TIP3   OH245115   1.691   3.924   1.145 -0.3546 -0.2453  0.1149
 7875TIP3    H145116   1.676   4.016   1.168 -0.6555 -0.4907  0.9010
 7875TIP3    H245117   1.706   3.880   1.229 -1.3056 -1.1170 -0.1585
 7876TIP3   OH245118   1.497   2.165  12.772 -0.1586 -0.1054 -0.2137
 7876TIP3    H145119   1.584   2.128  12.785 -0.1512 -0.3353 -0.8943
 7876TIP3    H245120   1.466   2.185  12.860  1.1872  1.3510 -0.0429
 7877TIP3   OH245121   2.588   6.131  15.577 -0.4922 -0.3413  0.1972
 7877TIP3    H145122   2.552   6.208  15.533  1.1971  0.7887  0.7332
 7877TIP3    H245123   2.555   6.057  15.527 -0.4703  0.8247 -1.5995
 7878TIP3   OH245124   3.658   6.385  16.012 -0.0447  0.0071  0.5022
 7878TIP3    H145125   3.563   6.385  16.025 -0.1980 -0.4988 -0.5165
 7878TIP3    H245126   3.669   6.369  15.918  1.0711 -0.8229  0.7609
 7879TIP3   OH245127   1.183   4.296   0.221 -0.1873 -1.0687  0.5581
 7879TIP3    H145128   1.127   4.368   0.192 -3.4318 -3.7293 -0.1351
 7879TIP3    H245129   1.272   4.330   0.214 -1.3517  1.4903 -3.7905
 7880TIP3   OH245130   0.254   2.029  13.221 -0.1246 -0.4700  0.4150
 7880TIP3    H145131   0.261   1.936  13.200 -0.3935 -1.1462  3.1493
 7880TIP3    H245132   0.320   2.044  13.289 -0.0715  1.3280 -0.0064
 7881TIP3   OH245133   1.903   5.159   5.207  0.1823 -0.0012  0.2561
 7881TIP3    H145134   1.963   5.200   5.145 -0.4925 -1.3652 -1.3541
 7881TIP3    H245135   1.817   5.197   5.187  0.3802  1.4740  2.1227
 7882TIP3   OH245136   1.107   2.038  11.794 -0.0843  0.0171 -0.2050
 7882TIP3    H145137   1.121   2.118  11.844 -0.1055 -0.1644  0.0879
 7882TIP3    H245138   1.101   2.068  11.703  3.9605 -0.0675 -0.6003
 7883TIP3   OH245139   1.649   1.058  16.067 -0.2438 -0.0151 -0.4416
 7883TIP3    H145140   1.691   1.105  16.139  2.5382  1.2537 -2.7644
 7883TIP3    H245141   1.684   0.970  16.071 -1.3149 -0.3978  0.6852
 7884TIP3   OH245142   3.681   2.137  14.345  0.5027  0.2982  0.1217
 7884TIP3    H145143   3.636   2.189  14.278 -0.2211 -0.8777 -0.3105
 7884TIP3    H245144   3.613   2.113  14.407  1.2056  1.5175  1.3959
 7885TIP3   OH245145   1.667   5.425   0.347 -0.9756  0.1934  0.5703
 7885TIP3    H145146   1.669   5.521   0.352 -0.6679  0.1647  1.0211
 7885TIP3    H245147   1.682   5.405   0.255  1.4072  0.5089  0.8554
 7886TIP3   OH245148   5.198   1.326   5.153 -0.1280  0.5607 -0.1292
 7886TIP3    H145149   5.281   1.295   5.118  0.6742 -0.4625  2.5279
 7886TIP3    H245150   5.139   1.251   5.144 -0.2376  0.6640 -0.2818
 7887TIP3   OH245151   5.388   0.710   4.342  0.2225  0.0106  0.1903
 7887TIP3    H145152   5.479   0.695   4.315  0.4364  0.4583  0.6473
 7887TIP3    H245153   5.393   0.786   4.399 -0.1913 -1.1227  1.7523
 7888TIP3   OH245154   1.323   4.660   5.624  0.6821  0.1404  0.3716
 7888TIP3    H145155   1.287   4.579   5.589 -0.3284  0.6011  0.3233
 7888TIP3    H245156   1.416   4.643   5.634  0.3661 -1.2730  1.0289
 7889TIP3   OH245157   3.070   5.105   2.316 -0.2201 -0.2853 -0.4710
 7889TIP3    H145158   2.998   5.166   2.299  0.0988  0.3995  0.6411
 7889TIP3    H245159   3.043   5.057   2.394  1.6899  1.8056  1.5420
 7890TIP3   OH245160   3.281   1.002   2.831 -0.4458 -0.1537  0.5705
 7890TIP3    H145161   3.374   1.020   2.845  0.1376 -1.2358 -1.6606
 7890TIP3    H245162   3.238   1.038   2.908  1.6382  1.9550  0.8066
 7891TIP3   OH245163   5.563   3.376  16.563 -0.0972 -0.1029 -0.5415
 7891TIP3    H145164   5.543   3.438  16.634 -0.2500 -0.7983  0.0256
 7891TIP3    H245165   5.556   3.290  16.604 -0.9129 -0.5403 -1.5746
 7892TIP3   OH245166   0.111   0.361   3.094  0.8843  0.2837  0.3236
 7892TIP3    H145167   0.130   0.382   3.185  2.0198  1.8804 -0.2628
 7892TIP3    H245168   0.037   0.418   3.071  1.0895  0.4270  0.0212
 7893TIP3   OH245169   0.984   5.600   0.742  0.5181  0.6803 -0.7471
 7893TIP3    H145170   0.914   5.544   0.775  2.8887 -2.0612 -0.2153
 7893TIP3    H245171   1.002   5.661   0.814 -0.5062  0.6186 -0.4327
 7894TIP3   OH245172   4.128   4.544  13.198  0.1234 -0.4932  0.7875
 7894TIP3    H145173   4.134   4.640  13.198  1.7715 -0.5763  0.5572
 7894TIP3    H245174   4.054   4.524  13.141 -0.2123  0.6436  0.8202
 7895TIP3   OH245175   1.468   3.682  10.429  0.2209  0.5892 -0.3253
 7895TIP3    H145176   1.468   3.644  10.517 -4.1405 -2.4828 -1.4871
 7895TIP3    H245177   1.415   3.762  10.438 -1.5622 -0.5574 -0.4142
 7896TIP3   OH245178   1.443   1.216   1.064  0.1071 -0.3662 -0.5651
 7896TIP3    H145179   1.431   1.146   0.999 -0.1323  0.4654 -1.4179
 7896TIP3    H245180   1.389   1.288   1.032  2.2284  1.0820 -0.9357
 7897TIP3   OH245181   0.714   4.764   2.135 -0.6310 -0.1879  0.0115
 7897TIP3    H145182   0.725   4.859   2.138 -0.2389 -0.2422  0.4962
 7897TIP3    H245183   0.660   4.748   2.058  0.5439  0.3075 -0.9348
 7898TIP3   OH245184   5.476   2.415   3.036  0.2736 -0.1449 -0.1854
 7898TIP3    H145185   5.514   2.501   3.018 -1.5166  0.6703 -0.2624
 7898TIP3    H245186   5.533   2.376   3.102  0.1985  1.8068  1.0814
 7899TIP3   OH245187   5.140   3.998   0.949 -0.3550 -0.2667  0.5212
 7899TIP3    H145188   5.049   4.018   0.929 -0.0577 -0.9290 -1.6152
 7899TIP3    H245189   5.164   3.930   0.887  2.2311  1.3752 -0.3559
 7900TIP3   OH245190   2.774   0.875   1.183  0.6641  0.1431  0.3004
 7900TIP3    H145191   2.816   0.958   1.208 -3.6457  2.2292  1.1773
 7900TIP3    H245192   2.752   0.886   1.090  0.6580 -0.3002  0.2472
 7901TIP3   OH245193   4.671   2.238  13.209 -0.0527  0.0087 -0.2036
 7901TIP3    H145194   4.697   2.329  13.199 -0.3370  0.1933  0.6759
 7901TIP3    H245195   4.586   2.242  13.254 -0.2435 -0.6712 -0.4989
 7902TIP3   OH245196   1.974   3.762  14.357  0.6659 -0.1477  0.1042
 7902TIP3    H145197   2.051   3.785  14.304  0.0118  0.8402 -0.4376
 7902TIP3    H245198   2.008   3.751  14.446  1.3658  0.7416 -0.0493
 7903TIP3   OH245199   1.784   0.249   4.640  0.2663 -0.0159  0.0099
 7903TIP3    H145200   1.764   0.324   4.697  1.3910  0.7480 -0.5668
 7903TIP3    H245201   1.735   0.267   4.560  2.6468  1.5340 -1.1644
 7904TIP3   OH245202   0.859   6.066  12.981 -1.0951 -0.3361  0.0117
 7904TIP3    H145203   0.789   6.131  12.987 -1.5514 -0.7563 -0.7025
 7904TIP3    H245204   0.871   6.036  13.072 -1.2728  0.3329  0.2539
 7905TIP3   OH245205   5.787   0.791  16.276 -0.4407  0.2891 -0.2537
 7905TIP3    H145206   5.830   0.760  16.356 -1.0884 -0.8739 -0.3570
 7905TIP3    H245207   5.706   0.741  16.270 -0.8339  1.0060 -1.1696
 7906TIP3   OH245208   2.217   6.533   3.347 -0.3168  0.5983  0.4751
 7906TIP3    H145209   2.246   6.462   3.289 -0.2168  2.1465 -1.4406
 7906TIP3    H245210   2.125   6.545   3.325  0.4960  3.3539 -1.7943
 7907TIP3   OH245211   2.017   4.925   3.025  0.4452  0.2417 -0.5341
 7907TIP3    H145212   2.029   4.966   2.939 -0.6191  0.3925 -0.6187
 7907TIP3    H245213   2.015   4.831   3.007 -0.6205  0.3040 -0.7925
 7908TIP3   OH245214   2.689   2.411  12.090 -0.1689  0.3847 -0.5443
 7908TIP3    H145215   2.637   2.351  12.143  0.9729  0.6767  0.9586
 7908TIP3    H245216   2.751   2.354  12.044  0.2518  0.3030  0.1075
 7909TIP3   OH245217   6.547   2.662  11.505 -0.2690  0.1268 -0.1889
 7909TIP3    H145218   6.457   2.671  11.474  0.0622 -0.3498 -1.3046
 7909TIP3    H245219   6.598   2.643  11.427  0.7939  0.2835  0.4507
 7910TIP3   OH245220   6.281   1.838  13.151 -0.1279 -0.1488 -0.1671
 7910TIP3    H145221   6.285   1.851  13.246  0.9883 -1.1805 -0.0522
 7910TIP3    H245222   6.264   1.744  13.141 -3.4439  0.4823 -0.9793
 7911TIP3   OH245223   0.509   5.358  13.294  0.1288  0.0106  0.2003
 7911TIP3    H145224   0.484   5.314  13.213  0.0920  2.7340 -1.3329
 7911TIP3    H245225   0.477   5.301  13.364  0.3673 -2.4901 -1.6786
 7912TIP3   OH245226   3.386   2.698   1.355  0.9860 -0.0464 -0.0817
 7912TIP3    H145227   3.398   2.786   1.390 -1.0287  0.0614  0.4112
 7912TIP3    H245228   3.371   2.711   1.262 -2.8611  0.4906  0.5356
 7913TIP3   OH245229   5.965   3.732   2.394  0.5084 -0.4032 -0.1785
 7913TIP3    H145230   5.984   3.673   2.321 -1.2116  0.5369 -1.4299
 7913TIP3    H245231   5.885   3.778   2.368  1.5738  2.1896  0.9144
 7914TIP3   OH245232   2.261   5.383   1.899  0.3146 -0.3197 -0.1509
 7914TIP3    H145233   2.337   5.385   1.841 -0.1540 -0.4901 -0.7664
 7914TIP3    H245234   2.207   5.457   1.871  1.1100  0.9275  1.4588
 7915TIP3   OH245235   1.821   0.484   3.237 -0.2787 -0.1444  0.7443
 7915TIP3    H145236   1.826   0.403   3.187  1.2640  0.3362  0.0642
 7915TIP3    H245237   1.734   0.520   3.217  0.1393 -0.1991 -1.2385
 7916TIP3   OH245238   5.732   5.569  11.400 -0.3863  0.1189  0.8247
 7916TIP3    H145239   5.683   5.502  11.447 -0.0921  0.1477  1.1789
 7916TIP3    H245240   5.701   5.564  11.310 -0.8837 -0.0091  1.0032
 7917TIP3   OH245241   6.614   6.237   1.342  0.0619  0.3957  0.0837
 7917TIP3    H145242   6.591   6.248   1.249 -1.6302 -0.0572  0.4289
 7917TIP3    H245243   6.709   6.225   1.342  0.0790  0.3874 -1.5919
 7918TIP3   OH245244   5.071   5.026   2.295 -0.0554  0.5820 -0.0451
 7918TIP3    H145245   5.163   5.054   2.287 -0.1023  0.6679 -0.2888
 7918TIP3    H245246   5.021   5.103   2.267 -0.2234  0.8361  0.9187
 7919TIP3   OH245247   4.109   5.641  13.681 -0.1303 -0.5403 -0.2063
 7919TIP3    H145248   4.100   5.591  13.762  0.1217  0.1575  0.2609
 7919TIP3    H245249   4.134   5.577  13.615 -0.7661 -1.1883  0.1737
 7920TIP3   OH245250   0.133   2.795  11.278 -0.1139 -0.1284 -0.1249
 7920TIP3    H145251   0.060   2.751  11.235 -0.3775 -1.2525  1.4260
 7920TIP3    H245252   0.092   2.864  11.330 -0.0539 -0.6203  0.5754
 7921TIP3   OH245253   1.426   4.897   0.812  0.5608 -0.2234  0.5713
 7921TIP3    H145254   1.388   4.916   0.897 -1.1483  0.0642 -0.2445
 7921TIP3    H245255   1.400   4.971   0.757  1.6116 -0.4266 -0.2292
 7922TIP3   OH245256   3.715   3.513   6.257 -0.3914  0.1132 -0.5503
 7922TIP3    H145257   3.781   3.444   6.253  1.6217  1.8186  2.2790
 7922TIP3    H245258   3.645   3.476   6.311 -0.3059 -0.4855 -0.8408
 7923TIP3   OH245259   0.866   1.465  13.819  0.4023  0.0451  0.2509
 7923TIP3    H145260   0.931   1.416  13.868 -0.1044 -0.4669  0.4178
 7923TIP3    H245261   0.916   1.516  13.756  0.9422 -0.5263  0.2233
 7924TIP3   OH245262   5.730   5.261   4.576  0.0751 -0.1387  0.6774
 7924TIP3    H145263   5.760   5.300   4.494 -1.1232 -2.2171 -0.7986
 7924TIP3    H245264   5.640   5.293   4.587  0.3985  0.5187  1.4405
 7925TIP3   OH245265   4.661   1.734  12.379 -0.3882 -0.2541  0.1167
 7925TIP3    H145266   4.610   1.656  12.360 -0.5542 -0.3567  0.9710
 7925TIP3    H245267   4.752   1.704  12.382 -0.5767 -0.7182  1.9486
 7926TIP3   OH245268   5.365   6.401   5.894  0.2668 -0.1025 -0.4632
 7926TIP3    H145269   5.428   6.388   5.823  0.5978 -1.8547  0.1176
 7926TIP3    H245270   5.317   6.318   5.897  1.9935 -1.0654  3.0271
 7927TIP3   OH245271   0.090   0.196  12.818  0.0912  0.3210 -0.4853
 7927TIP3    H145272   0.154   0.129  12.791 -0.8554 -0.1899 -1.4810
 7927TIP3    H245273   0.006   0.152  12.813 -0.3830  1.1026  0.5058
 7928TIP3   OH245274   3.585   0.557   4.397  0.1679  0.3329 -0.5439
 7928TIP3    H145275   3.624   0.473   4.373  0.4430  0.2655  0.0950
 7928TIP3    H245276   3.640   0.622   4.354  0.1827  0.1907 -0.7368
 7929TIP3   OH245277   3.146   6.236  11.863  0.3172 -0.3502  0.2782
 7929TIP3    H145278   3.110   6.148  11.854 -0.7073  0.2139 -1.2688
 7929TIP3    H245279   3.170   6.242  11.956 -3.8694 -0.6446  1.4748
 7930TIP3   OH245280   5.569   3.119  15.875 -0.0972 -0.1662  1.0178
 7930TIP3    H145281   5.521   3.045  15.838  1.4954 -0.5102 -0.4593
 7930TIP3    H245282   5.534   3.196  15.830  1.6179 -0.5524 -1.0339
 7931TIP3   OH245283   0.328   2.090  12.937  0.2953  0.5401 -0.2295
 7931TIP3    H145284   0.312   2.056  13.024  4.8241 -2.5121 -0.4063
 7931TIP3    H245285   0.264   2.047  12.881 -0.7438  0.3180  1.1113
 7932TIP3   OH245286   3.858   0.760  12.881  0.4291  0.5179  0.0641
 7932TIP3    H145287   3.834   0.812  12.957  1.8526  0.6635  0.4346
 7932TIP3    H245288   3.954   0.766  12.877  0.4479 -0.3145 -1.1420
 7933TIP3   OH245289   4.480   0.470   1.526 -0.4007 -0.0906  0.3515
 7933TIP3    H145290   4.556   0.484   1.583 -0.3287  1.6650 -0.1299
 7933TIP3    H245291   4.508   0.401   1.465  1.1376  1.1158 -0.3507
 7934TIP3   OH245292   3.890   2.429   0.412  0.6415  0.1210  0.2963
 7934TIP3    H145293   3.880   2.480   0.492  0.5721  0.0403  0.3384
 7934TIP3    H245294   3.933   2.348   0.439  1.5575  0.5401  0.0877
 7935TIP3   OH245295   0.652   1.355   2.384  0.0537 -0.0165 -0.1692
 7935TIP3    H145296   0.570   1.336   2.429  0.2295 -2.4146 -0.7772
 7935TIP3    H245297   0.627   1.368   2.292  0.2837 -0.0918 -0.2446
 7936TIP3   OH245298   5.394   2.553   4.553 -0.2605 -0.1625 -0.4945
 7936TIP3    H145299   5.313   2.591   4.589  0.1073  0.8811 -0.7538
 7936TIP3    H245300   5.372   2.461   4.536 -0.9565 -0.2536  0.7923
 7937TIP3   OH245301   0.082   4.128   2.581  0.2761 -0.0264  0.6757
 7937TIP3    H145302   0.000   4.087   2.607  0.6847 -1.1144  0.2449
 7937TIP3    H245303   0.149   4.063   2.600  1.0712  0.9486  1.2417
 7938TIP3   OH245304   4.390   2.573   3.095  0.2456 -0.3382 -0.9291
 7938TIP3    H145305   4.324   2.509   3.124 -0.4864  0.1528 -1.4953
 7938TIP3    H245306   4.466   2.520   3.072 -0.4097 -1.0211 -1.5435
 7939TIP3   OH245307   4.436   2.126  15.976 -0.0029 -0.6127 -0.5992
 7939TIP3    H145308   4.488   2.119  15.896  1.4529 -1.0110  0.3597
 7939TIP3    H245309   4.458   2.048  16.026 -1.0350 -0.4562  0.1174
 7940TIP3   OH245310   5.967   5.868  13.088 -0.6775  0.0060 -0.3031
 7940TIP3    H145311   5.996   5.777  13.081 -2.1928 -0.4764 -0.4329
 7940TIP3    H245312   6.046   5.919  13.070  0.3036 -1.2774  0.2633
 7941TIP3   OH245313   2.605   3.818  14.658  0.5288  0.2832 -0.2996
 7941TIP3    H145314   2.649   3.816  14.573 -3.1331  0.7076 -2.3371
 7941TIP3    H245315   2.597   3.911  14.679 -0.9137  0.2896 -0.8230
 7942TIP3   OH245316   3.356   1.629   0.220 -0.1414 -0.0256  0.7449
 7942TIP3    H145317   3.443   1.669   0.216 -0.8503  2.3791  5.2594
 7942TIP3    H245318   3.366   1.557   0.282 -0.8342 -1.3790 -0.6901
 7943TIP3   OH245319   0.700   2.054   3.033 -0.3442  0.2876  0.8146
 7943TIP3    H145320   0.794   2.036   3.027 -0.6030 -1.4431  1.5849
 7943TIP3    H245321   0.693   2.149   3.023  1.3804  0.3147 -0.3349
 7944TIP3   OH245322   2.850   6.210  15.684  0.0808  0.0354  0.6496
 7944TIP3    H145323   2.768   6.191  15.639  0.7645 -0.1712 -0.5373
 7944TIP3    H245324   2.902   6.131  15.674  1.6621  1.2760 -1.4457
 7945TIP3   OH245325   4.515   3.869  13.565  0.3219 -0.0034  0.1330
 7945TIP3    H145326   4.462   3.792  13.547  1.8216 -0.6420 -1.6859
 7945TIP3    H245327   4.576   3.840  13.633 -0.4700  0.2152  0.9504
 7946TIP3   OH245328   0.899   1.448   1.824 -0.0539 -0.1910  0.1981
 7946TIP3    H145329   0.830   1.510   1.802  0.3582 -0.0860 -0.7858
 7946TIP3    H245330   0.932   1.417   1.740  0.3312 -1.0940  0.6763
 7947TIP3   OH245331   0.512   5.118   0.635 -0.4140  0.0669  0.0050
 7947TIP3    H145332   0.423   5.145   0.614 -0.9059 -1.8498 -0.4192
 7947TIP3    H245333   0.526   5.149   0.725 -1.0032  1.5372 -0.3841
 7948TIP3   OH245334   6.345   3.394   4.778  0.0439 -0.5393 -0.8474
 7948TIP3    H145335   6.278   3.461   4.789  2.0051  1.4188 -0.4632
 7948TIP3    H245336   6.313   3.341   4.705 -1.2401  1.2326 -1.6308
 7949TIP3   OH245337   3.967   3.747   1.024  0.3833 -0.3242  0.0756
 7949TIP3    H145338   3.957   3.806   0.950 -2.4147 -1.8826 -0.8902
 7949TIP3    H245339   3.980   3.804   1.100  1.4081  1.3523 -1.3385
 7950TIP3   OH245340   0.582   2.163   1.855 -0.1713  0.6730  0.0756
 7950TIP3    H145341   0.513   2.175   1.789  0.6531  1.0177 -0.7298
 7950TIP3    H245342   0.542   2.194   1.937 -0.9634  0.8982 -0.3902
 7951TIP3   OH245343   6.228   2.062  14.498  0.4114 -0.1088  0.1570
 7951TIP3    H145344   6.147   2.104  14.471  0.2140 -0.3607  0.3585
 7951TIP3    H245345   6.297   2.116  14.460  0.1865  1.0174  1.3266
 7952TIP3   OH245346   5.361   4.979  13.456 -0.3345  0.6108 -0.7625
 7952TIP3    H145347   5.266   4.983  13.451 -0.4011 -1.1492 -1.3220
 7952TIP3    H245348   5.386   4.922  13.383  1.0770  0.3598 -0.0982
 7953TIP3   OH245349   3.402   0.717  13.451 -0.2147  0.2142  0.1014
 7953TIP3    H145350   3.335   0.693  13.388  0.1864  1.4395 -0.8109
 7953TIP3    H245351   3.407   0.642  13.511 -1.6677 -0.3053 -0.4169
 7954TIP3   OH245352   0.677   0.955  12.259 -0.1228 -0.5742 -0.0458
 7954TIP3    H145353   0.667   1.030  12.318  0.1283 -0.3237 -0.3242
 7954TIP3    H245354   0.599   0.956  12.205  0.7190  0.5431 -1.2577
 7955TIP3   OH245355   0.336   5.885  15.593 -0.3741 -0.2777  0.1748
 7955TIP3    H145356   0.286   5.936  15.529  0.5686  0.2056 -0.1791
 7955TIP3    H245357   0.332   5.938  15.673  0.6923  0.4121 -0.2209
 7956TIP3   OH245358   3.910   0.885  13.833  0.8092 -0.3128  0.6415
 7956TIP3    H145359   3.985   0.827  13.820  0.1402 -1.5448  2.1039
 7956TIP3    H245360   3.866   0.887  13.748  1.1211 -1.5743  0.4376
 7957TIP3   OH245361   4.852   2.071   0.673  0.1014  0.0626  0.1249
 7957TIP3    H145362   4.760   2.046   0.676  0.3132 -0.8349 -0.4326
 7957TIP3    H245363   4.862   2.136   0.742 -1.0483  0.5026 -0.1071
 7958TIP3   OH245364   2.500   3.853  15.397 -0.5840  0.5164 -0.0305
 7958TIP3    H145365   2.573   3.910  15.376 -0.2799  0.2005  0.1632
 7958TIP3    H245366   2.463   3.828  15.312 -0.4587  0.6643 -0.1268
 7959TIP3   OH245367   6.342   3.230   4.567  0.1203 -0.3959 -0.3602
 7959TIP3    H145368   6.396   3.154   4.590  0.5289  0.4784  1.6565
 7959TIP3    H245369   6.397   3.282   4.509  0.3560 -0.9191 -0.6186
 7960TIP3   OH245370   4.746   2.758  16.047 -0.4088  0.1127 -0.5677
 7960TIP3    H145371   4.752   2.665  16.068 -1.7507 -0.2790 -1.8128
 7960TIP3    H245372   4.662   2.767  16.003 -0.2257  1.9005 -0.5865
 7961TIP3   OH245373   4.903   3.933   5.901 -0.1101 -0.3597  0.3906
 7961TIP3    H145374   4.959   3.912   5.826 -0.7731 -0.3999 -0.0999
 7961TIP3    H245375   4.964   3.955   5.971  0.5484  3.5683 -1.2619
 7962TIP3   OH245376   1.319   0.387  12.692  0.2258  0.0374  0.0580
 7962TIP3    H145377   1.241   0.370  12.743  0.4200  1.3595  0.8083
 7962TIP3    H245378   1.374   0.309  12.704 -0.3465 -0.2613  0.6926
 7963TIP3   OH245379   1.358   0.826  12.160  0.4771  0.0181  0.4006
 7963TIP3    H145380   1.372   0.751  12.217 -3.2936 -0.8454  0.2840
 7963TIP3    H245381   1.304   0.886  12.211  0.1030  0.8611 -0.9468
 7964TIP3   OH245382   6.232   6.122  12.161 -0.1348 -0.1396 -0.5112
 7964TIP3    H145383   6.294   6.108  12.233  0.3996  0.8190 -0.7768
 7964TIP3    H245384   6.154   6.156  12.204  0.3325  0.8339 -0.4205
 7965TIP3   OH245385   2.342   5.551  12.284  0.1419  0.0006  0.4936
 7965TIP3    H145386   2.382   5.496  12.352 -0.1055  0.7300  1.2361
 7965TIP3    H245387   2.317   5.490  12.215  0.7397 -0.7019  0.8948
 7966TIP3   OH245388   5.491   2.051  12.275 -0.3599 -0.1793 -0.0763
 7966TIP3    H145389   5.422   2.116  12.261  1.9032  2.5675  0.9517
 7966TIP3    H245390   5.448   1.979  12.321 -2.4695  1.6407  0.8964
 7967TIP3   OH245391   4.096   6.701  15.358  0.6231  0.1540  0.2475
 7967TIP3    H145392   4.150   6.780  15.351 -0.8129  1.0236 -1.2969
 7967TIP3    H245393   4.156   6.629  15.341  1.5542  1.0257 -0.1777
 7968TIP3   OH245394   0.173   3.199   4.911 -0.8369  0.8366 -0.0593
 7968TIP3    H145395   0.228   3.163   4.980  0.2323  0.9198 -0.8581
 7968TIP3    H245396   0.197   3.150   4.832 -0.9318  1.7961 -0.6968
 7969TIP3   OH245397   6.324   0.769   0.229  1.2526  0.5678  0.1208
 7969TIP3    H145398   6.371   0.692   0.260  0.5202 -0.0681 -0.3315
 7969TIP3    H245399   6.237   0.762   0.268  0.8082  0.5580 -0.8449
 7970TIP3   OH245400   5.425   0.091   5.424 -0.3929 -0.5171 -0.0505
 7970TIP3    H145401   5.428   0.036   5.502  1.1176 -0.5815 -0.1546
 7970TIP3    H245402   5.412   0.180   5.458 -1.5221 -0.7515  0.1735
 7971TIP3   OH245403   3.895   1.267   3.280 -0.1296 -0.1641  0.1158
 7971TIP3    H145404   3.810   1.247   3.240 -0.2005 -0.4397  0.4007
 7971TIP3    H245405   3.887   1.237   3.370  0.2655 -0.1741  0.1496
 7972TIP3   OH245406   3.545   5.874  16.929  0.0123 -0.3492  0.3495
 7972TIP3    H145407   3.584   5.834  16.851 -0.3380 -1.2449  0.6285
 7972TIP3    H245408   3.507   5.956  16.898 -1.4682 -1.4377 -0.7248
 7973TIP3   OH245409   3.622   0.312  11.382 -0.0189 -0.1346 -0.0205
 7973TIP3    H145410   3.688   0.251  11.348 -0.0710  0.5386 -1.3508
 7973TIP3    H245411   3.640   0.317  11.476 -0.3834 -2.6538  0.2321
 7974TIP3   OH245412   1.663   5.526   4.176 -0.2725  0.2464  0.3252
 7974TIP3    H145413   1.648   5.496   4.266  0.4713 -1.8884 -0.2428
 7974TIP3    H245414   1.633   5.454   4.121 -2.2399  2.1765 -1.2202
 7975TIP3   OH245415   5.684   5.279  14.350  0.1371 -0.1986  0.4050
 7975TIP3    H145416   5.765   5.328  14.340 -0.2366  0.4805  0.7077
 7975TIP3    H245417   5.622   5.341  14.388 -0.7204 -0.5331 -0.4318
 7976TIP3   OH245418   4.296   4.347  15.580 -0.5357 -0.0121  0.2718
 7976TIP3    H145419   4.370   4.288  15.593 -0.5189 -0.1634 -0.5335
 7976TIP3    H245420   4.307   4.414  15.648  0.3016 -0.0604  0.1905
 7977TIP3   OH245421   3.684   3.284  14.976  0.1641  0.3209  0.1436
 7977TIP3    H145422   3.732   3.204  14.998  1.2137 -0.0244 -3.0317
 7977TIP3    H245423   3.719   3.351  15.034  0.2554 -1.2297  1.8991
 7978TIP3   OH245424   4.737   1.325  16.270 -0.1194  0.5023 -0.0309
 7978TIP3    H145425   4.771   1.308  16.358  0.6225  1.7576 -0.0636
 7978TIP3    H245426   4.642   1.317  16.279 -0.0036 -0.0254  0.7406
 7979TIP3   OH245427   6.614   5.190  13.706  0.0057 -0.2227 -0.2760
 7979TIP3    H145428   6.645   5.125  13.769  0.5786  0.8255  0.5456
 7979TIP3    H245429   6.620   5.146  13.622 -0.3605 -1.4952  0.3550
 7980TIP3   OH245430   0.314   6.333  16.802 -0.0902 -0.2640 -0.7969
 7980TIP3    H145431   0.342   6.249  16.839 -1.8732 -0.2645  0.6197
 7980TIP3    H245432   0.245   6.310  16.740 -1.5944  0.2390  0.6532
 7981TIP3   OH245433   1.454   3.594  11.489 -0.1091  0.0666 -0.2588
 7981TIP3    H145434   1.504   3.649  11.550  0.4467 -2.2252  1.4304
 7981TIP3    H245435   1.386   3.555  11.543 -0.3318 -1.1104 -1.3734
 7982TIP3   OH245436   5.440   6.141  11.934  0.7220  0.0188  0.1747
 7982TIP3    H145437   5.514   6.097  11.891  1.1393  1.0570 -0.1804
 7982TIP3    H245438   5.407   6.076  11.996  2.3173 -0.2322  0.7737
 7983TIP3   OH245439   4.718   1.449   0.343 -0.4129  0.0142 -0.7021
 7983TIP3    H145440   4.756   1.420   0.260 -1.0445 -1.2463 -0.5529
 7983TIP3    H245441   4.794   1.471   0.397  0.0955 -1.7141 -0.6963
 7984TIP3   OH245442   0.358   2.270   1.332 -0.0133  0.3796  0.6005
 7984TIP3    H145443   0.452   2.287   1.340  0.0812  0.6159 -0.7882
 7984TIP3    H245444   0.349   2.228   1.246 -0.8207 -2.3973  1.9771
 7985TIP3   OH245445   4.839   2.329   3.505  0.6094 -0.1889  0.2292
 7985TIP3    H145446   4.783   2.293   3.574 -0.1547 -0.3155 -0.4475
 7985TIP3    H245447   4.818   2.422   3.504  0.4313 -0.2309 -0.0024
 7986TIP3   OH245448   0.102   6.763  14.616 -0.4920  0.4184  0.2752
 7986TIP3    H145449   0.147   6.847  14.607 -0.0275  0.1614  0.2009
 7986TIP3    H245450   0.010   6.784  14.601 -0.2123  0.6691 -1.2436
 7987TIP3   OH245451   3.046   3.127  15.566 -0.0330 -0.0442 -0.0253
 7987TIP3    H145452   3.050   3.120  15.470 -0.0603  0.1325 -0.0388
 7987TIP3    H245453   2.989   3.054  15.592 -0.6621  0.3726 -0.2078
 7988TIP3   OH245454   2.038   1.140  12.410  1.1105  0.1884 -0.3676
 7988TIP3    H145455   2.113   1.127  12.351  1.6050 -0.6349  0.4422
 7988TIP3    H245456   2.009   1.052  12.432  1.1789  0.4888  0.9483
 7989TIP3   OH245457   3.896   4.735  11.895 -0.1040  0.4427  0.5226
 7989TIP3    H145458   3.861   4.819  11.924 -0.3703  0.5612 -0.1327
 7989TIP3    H245459   3.986   4.734  11.928  0.2306  1.4277 -0.3253
 7990TIP3   OH245460   3.124   4.714  16.316  0.0396  0.4162  0.5107
 7990TIP3    H145461   3.073   4.647  16.362  2.2512 -1.8297 -0.1990
 7990TIP3    H245462   3.179   4.754  16.384  0.3676 -0.0851  0.5427
 7991TIP3   OH245463   6.817   1.169   3.200 -0.2400 -0.1485  0.0588
 7991TIP3    H145464   6.729   1.205   3.208  0.6028  1.9361  0.3932
 7991TIP3    H245465   6.843   1.189   3.110  0.1629 -0.0681  0.1896
 7992TIP3   OH245466   6.390   3.720  15.401  0.8313 -0.0168  0.1596
 7992TIP3    H145467   6.401   3.721  15.306 -0.8191 -0.6539 -0.0577
 7992TIP3    H245468   6.338   3.642  15.418  0.9095  0.2316  1.5592
 7993TIP3   OH245469   2.323   5.392   6.150  0.3784  0.8972 -0.3882
 7993TIP3    H145470   2.401   5.366   6.100  0.1420  0.9891 -0.8071
 7993TIP3    H245471   2.308   5.483   6.125  2.1849  2.0288  2.3360
 7994TIP3   OH245472   5.931   4.402   6.060  0.2785 -0.0516  0.7961
 7994TIP3    H145473   6.007   4.429   6.113  0.2487  1.8791 -0.1084
 7994TIP3    H245474   5.887   4.484   6.037 -0.2146 -0.9090 -1.4664
 7995TIP3   OH245475   2.590   1.632  17.224 -0.2245  0.2779 -0.6204
 7995TIP3    H145476   2.668   1.671  17.184 -0.5747  0.7633 -0.8290
 7995TIP3    H245477   2.565   1.694  17.293 -0.1137 -0.1379 -0.2105
 7996TIP3   OH245478   3.779   6.707   4.499  0.2869 -0.8851  0.0196
 7996TIP3    H145479   3.825   6.779   4.456  0.3766 -0.9522  0.0039
 7996TIP3    H245480   3.687   6.733   4.497  0.3959 -0.4228  0.6633
 7997TIP3   OH245481   3.403   5.524  11.367 -0.0230 -0.4097  0.3740
 7997TIP3    H145482   3.354   5.475  11.301 -0.4930  0.7216 -0.1340
 7997TIP3    H245483   3.480   5.557  11.319 -0.1822  0.1163  0.4790
 7998TIP3   OH245484   6.767   5.580  11.415  0.7605  0.1490 -0.3822
 7998TIP3    H145485   6.717   5.659  11.395  0.2163  0.0673  0.6065
 7998TIP3    H245486   6.752   5.522  11.341  0.4863  0.6523 -0.7214
 7999TIP3   OH245487   0.087   6.386  15.887  0.0044 -0.5615  0.1552
 7999TIP3    H145488   0.121   6.322  15.823  1.3929  1.7360 -1.4688
 7999TIP3    H245489   0.162   6.406  15.942  0.7686  2.7521 -1.9624
 8000TIP3   OH245490   2.775   1.953   0.174 -0.1514  0.2538  0.5467
 8000TIP3    H145491   2.794   2.046   0.186 -0.0603  0.2081  0.7624
 8000TIP3    H245492   2.830   1.927   0.100  0.0162  0.3118  0.6505
 8001TIP3   OH245493   2.688   4.025  12.453 -0.0329  0.6519 -0.4840
 8001TIP3    H145494   2.702   4.078  12.532 -1.2562 -0.9466  0.8596
 8001TIP3    H245495   2.776   4.002  12.423  0.4594  1.9413 -0.0416
 8002TIP3   OH245496   5.374   0.256   2.552  0.0968 -0.5135 -0.2070
 8002TIP3    H145497   5.441   0.256   2.620  0.5169 -0.3399 -0.6166
 8002TIP3    H245498   5.424   0.253   2.470 -0.4133 -1.3944 -0.4942
 8003TIP3   OH245499   1.853   4.843  14.835 -0.2894 -0.3722  0.2949
 8003TIP3    H145500   1.869   4.880  14.922  2.4110 -1.0104  0.0991
 8003TIP3    H245501   1.939   4.816  14.804 -1.0492  0.7588 -3.0138
 8004TIP3   OH245502   6.415   2.768  12.054  0.0979 -0.8163 -0.6614
 8004TIP3    H145503   6.357   2.824  12.106  1.5093 -0.1525  0.2300
 8004TIP3    H245504   6.431   2.817  11.974  0.8289 -0.2115 -0.1491
 8005TIP3   OH245505   4.684   5.153   1.783  0.2324  0.3486 -0.3641
 8005TIP3    H145506   4.596   5.118   1.795  0.2002  0.5789  0.0527
 8005TIP3    H245507   4.741   5.076   1.783  0.1930  0.3089  0.8470
 8006TIP3   OH245508   0.705   3.022  11.161  0.4109  0.4760  0.3658
 8006TIP3    H145509   0.735   3.055  11.076 -0.2678 -0.3862 -0.2200
 8006TIP3    H245510   0.762   2.947  11.179 -0.1899 -0.0409  0.1221
 8007TIP3   OH245511   5.152   0.651  13.286  0.0980 -0.3902  0.1687
 8007TIP3    H145512   5.080   0.714  13.292  0.2001 -0.2192 -0.3369
 8007TIP3    H245513   5.195   0.672  13.203 -0.8016 -2.1118 -0.7584
 8008TIP3   OH245514   6.150   2.346  17.248 -0.1363 -0.1769  0.2199
 8008TIP3    H145515   6.062   2.384  17.254 -0.1974 -0.4576  1.2452
 8008TIP3    H245516   6.135   2.252  17.259  0.2532 -0.2621  0.0057
 8009TIP3   OH245517   1.909   4.638   3.020 -0.5846  0.4348 -0.5551
 8009TIP3    H145518   1.853   4.592   2.958  0.6363 -0.9963 -0.6192
 8009TIP3    H245519   1.970   4.572   3.052 -0.1557  1.5253  0.9626
 8010TIP3   OH245520   3.476   2.433  14.573  0.1475  0.6804  0.2866
 8010TIP3    H145521   3.504   2.444  14.664 -1.7210  1.2162  0.8079
 8010TIP3    H245522   3.401   2.490  14.564  0.5403  0.9089 -1.7216
 8011TIP3   OH245523   2.629   4.015   0.445 -0.3431  0.0924 -0.4525
 8011TIP3    H145524   2.544   4.035   0.405  0.4536  0.9003 -1.7564
 8011TIP3    H245525   2.627   3.921   0.461 -0.4959 -0.3250 -2.8295
 8012TIP3   OH245526   1.488   2.254  15.628  0.1249 -0.3710  0.5588
 8012TIP3    H145527   1.407   2.274  15.674 -0.4617 -0.9429 -0.2241
 8012TIP3    H245528   1.480   2.162  15.604 -0.1715  0.2638 -1.8886
 8013TIP3   OH245529   4.364   5.935   3.793 -0.3032 -0.7637  0.0041
 8013TIP3    H145530   4.360   5.842   3.770  0.1242 -1.2630  1.9164
 8013TIP3    H245531   4.446   5.945   3.840 -0.7038  0.4346  0.4627
 8014TIP3   OH245532   1.173   6.756  13.973 -0.0711 -0.0670  0.7139
 8014TIP3    H145533   1.253   6.718  13.936  0.0009 -0.0825  0.8860
 8014TIP3    H245534   1.119   6.680  13.995 -0.3361 -0.0437  0.1440
 8015TIP3   OH245535   1.255   5.223  12.488 -0.0656 -0.2711  0.0407
 8015TIP3    H145536   1.201   5.148  12.512  0.3893  0.0461  2.1993
 8015TIP3    H245537   1.246   5.231  12.393 -2.2015 -1.4412  0.1248
 8016TIP3   OH245538   6.377   1.641  10.770  0.7044 -0.5274  0.2200
 8016TIP3    H145539   6.421   1.675  10.692 -0.1211  1.9807  0.7964
 8016TIP3    H245540   6.448   1.625  10.832  1.2427 -1.3368 -0.5790
 8017TIP3   OH245541   0.134   0.198  14.986 -0.0033  0.2659 -0.3959
 8017TIP3    H145542   0.201   0.200  15.055  0.2527 -0.6384 -0.6175
 8017TIP3    H245543   0.087   0.116  15.000 -2.1588  1.6506  0.7761
 8018TIP3   OH245544   2.284   3.957  16.913 -0.0095  0.3587  0.4420
 8018TIP3    H145545   2.201   4.004  16.924  0.1597  0.1181  2.8673
 8018TIP3    H245546   2.263   3.866  16.937  0.4410 -0.1762 -1.1204
 8019TIP3   OH245547   0.523   1.361   3.391  0.5790 -0.3502  0.0115
 8019TIP3    H145548   0.487   1.330   3.308 -0.9878 -0.5967  0.7572
 8019TIP3    H245549   0.484   1.447   3.404  1.4375  0.0311  0.1162
 8020TIP3   OH245550   3.232   6.696   2.796 -0.1022 -0.6594 -0.8283
 8020TIP3    H145551   3.312   6.695   2.744 -0.6374 -0.9086 -1.6510
 8020TIP3    H245552   3.238   6.776   2.848  0.4945 -0.4805 -1.1701
 8021TIP3   OH245553   0.406   2.090   3.968  0.7248  0.3269 -0.9481
 8021TIP3    H145554   0.415   2.183   3.947  0.6871  0.4453 -0.4529
 8021TIP3    H245555   0.366   2.089   4.055  1.6560 -0.1395 -0.5200
 8022TIP3   OH245556   3.768   4.460  16.566 -0.4756  0.1609 -0.2900
 8022TIP3    H145557   3.853   4.435  16.600 -0.0835  1.6091 -0.1724
 8022TIP3    H245558   3.707   4.396  16.603  0.6458 -1.3525 -1.0063
 8023TIP3   OH245559   5.908   3.489  14.036  0.2238  0.4046  0.2889
 8023TIP3    H145560   5.936   3.404  14.070  0.0815  0.7461  1.2788
 8023TIP3    H245561   5.987   3.526  13.996  0.3706 -0.0477  0.1569
 8024TIP3   OH245562   0.698   1.449   3.714  0.2873  0.1636 -0.1842
 8024TIP3    H145563   0.669   1.359   3.729  0.3152  0.3012  0.7272
 8024TIP3    H245564   0.727   1.450   3.623 -4.3040  0.4824 -1.7820
 8025TIP3   OH245565   6.494   2.695  17.158  0.2292 -0.1663 -0.7238
 8025TIP3    H145566   6.537   2.738  17.232 -0.4547 -1.0768  0.2172
 8025TIP3    H245567   6.410   2.739  17.150  1.2360  1.4892 -2.4484
 8026TIP3   OH245568   1.819   2.733   4.726  0.0596 -0.4178 -0.2090
 8026TIP3    H145569   1.860   2.655   4.762  0.7294 -0.6247 -1.4024
 8026TIP3    H245570   1.801   2.789   4.802  0.8585 -1.1222  0.4963
 8027TIP3   OH245571   3.037   2.500   0.910 -0.1572  0.1404 -0.0109
 8027TIP3    H145572   3.102   2.505   0.981  0.7015 -0.4327 -0.7492
 8027TIP3    H245573   3.044   2.584   0.865 -0.7733  0.5431  0.6499
 8028TIP3   OH245574   5.046   0.055   6.058  0.2132  0.6699 -0.0611
 8028TIP3    H145575   5.118  -0.004   6.035  1.6501  1.8796  1.2061
 8028TIP3    H245576   5.067   0.086   6.146 -2.1338  0.6856  0.5384
 8029TIP3   OH245577   1.406   0.652   1.129  0.8484 -0.2587  0.4868
 8029TIP3    H145578   1.427   0.732   1.178 -1.6479  1.6949 -1.4768
 8029TIP3    H245579   1.322   0.625   1.164 -0.0890  0.1317 -1.4317
 8030TIP3   OH245580   2.963   2.579   0.307  0.1078  0.4371  0.0061
 8030TIP3    H145581   2.940   2.539   0.391 -0.3990  0.7428  0.0183
 8030TIP3    H245582   3.003   2.663   0.331 -1.9279  1.4627 -0.1040
 8031TIP3   OH245583   5.859   6.650   0.925  0.0827  0.1520 -0.4410
 8031TIP3    H145584   5.766   6.661   0.907  0.2236 -0.1945 -1.4055
 8031TIP3    H245585   5.903   6.698   0.855  0.6374 -0.8686 -0.8027
 8032TIP3   OH245586   3.589   3.683   4.148  0.4978  0.6084 -0.2140
 8032TIP3    H145587   3.563   3.775   4.149 -0.7140  0.2626  0.8755
 8032TIP3    H245588   3.515   3.637   4.109  0.2696 -0.1450  1.0850
 8033TIP3   OH245589   3.518   6.075  15.268 -0.1372 -0.0752  0.7657
 8033TIP3    H145590   3.585   6.058  15.202 -0.1015 -1.5078  1.1479
 8033TIP3    H245591   3.443   6.108  15.219  0.3142  0.0597  0.1599
 8034TIP3   OH245592   6.799   2.586  14.360 -0.5534  0.5360 -0.5364
 8034TIP3    H145593   6.814   2.494  14.338 -0.5068  0.1583  0.9999
 8034TIP3    H245594   6.715   2.607  14.320 -0.0960  0.1143 -1.7311
 8035TIP3   OH245595   1.172   5.956  16.249 -0.8029 -0.4104  0.0287
 8035TIP3    H145596   1.157   5.960  16.154 -3.8069 -0.3193  0.4802
 8035TIP3    H245597   1.112   6.020  16.286  0.6020 -0.1869  1.9958
 8036TIP3   OH245598   2.374   1.605   5.006 -0.1368  0.4936  0.5022
 8036TIP3    H145599   2.449   1.545   5.003 -0.4458  0.1435 -1.4362
 8036TIP3    H245600   2.307   1.558   5.055  0.6011  0.4393  1.4680
 8037TIP3   OH245601   2.439   0.121   1.728 -0.1207  0.0555  0.0651
 8037TIP3    H145602   2.343   0.124   1.727 -0.1480 -0.7731 -0.0916
 8037TIP3    H245603   2.462   0.077   1.647  0.3779 -0.1929  0.3432
 8038TIP3   OH245604   0.757   1.171  14.659 -0.2976 -0.3482 -0.3384
 8038TIP3    H145605   0.818   1.207  14.594 -1.1289  1.6814 -0.0396
 8038TIP3    H245606   0.681   1.142  14.608 -0.2164 -0.3770 -0.4415
 8039TIP3   OH245607   4.717   5.689   2.901  0.0262  0.6327  0.4925
 8039TIP3    H145608   4.774   5.616   2.878  0.1355  0.7094  0.5231
 8039TIP3    H245609   4.775   5.764   2.912  0.1519  0.2707  2.4515
 8040TIP3   OH245610   6.130   3.666   5.159 -0.5818 -0.1451  0.0111
 8040TIP3    H145611   6.138   3.760   5.142 -1.9333  0.0133  0.1742
 8040TIP3    H245612   6.068   3.659   5.232  0.3615 -1.1187  0.7355
 8041TIP3   OH245613   4.540   5.332  12.137  0.7015  0.1932  0.9520
 8041TIP3    H145614   4.460   5.379  12.110  2.1733  0.5765 -2.9927
 8041TIP3    H245615   4.580   5.390  12.202 -0.2901  1.8341  0.1437
 8042TIP3   OH245616   4.786   4.348   2.649  0.5636  0.0348  0.0007
 8042TIP3    H145617   4.827   4.382   2.728 -0.6032 -1.6838  1.3839
 8042TIP3    H245618   4.705   4.398   2.641  1.0233  0.6968 -0.5053
 8043TIP3   OH245619   2.615   3.418  16.666 -0.8210 -0.4999  0.5440
 8043TIP3    H145620   2.640   3.481  16.598  0.1703  0.8704  2.1234
 8043TIP3    H245621   2.565   3.351  16.619 -0.6524  0.6949 -1.4317
 8044TIP3   OH245622   4.035   3.944  13.982  0.0213 -0.0929 -0.8211
 8044TIP3    H145623   4.118   3.897  13.983  0.5212  0.7753 -0.6466
 8044TIP3    H245624   4.023   3.970  13.890  0.4903  0.7101 -0.6675
 8045TIP3   OH245625   2.445   0.464  12.253 -0.1569 -0.0215  0.3622
 8045TIP3    H145626   2.354   0.481  12.229  0.3535  2.0623 -0.1455
 8045TIP3    H245627   2.442   0.378  12.295 -2.6059  0.6562  1.7146
 8046TIP3   OH245628   3.407   2.305  15.783  0.5073 -0.3020 -0.2283
 8046TIP3    H145629   3.411   2.387  15.734 -0.2689  0.5613  1.1030
 8046TIP3    H245630   3.352   2.247  15.729 -0.3081  0.6230 -0.3989
 8047TIP3   OH245631   2.977   6.779  14.353  0.1265 -0.1225 -0.1113
 8047TIP3    H145632   2.949   6.866  14.383 -0.9420 -0.6524  0.4591
 8047TIP3    H245633   2.928   6.718  14.407 -2.3849 -1.1421 -3.3784
 8048TIP3   OH245634   5.024   0.204   5.403  0.1117 -0.2532  0.3546
 8048TIP3    H145635   5.083   0.132   5.423 -0.0001 -0.2627  0.6477
 8048TIP3    H245636   4.937   0.170   5.423  0.1421  0.2885  1.4096
 8049TIP3   OH245637   0.786   5.720  16.699 -0.4235  0.0116 -0.1637
 8049TIP3    H145638   0.707   5.748  16.654  1.1218 -1.2642 -3.8674
 8049TIP3    H245639   0.756   5.687  16.784 -3.8947 -1.1719 -1.8085
 8050TIP3   OH245640   2.667   3.790   3.579 -0.8217 -0.3595 -0.3716
 8050TIP3    H145641   2.600   3.858   3.584 -0.1926  0.5018 -2.9660
 8050TIP3    H245642   2.748   3.838   3.561 -0.0713 -1.6581 -0.5068
 8051TIP3   OH245643   0.311   2.347  13.466 -0.2145  0.3998  0.3964
 8051TIP3    H145644   0.327   2.397  13.385 -2.4533  0.3152 -0.1315
 8051TIP3    H245645   0.369   2.272  13.460 -0.9497 -0.0380 -1.5504
 8052TIP3   OH245646   2.097   2.937  16.072 -0.2093 -0.3949  0.3701
 8052TIP3    H145647   2.009   2.955  16.106 -0.4975  1.4018 -1.2690
 8052TIP3    H245648   2.090   2.848  16.036 -1.6186  0.0903 -0.5983
 8053TIP3   OH245649   0.308   1.690  16.259 -0.2725  0.6358  0.0195
 8053TIP3    H145650   0.230   1.665  16.209  0.9591  1.0403 -2.1395
 8053TIP3    H245651   0.292   1.781  16.283  0.6277  1.5506 -2.6492
 8054TIP3   OH245652   0.838   5.133   2.701 -0.3871 -0.3166  0.3556
 8054TIP3    H145653   0.754   5.088   2.692  0.3772 -1.5988 -0.5105
 8054TIP3    H245654   0.818   5.210   2.754 -1.9359 -1.0776  0.9094
 8055TIP3   OH245655   6.496   0.946   0.451 -0.5439 -0.2674 -0.1983
 8055TIP3    H145656   6.463   0.861   0.480  1.5270 -0.7500  0.8520
 8055TIP3    H245657   6.449   1.009   0.506 -0.5578 -0.8566  0.4750
 8056TIP3   OH245658   5.707   1.629  15.460  0.7774 -0.3873 -0.5575
 8056TIP3    H145659   5.778   1.595  15.515  1.0947 -1.0182 -1.3615
 8056TIP3    H245660   5.746   1.705  15.416  0.4278  0.3152  0.3081
 8057TIP3   OH245661   6.195   0.422   2.629 -0.1961  0.0395 -0.4873
 8057TIP3    H145662   6.165   0.507   2.661 -0.8460 -0.2874 -0.2226
 8057TIP3    H245663   6.249   0.388   2.701 -1.3565 -0.5318  0.1348
 8058TIP3   OH245664   5.264   6.518   3.417 -0.2850 -0.4643 -0.2521
 8058TIP3    H145665   5.188   6.464   3.439 -0.7323  0.6334  1.0123
 8058TIP3    H245666   5.235   6.569   3.341 -1.4766  1.1983  1.2587
 8059TIP3   OH245667   3.620   4.391   5.685  0.0673  0.0629 -0.0800
 8059TIP3    H145668   3.653   4.326   5.747 -0.5898  1.0072  1.2732
 8059TIP3    H245669   3.674   4.469   5.701  0.2431  0.1516 -1.0603
 8060TIP3   OH245670   5.470   6.642   2.267 -0.1165  0.4086 -0.1636
 8060TIP3    H145671   5.460   6.737   2.276 -2.9445  0.6664 -4.6752
 8060TIP3    H245672   5.390   6.605   2.304 -0.0828 -0.0503 -0.5395
 8061TIP3   OH245673   2.165   4.579   0.550 -0.3866  0.0126 -0.2426
 8061TIP3    H145674   2.156   4.567   0.644  0.5549 -0.6208 -0.2291
 8061TIP3    H245675   2.259   4.570   0.533 -0.6408 -0.7240 -1.3445
 8062TIP3   OH245676   3.440   0.760  16.374  0.0440 -0.0672  0.6851
 8062TIP3    H145677   3.421   0.668  16.357 -1.4287  0.0724  1.5175
 8062TIP3    H245678   3.358   0.796  16.407  1.3297  0.9069  2.9980
 8063TIP3   OH245679   4.423   1.893   3.586 -0.5399 -0.5133 -0.2069
 8063TIP3    H145680   4.379   1.863   3.506 -0.3329  1.3696 -1.0551
 8063TIP3    H245681   4.513   1.910   3.558 -0.1913 -0.8543  0.6923
 8064TIP3   OH245682   5.640   0.184   3.064 -0.2549  0.7954 -0.3305
 8064TIP3    H145683   5.731   0.206   3.048 -0.3995  1.1020 -0.7386
 8064TIP3    H245684   5.591   0.231   2.996 -0.6917  0.4275 -0.2757
 8065TIP3   OH245685   5.962   5.607   2.637  0.2689  0.3397  0.2325
 8065TIP3    H145686   5.970   5.535   2.700 -0.6681  1.8455  2.1292
 8065TIP3    H245687   5.876   5.594   2.597  0.8962 -0.6646 -0.7986
 8066TIP3   OH245688   4.975   2.102  12.594  0.3991 -0.1654 -0.0493
 8066TIP3    H145689   5.009   2.168  12.654  1.0258  0.4941 -1.1300
 8066TIP3    H245690   5.020   2.118  12.511 -3.2109  1.3585 -1.8092
 8067TIP3   OH245691   5.802   1.285  10.583  0.3980 -0.2902 -0.2756
 8067TIP3    H145692   5.761   1.346  10.521  1.6204 -0.9507 -1.7496
 8067TIP3    H245693   5.733   1.267  10.647 -0.6189  1.0664 -0.9551
 8068TIP3   OH245694   0.023   1.644  11.696  0.0063  0.4923 -0.0729
 8068TIP3    H145695  -0.021   1.585  11.635  1.0342  0.6613 -0.9849
 8068TIP3    H245696   0.019   1.599  11.781 -0.1122 -0.4125 -0.5557
 8069TIP3   OH245697   5.152   5.547   0.512  0.2325 -0.5844  0.1585
 8069TIP3    H145698   5.085   5.565   0.446 -0.1574  0.3852  0.8148
 8069TIP3    H245699   5.233   5.537   0.461  0.0741  0.8989 -0.4245
 8070TIP3   OH245700   5.098   6.098  16.469  0.6476 -0.2700 -0.3236
 8070TIP3    H145701   5.040   6.172  16.482 -1.0548 -1.6875  0.3614
 8070TIP3    H245702   5.090   6.077  16.376 -1.5458 -1.7118  0.1490
 8071TIP3   OH245703   6.150   5.691   3.700 -0.2618  0.5215  0.5771
 8071TIP3    H145704   6.225   5.750   3.695  0.6856 -0.5971  1.1511
 8071TIP3    H245705   6.081   5.742   3.742  0.7282  1.0256  1.6109
 8072TIP3   OH245706   2.057   0.099  13.118  0.1593  0.0694 -0.3511
 8072TIP3    H145707   2.126   0.076  13.180 -0.2486  0.9649  0.4516
 8072TIP3    H245708   2.031   0.188  13.144 -1.7849 -0.5311 -0.2022
 8073TIP3   OH245709   5.720   4.051   5.592  0.2688  0.4329  0.4863
 8073TIP3    H145710   5.628   4.034   5.573 -0.1239  1.4709  1.4341
 8073TIP3    H245711   5.748   3.976   5.644  0.1622 -0.2301 -0.3935
 8074TIP3   OH245712   2.994   6.295   3.898 -1.0209 -0.4512 -0.5514
 8074TIP3    H145713   3.088   6.309   3.912 -0.4673 -2.8305 -1.7014
 8074TIP3    H245714   2.958   6.383   3.888  0.8676  0.5586  1.2318
 8075TIP3   OH245715   0.215   1.357   5.083  0.1147  0.1505  0.0851
 8075TIP3    H145716   0.180   1.430   5.031 -2.9072 -1.3876 -0.1485
 8075TIP3    H245717   0.226   1.393   5.171 -2.0745  0.7281  0.1509
 8076TIP3   OH245718   5.399   4.508   2.680 -0.3408  0.8056  0.0448
 8076TIP3    H145719   5.375   4.436   2.621 -0.7928 -0.0670  1.2649
 8076TIP3    H245720   5.399   4.585   2.624 -1.3308  0.0845 -0.9960
 8077TIP3   OH245721   6.386   3.380   2.923  0.4987  0.6017 -0.2563
 8077TIP3    H145722   6.421   3.378   2.834 -1.3447  2.3177 -1.0708
 8077TIP3    H245723   6.309   3.324   2.921  0.0853  1.1406  0.0734
 8078TIP3   OH245724   0.206   2.825  12.585  0.0507 -0.5996  0.4488
 8078TIP3    H145725   0.289   2.784  12.561 -0.8126 -1.2023 -1.5850
 8078TIP3    H245726   0.185   2.884  12.513 -0.2995  1.0997  1.8871
 8079TIP3   OH245727   5.370   2.902   0.727 -0.7233 -0.2004 -0.5721
 8079TIP3    H145728   5.449   2.936   0.769 -0.9578 -0.2426 -0.0939
 8079TIP3    H245729   5.385   2.915   0.633 -0.2797  0.0723 -0.4634
 8080TIP3   OH245730   1.036   6.615  16.624  0.6942  0.2891 -0.8301
 8080TIP3    H145731   1.070   6.661  16.701  1.3095  0.0661 -0.9642
 8080TIP3    H245732   1.110   6.563  16.593 -0.5958 -2.5553  0.6518
 8081TIP3   OH245733   6.740   3.830  14.113  0.1603 -0.9247  0.2462
 8081TIP3    H145734   6.684   3.876  14.175  0.4455 -0.0853 -0.1083
 8081TIP3    H245735   6.683   3.811  14.039  0.2018 -0.5341  0.1098
 8082TIP3   OH245736   5.819   3.215   0.701  0.4309  0.0996  0.0186
 8082TIP3    H145737   5.884   3.151   0.728 -1.3775 -1.1543  1.5751
 8082TIP3    H245738   5.847   3.297   0.743  0.3227 -0.7293  1.7614
 8083TIP3   OH245739   5.467   1.361   5.740 -0.4545  0.0087 -0.0277
 8083TIP3    H145740   5.516   1.436   5.774  1.1827  0.5387 -3.3450
 8083TIP3    H245741   5.498   1.286   5.792  1.0507  0.9553  0.4641
 8084TIP3   OH245742   5.726   5.639   1.783  0.0670  0.1820  0.4078
 8084TIP3    H145743   5.733   5.727   1.821  1.6713 -0.0550  0.6871
 8084TIP3    H245744   5.634   5.632   1.756 -0.4570  1.3531  1.8189
 8085TIP3   OH245745   6.699   3.377   3.241  0.2278  0.4088 -0.7513
 8085TIP3    H145746   6.719   3.302   3.297  2.8754 -0.1226 -2.2998
 8085TIP3    H245747   6.604   3.387   3.247  0.0083 -2.0727  0.7228
 8086TIP3   OH245748   5.230   2.185  14.077 -0.7986  0.5987 -0.0034
 8086TIP3    H145749   5.276   2.248  14.020  0.2976 -0.8230 -0.7113
 8086TIP3    H245750   5.161   2.237  14.118 -0.3334  2.1245 -1.0892
 8087TIP3   OH245751   5.482   4.921  12.068  0.0506  0.0208  0.0184
 8087TIP3    H145752   5.396   4.880  12.052 -0.4906  1.5038 -0.9153
 8087TIP3    H245753   5.477   4.951  12.159 -1.2716  2.0811 -0.6953
 8088TIP3   OH245754   2.315   6.448  12.221 -0.3753  0.0480 -0.4327
 8088TIP3    H145755   2.334   6.461  12.128 -0.4824 -1.8369 -0.7332
 8088TIP3    H245756   2.261   6.369  12.224 -0.1929 -0.0320  1.2516
 8089TIP3   OH245757   4.348   2.392  16.099  0.6684  0.1834 -0.3145
 8089TIP3    H145758   4.349   2.346  16.183  0.7916  0.2178 -0.2968
 8089TIP3    H245759   4.386   2.330  16.037 -2.7767 -1.2424 -1.0978
 8090TIP3   OH245760   4.339   5.247  13.178  0.1627 -0.5457  0.4869
 8090TIP3    H145761   4.252   5.285  13.186 -0.5568 -1.2695 -2.9501
 8090TIP3    H245762   4.396   5.321  13.158  0.1029 -0.2452  1.4372
 8091TIP3   OH245763   1.290   4.555   3.546 -0.3914  0.3562 -0.2148
 8091TIP3    H145764   1.313   4.646   3.528 -0.6396  0.1427 -1.6999
 8091TIP3    H245765   1.199   4.547   3.518 -0.1822 -0.4939 -0.6607
 8092TIP3   OH245766   0.120   5.593   1.814 -0.2802 -0.3147  0.4401
 8092TIP3    H145767   0.126   5.640   1.897 -0.3991 -0.2579  0.4169
 8092TIP3    H245768   0.029   5.603   1.787 -0.1197  0.1027  0.0454
 8093TIP3   OH245769   6.087   6.655   1.344  0.2394  0.8438 -0.2620
 8093TIP3    H145770   6.177   6.633   1.369  0.3172 -0.6113 -1.7000
 8093TIP3    H245771   6.084   6.750   1.347  1.8132  0.9054 -0.0924
 8094TIP3   OH245772   2.633   1.437   0.592  0.9711 -0.1574 -0.0137
 8094TIP3    H145773   2.709   1.432   0.651  1.0047 -1.5970 -0.1771
 8094TIP3    H245774   2.587   1.354   0.605  0.0821  0.2083 -0.8110
 8095TIP3   OH245775   5.807   4.247   5.435 -0.2480  0.1178  0.4727
 8095TIP3    H145776   5.738   4.279   5.376  1.3395 -0.3270 -1.6731
 8095TIP3    H245777   5.776   4.161   5.463  0.6659 -1.2845 -2.6649
 8096TIP3   OH245778   1.647   4.050  13.796  0.3764  0.3683  0.2992
 8096TIP3    H145779   1.568   4.101  13.813  0.2813  0.1128  0.6382
 8096TIP3    H245780   1.635   3.970  13.848 -0.3216 -0.8442 -1.6531
 8097TIP3   OH245781   0.212   4.655   2.325 -0.1588  0.3120  0.3268
 8097TIP3    H145782   0.279   4.695   2.271 -1.2312 -0.6119 -1.7431
 8097TIP3    H245783   0.130   4.675   2.280 -1.2350  0.9050  2.4877
 8098TIP3   OH245784   6.311   6.388  15.601  0.1910 -0.2877  0.2718
 8098TIP3    H145785   6.310   6.292  15.602 -0.5370 -0.2888 -0.4676
 8098TIP3    H245786   6.374   6.410  15.532  1.0871 -0.2226  1.0919
 8099TIP3   OH245787   6.615   4.200  13.951  0.6944 -0.1333  0.1843
 8099TIP3    H145788   6.601   4.290  13.980  1.4061 -0.0740  0.3644
 8099TIP3    H245789   6.538   4.179  13.898  0.6125  0.6439 -0.0093
 8100TIP3   OH245790   1.157   4.809  11.034  0.1189  0.6265 -0.1978
 8100TIP3    H145791   1.098   4.878  11.001  0.6576  0.4631 -1.5376
 8100TIP3    H245792   1.099   4.737  11.056 -0.3059  0.9222 -0.3349
 8101TIP3   OH245793   3.366   1.511   6.583  0.0870 -0.2540  0.0354
 8101TIP3    H145794   3.344   1.581   6.644 -2.2550  0.3128 -1.4095
 8101TIP3    H245795   3.359   1.551   6.496  0.0887 -1.9124 -0.7519
 8102TIP3   OH245796   5.057   6.089  15.662  0.7743  0.3494  0.2747
 8102TIP3    H145797   5.150   6.087  15.641  0.8200 -0.9075  0.6037
 8102TIP3    H245798   5.014   6.064  15.581  0.7525  0.1660  0.3426
 8103TIP3   OH245799   1.901   1.256   2.172 -0.1015 -0.1557  0.0752
 8103TIP3    H145800   1.871   1.182   2.120  1.4464 -0.7996  0.0788
 8103TIP3    H245801   1.838   1.325   2.154 -2.3106 -1.8661  1.0643
 8104TIP3   OH245802   2.830   3.012  14.212  0.1516 -0.3626 -0.1193
 8104TIP3    H145803   2.742   3.050  14.217  0.0592 -0.3545 -1.6843
 8104TIP3    H245804   2.820   2.934  14.157  0.9356 -0.9150  0.5120
 8105TIP3   OH245805   4.399   0.906   5.059 -0.2168 -0.2127 -0.2712
 8105TIP3    H145806   4.319   0.956   5.073 -0.4428 -0.6383 -0.0315
 8105TIP3    H245807   4.371   0.815   5.058  0.3396 -0.4040  0.4211
 8106TIP3   OH245808   2.666   3.975   3.923 -0.1578 -0.1005 -0.2009
 8106TIP3    H145809   2.572   3.977   3.905 -0.4770  1.3715  1.5191
 8106TIP3    H245810   2.701   4.052   3.879 -0.1108  0.5591  0.9760
 8107TIP3   OH245811   2.932   2.093   6.466  0.3195 -0.4655  0.1791
 8107TIP3    H145812   3.026   2.112   6.470  0.1433  0.6473 -0.8461
 8107TIP3    H245813   2.923   2.034   6.391  0.3329 -1.4832  0.9597
 8108TIP3   OH245814   1.771   1.843  14.193  0.2684 -0.1347 -0.6485
 8108TIP3    H145815   1.831   1.801  14.131  0.4544 -0.1237 -0.4778
 8108TIP3    H245816   1.687   1.845  14.147  0.1649 -1.0491 -0.5081
 8109TIP3   OH245817   2.800   6.374  13.263  0.2619  0.1653  0.2972
 8109TIP3    H145818   2.771   6.356  13.173 -1.9364  0.4248  0.9398
 8109TIP3    H245819   2.760   6.305  13.315 -0.0737  1.1427  1.3498
 8110TIP3   OH245820   2.493   5.270   1.734 -0.5325 -0.3792  0.1520
 8110TIP3    H145821   2.421   5.299   1.678  0.9226 -1.0801 -2.1498
 8110TIP3    H245822   2.488   5.174   1.732 -1.6074 -0.4113  2.7803
 8111TIP3   OH245823   3.825   1.365  16.956  0.1098 -0.3945 -0.6148
 8111TIP3    H145824   3.860   1.451  16.979  2.4171 -1.6996  0.8748
 8111TIP3    H245825   3.821   1.366  16.861  1.7988  0.7236 -0.6960
 8112TIP3   OH245826   2.566   4.732  16.616 -0.8885 -0.3411  0.0595
 8112TIP3    H145827   2.641   4.789  16.595 -1.0813 -0.5235 -1.1173
 8112TIP3    H245828   2.490   4.790  16.612 -0.9145 -0.3494  0.3891
 8113TIP3   OH245829   6.063   0.691   2.414  0.0948  0.0316 -0.1328
 8113TIP3    H145830   6.126   0.753   2.452 -1.4143  0.6086  1.4930
 8113TIP3    H245831   6.002   0.745   2.365 -1.1344 -0.1749  1.1552
 8114TIP3   OH245832   4.155   6.259   2.178  0.6138 -0.6966  0.2352
 8114TIP3    H145833   4.095   6.192   2.211  0.6365 -1.1441 -0.6110
 8114TIP3    H245834   4.196   6.218   2.101  0.3522  0.4209 -0.5110
 8115TIP3   OH245835   0.931   6.456   1.669 -0.1807 -0.1436  0.3070
 8115TIP3    H145836   0.858   6.394   1.659 -0.7851  0.7135 -0.8198
 8115TIP3    H245837   0.923   6.514   1.593  1.3919  0.2677  0.4393
 8116TIP3   OH245838   3.622   4.070   4.816  0.1469 -0.2261 -0.9545
 8116TIP3    H145839   3.570   4.055   4.736 -0.6598 -2.9873  0.0069
 8116TIP3    H245840   3.614   3.987   4.864  1.1495  1.1855  1.6939
 8117TIP3   OH245841   0.099   5.010  16.163  0.2968  1.0303 -0.5063
 8117TIP3    H145842   0.148   4.994  16.083  0.4927 -1.2803  0.0269
 8117TIP3    H245843   0.157   5.062  16.218  1.3734  0.0160 -0.6695
 8118TIP3   OH245844   0.056   0.965  11.723  0.0824  0.3045 -0.3120
 8118TIP3    H145845   0.123   1.014  11.770  0.3433 -0.3941  0.0412
 8118TIP3    H245846   0.089   0.876  11.720 -1.0610 -0.1477  0.2917
 8119TIP3   OH245847   4.010   1.971  13.458 -0.0002  0.2455 -0.3160
 8119TIP3    H145848   3.967   2.027  13.393 -1.1062 -1.0146 -0.7049
 8119TIP3    H245849   3.939   1.937  13.512  0.8173  0.4806  0.9232
 8120TIP3   OH245850   1.092   1.920   0.881  0.8286 -0.2537 -0.2402
 8120TIP3    H145851   1.007   1.961   0.903  1.2751  1.0001 -0.8044
 8120TIP3    H245852   1.071   1.828   0.869 -0.1475 -0.2756  1.4468
 8121TIP3   OH245853   0.321   6.579  17.268 -0.6384  0.0335  0.0932
 8121TIP3    H145854   0.341   6.536  17.184 -1.7027  1.1734 -0.7616
 8121TIP3    H245855   0.325   6.673  17.248 -0.5857  0.3236  1.4071
 8122TIP3   OH245856   2.743   2.714  14.163 -0.2006  0.1868 -0.1704
 8122TIP3    H145857   2.701   2.629  14.155 -1.0553  0.3787  2.1234
 8122TIP3    H245858   2.825   2.696  14.209  0.8608  0.2547 -1.9752
 8123TIP3   OH245859   4.373   5.177   1.325 -1.2036  0.4139  0.2086
 8123TIP3    H145860   4.366   5.082   1.328 -1.0727  0.3767 -0.6567
 8123TIP3    H245861   4.323   5.203   1.248  1.4653  0.7556 -1.4760
 8124TIP3   OH245862   0.992   1.421   0.741 -0.6227 -0.0520  0.2617
 8124TIP3    H145863   0.972   1.425   0.835  0.2261 -0.5782  0.4644
 8124TIP3    H245864   0.939   1.348   0.709 -0.5822 -0.1479  0.4112
 8125TIP3   OH245865   3.105   5.198  13.830 -0.7226  0.7026  0.5711
 8125TIP3    H145866   3.015   5.204  13.799  0.1672  2.1253 -1.9039
 8125TIP3    H245867   3.137   5.115  13.796 -0.7149  0.7837  0.3803
 8126TIP3   OH245868   4.264   3.338   5.149  0.0656 -0.1277  0.0750
 8126TIP3    H145869   4.284   3.314   5.059  0.4011  0.8210 -0.1151
 8126TIP3    H245870   4.349   3.342   5.192 -0.1495 -1.2125  0.5951
 8127TIP3   OH245871   2.112   3.913  14.141 -0.3603  0.1181 -0.1031
 8127TIP3    H145872   2.025   3.953  14.134  0.3583  1.5726 -0.8200
 8127TIP3    H245873   2.165   3.979  14.184  0.7601 -0.1996 -0.9836
 8128TIP3   OH245874   2.093   0.390  11.510  0.2978  0.1598 -0.1323
 8128TIP3    H145875   2.017   0.335  11.493 -0.2143  0.8077  0.0163
 8128TIP3    H245876   2.065   0.477  11.481  1.2200  0.2705 -0.7052
 8129TIP3   OH245877   6.296   4.743  16.165 -0.6720  0.1177 -0.1990
 8129TIP3    H145878   6.290   4.839  16.157  0.4388  0.0931 -1.5306
 8129TIP3    H245879   6.383   4.722  16.131 -1.0648 -1.4083 -0.2734
 8130TIP3   OH245880   4.130   5.060  12.207 -0.2135  0.0002  0.0638
 8130TIP3    H145881   4.200   5.025  12.151 -0.8192 -0.5434 -0.3562
 8130TIP3    H245882   4.088   5.128  12.155  0.7177  1.1200  0.7403
 8131TIP3   OH245883   2.299   1.724   1.651  0.0018  0.1079 -0.2159
 8131TIP3    H145884   2.306   1.711   1.556 -2.3208 -0.1169 -0.3886
 8131TIP3    H245885   2.207   1.749   1.665  1.1078  3.5525  1.6006
 8132TIP3   OH245886   6.445   2.809   4.079 -0.1764 -0.0389  0.4361
 8132TIP3    H145887   6.476   2.878   4.020 -0.8294  0.9708  1.2578
 8132TIP3    H245888   6.509   2.809   4.151  0.5550 -1.1898 -0.2055
 8133TIP3   OH245889   3.728   1.342  10.956 -0.0131 -0.3132 -0.0939
 8133TIP3    H145890   3.669   1.269  10.976 -1.5612  0.1997 -2.5106
 8133TIP3    H245891   3.799   1.302  10.905  0.9754 -0.6729  1.5239
 8134TIP3   OH245892   6.305   6.410  10.904  0.4516 -0.1088 -0.3081
 8134TIP3    H145893   6.345   6.383  10.987 -1.0551  0.0241  0.4672
 8134TIP3    H245894   6.325   6.339  10.843  1.5743 -0.2021  0.1628
 8135TIP3   OH245895   0.915   3.676   1.579  0.4414  0.3637 -0.8885
 8135TIP3    H145896   1.000   3.662   1.622  1.3529 -0.6245 -2.9661
 8135TIP3    H245897   0.891   3.766   1.603  1.9630  0.5689 -0.0863
 8136TIP3   OH245898   5.968   0.668  13.515 -0.4105 -0.4249  0.1992
 8136TIP3    H145899   6.057   0.693  13.541  0.3327 -1.9706 -0.7725
 8136TIP3    H245900   5.964   0.690  13.422 -1.3901  0.5335  0.4567
 8137TIP3   OH245901   2.591   5.012  14.807 -0.1198 -0.1285  0.2558
 8137TIP3    H145902   2.628   5.099  14.823 -0.0006 -0.3649  1.3079
 8137TIP3    H245903   2.554   4.986  14.892 -1.3600 -0.5343 -0.3922
 8138TIP3   OH245904   3.033   0.612  14.066  0.3895 -0.0997 -0.8530
 8138TIP3    H145905   3.017   0.692  14.116 -4.9087 -2.0314  0.7866
 8138TIP3    H245906   2.994   0.630  13.980  1.0398 -0.2512 -1.1891
 8139TIP3   OH245907   4.897   4.051  16.426  0.3748 -0.0280  0.6673
 8139TIP3    H145908   4.881   3.957  16.426  0.2900 -0.0613 -1.8216
 8139TIP3    H245909   4.988   4.060  16.454  0.9022 -0.9912 -0.6758
 8140TIP3   OH245910   4.836   5.446  12.616  0.1326 -0.0071 -0.2622
 8140TIP3    H145911   4.782   5.452  12.694  0.6467 -0.5259  0.1354
 8140TIP3    H245912   4.823   5.357  12.584  0.2196  0.0817 -0.5529
 8141TIP3   OH245913   0.961   6.807   0.103  0.2104  0.2957  0.2103
 8141TIP3    H145914   0.870   6.834   0.095 -0.5660 -2.5534 -1.1565
 8141TIP3    H245915   0.969   6.730   0.046  3.6986  1.0211 -0.4167
 8142TIP3   OH245916   4.811   6.603   0.528 -0.1707  0.0544  0.2136
 8142TIP3    H145917   4.739   6.627   0.586  0.6204 -0.8890  1.6330
 8142TIP3    H245918   4.857   6.533   0.575  1.1485  0.0409 -1.0588
 8143TIP3   OH245919   0.615   5.810  15.452 -0.2901 -0.0910 -0.4105
 8143TIP3    H145920   0.591   5.761  15.531 -1.0523 -3.0894 -2.4394
 8143TIP3    H245921   0.711   5.811  15.453 -0.2877 -0.7120  0.2104
 8144TIP3   OH245922   6.791   3.000   0.894  0.3634 -0.0303 -0.5172
 8144TIP3    H145923   6.877   3.014   0.933 -0.1239  0.1736  0.5006
 8144TIP3    H245924   6.751   2.932   0.948  1.6029 -3.4167 -3.6870
 8145TIP3   OH245925   5.576   4.813  14.742  0.2680 -0.4101 -0.0984
 8145TIP3    H145926   5.653   4.866  14.761  1.2677 -1.6664 -0.5835
 8145TIP3    H245927   5.559   4.826  14.649 -0.9314  0.9245  0.2943
 8146TIP3   OH245928   0.665   2.539  12.490  0.0669  0.2169 -0.6195
 8146TIP3    H145929   0.610   2.608  12.528 -1.3902 -0.8198 -0.8071
 8146TIP3    H245930   0.750   2.581  12.476  0.4011  0.8956  2.8972
 8147TIP3   OH245931   0.910   1.349  15.574  0.3576  0.3154 -0.4272
 8147TIP3    H145932   0.910   1.372  15.667  1.6741  0.9402 -0.5662
 8147TIP3    H245933   0.822   1.369  15.543  0.2139  1.0364  0.4527
 8148TIP3   OH245934   1.424   4.830  11.086  0.9287  0.3338 -0.4565
 8148TIP3    H145935   1.469   4.747  11.107  2.8611  1.6619  0.9250
 8148TIP3    H245936   1.331   4.807  11.084  1.0760 -1.1789  3.8056
 8149TIP3   OH245937   2.417   5.013  12.117  0.0187  0.6933  0.5388
 8149TIP3    H145938   2.385   5.067  12.190  0.4246  1.4301  0.1785
 8149TIP3    H245939   2.495   5.059  12.086 -0.2798  0.5000 -0.5058
 8150TIP3   OH245940   3.292   4.788   3.404 -0.2237 -0.0741  0.1146
 8150TIP3    H145941   3.206   4.827   3.385  0.2536  1.0817  0.2489
 8150TIP3    H245942   3.305   4.723   3.336 -0.3550  1.1161 -1.0701
 8151TIP3   OH245943   3.097   0.978   4.591 -0.2051 -0.2624 -0.1341
 8151TIP3    H145944   3.011   0.962   4.631 -0.9039  0.4710 -1.3412
 8151TIP3    H245945   3.127   0.890   4.565 -1.1028 -0.3958 -0.7523
 8152TIP3   OH245946   3.959   5.835   4.466  0.0999  0.1022 -1.3551
 8152TIP3    H145947   3.895   5.765   4.481  0.4274 -0.1684 -1.2182
 8152TIP3    H245948   4.044   5.794   4.482  0.2100  0.9622  0.3415
 8153TIP3   OH245949   2.708   3.635  13.960  0.1402 -0.4375 -0.0270
 8153TIP3    H145950   2.667   3.630  13.873 -0.0208 -0.2221  0.0331
 8153TIP3    H245951   2.723   3.544  13.986 -1.6597 -0.5873  0.5741
 8154TIP3   OH245952   0.447   0.370  16.244  0.4709  0.0442 -0.4575
 8154TIP3    H145953   0.540   0.350  16.245  1.1159  2.8114 -0.7588
 8154TIP3    H245954   0.422   0.374  16.336  0.7634 -0.2111 -0.3655
 8155TIP3   OH245955   3.330   5.717   4.180  0.0419  0.2301  0.1584
 8155TIP3    H145956   3.332   5.667   4.262  0.0710  1.4638  0.9221
 8155TIP3    H245957   3.412   5.695   4.137  0.2334 -0.0834  0.6678
 8156TIP3   OH245958   3.335   6.216  14.585 -0.0450 -0.3632 -0.3613
 8156TIP3    H145959   3.281   6.295  14.581 -0.3283 -0.5221  0.3921
 8156TIP3    H245960   3.380   6.221  14.669 -0.3038 -1.1570 -0.1673
 8157TIP3   OH245961   4.068   6.563   4.471  0.7323  0.0756 -0.2908
 8157TIP3    H145962   4.023   6.487   4.434 -2.6472  0.5577  2.5331
 8157TIP3    H245963   4.123   6.528   4.540  2.7970 -0.2420 -2.0569
 8158TIP3   OH245964   2.868   0.135   5.926 -0.5178  0.1001  0.0719
 8158TIP3    H145965   2.962   0.141   5.911 -0.4103  0.2365  0.7788
 8158TIP3    H245966   2.859   0.118   6.019 -1.1822 -0.4057 -0.0758
 8159TIP3   OH245967   3.914   4.929  13.541  0.3070 -0.8093 -0.1931
 8159TIP3    H145968   3.967   4.870  13.488 -1.0619 -2.8845  0.6839
 8159TIP3    H245969   3.866   4.982  13.477  1.9220 -0.2871 -0.9812
 8160TIP3   OH245970   5.930   4.977  12.185 -0.1341  0.4791  0.5823
 8160TIP3    H145971   6.018   4.978  12.222 -0.4730  1.7698  1.3971
 8160TIP3    H245972   5.912   5.069  12.164 -1.1852  0.1883  0.1797
 8161TIP3   OH245973   2.716   2.888  16.768 -0.1044  0.4568 -0.1200
 8161TIP3    H145974   2.651   2.824  16.799 -1.0481  0.2393 -2.4285
 8161TIP3    H245975   2.800   2.842  16.774 -0.7368 -0.9144 -1.4189
 8162TIP3   OH245976   6.085   2.132   3.774  0.0707 -0.3389  0.0631
 8162TIP3    H145977   6.041   2.216   3.769 -0.7757 -0.7132  1.0343
 8162TIP3    H245978   6.129   2.133   3.860 -2.0276 -1.8768  1.1986
 8163TIP3   OH245979   0.804   1.713  17.199  0.6361 -0.1795 -0.5078
 8163TIP3    H145980   0.786   1.660  17.121 -0.4696 -0.7455  0.1259
 8163TIP3    H245981   0.804   1.650  17.271  1.8271  0.3202 -0.0610
 8164TIP3   OH245982   1.305   2.786  14.431 -0.7318 -0.3211 -0.9316
 8164TIP3    H145983   1.378   2.808  14.373 -0.8577  1.7387 -0.3466
 8164TIP3    H245984   1.239   2.853  14.413 -1.2560 -0.3810  0.7221
 8165TIP3   OH245985   3.194   2.599   2.586 -0.0204  0.1457 -0.2238
 8165TIP3    H145986   3.213   2.684   2.626  1.7957  0.0739 -0.8954
 8165TIP3    H245987   3.119   2.615   2.529  1.1964  1.6404 -1.4457
 8166TIP3   OH245988   2.124   6.695   4.134 -0.6006  0.0614 -0.6258
 8166TIP3    H145989   2.196   6.732   4.083 -1.8162 -1.1362 -3.3167
 8166TIP3    H245990   2.058   6.765   4.136  0.5686  1.1572  1.8363
 8167TIP3   OH245991   4.958   3.575  13.509 -0.6621  0.2295  0.2268
 8167TIP3    H145992   4.937   3.550  13.599 -0.1821 -1.3620 -0.0905
 8167TIP3    H245993   4.973   3.492  13.464 -5.7528  0.6009 -2.5382
 8168TIP3   OH245994   4.392   6.145  14.778  0.0658 -0.3885  0.4718
 8168TIP3    H145995   4.450   6.220  14.759 -2.1657  0.9034 -1.4372
 8168TIP3    H245996   4.364   6.160  14.868 -0.2228  1.0183  0.1696
 8169TIP3   OH245997   0.121   6.594  14.953  0.2511 -0.1396  1.0658
 8169TIP3    H145998   0.197   6.584  14.896  0.3601  2.3118  0.7375
 8169TIP3    H245999   0.152   6.570  15.040  1.3935  0.8126  0.9242
 8170TIP3   OH246000   4.531   4.540  15.162 -0.8170  0.0672 -0.0939
 8170TIP3    H146001   4.611   4.547  15.214  0.4995 -1.9627 -1.7740
 8170TIP3    H246002   4.522   4.626  15.120  0.5366  0.2965  0.0541
 8171TIP3   OH246003   3.068   1.107   5.655  0.1351 -0.0348 -0.1344
 8171TIP3    H146004   3.138   1.171   5.642  1.2330 -1.2525 -0.3190
 8171TIP3    H246005   3.090   1.064   5.737  0.2177 -1.1650 -0.7352
 8172TIP3   OH246006   1.311   2.415   4.177 -0.3443 -0.3915  0.1601
 8172TIP3    H146007   1.266   2.472   4.240 -2.1081 -3.4725  1.7841
 8172TIP3    H246008   1.395   2.396   4.219  1.0348  2.4120 -1.2183
 8173TIP3   OH246009   1.743   0.989  11.890 -0.1300 -0.2893 -0.1950
 8173TIP3    H146010   1.781   0.994  11.802  0.7842  0.3740  0.2252
 8173TIP3    H246011   1.652   0.965  11.876  0.1728 -0.8089 -1.2927
 8174TIP3   OH246012   3.675   3.915  13.205  0.3558 -0.0695 -0.3352
 8174TIP3    H146013   3.677   3.820  13.194 -0.9806 -0.2655  1.0131
 8174TIP3    H246014   3.585   3.940  13.187  0.4914  0.8257  0.1845
 8175TIP3   OH246015   4.570   0.792  14.875 -0.3330 -0.2972  0.3022
 8175TIP3    H146016   4.476   0.808  14.873  0.1024  2.6529  1.7105
 8175TIP3    H246017   4.595   0.810  14.965  1.5032 -1.6076  0.0690
 8176TIP3   OH246018   3.171   2.530   5.706 -0.5233  0.1059 -0.3594
 8176TIP3    H146019   3.143   2.587   5.777 -1.1988  0.5414 -0.9615
 8176TIP3    H246020   3.156   2.581   5.627  1.5738  0.1685 -0.7362
 8177TIP3   OH246021   5.652   4.844  11.110 -0.0344 -0.2793 -0.5797
 8177TIP3    H146022   5.704   4.803  11.041  2.1222  0.3152  0.6648
 8177TIP3    H246023   5.611   4.919  11.068  4.4545  2.4547 -0.3193
 8178TIP3   OH246024   2.925   3.779   4.990 -0.0060  0.1719 -0.6776
 8178TIP3    H146025   2.831   3.762   5.002  0.2200 -2.0698 -1.7929
 8178TIP3    H246026   2.928   3.857   4.935 -1.1930  0.7959  0.1064
 8179TIP3   OH246027   0.486   2.789  16.323  0.3136  0.4878 -0.1830
 8179TIP3    H146028   0.411   2.786  16.263 -2.1016 -1.0401  2.7473
 8179TIP3    H246029   0.487   2.879  16.356 -1.4000  0.0580  1.1076
 8180TIP3   OH246030   1.518   1.921  11.938 -0.0566 -0.1318  0.1740
 8180TIP3    H146031   1.446   1.980  11.961 -0.2582  1.0059 -3.1009
 8180TIP3    H246032   1.595   1.959  11.981 -0.3759  2.0084 -1.0627
 8181TIP3   OH246033   0.390   4.013  13.281  0.2289 -0.3996 -0.3897
 8181TIP3    H146034   0.364   3.967  13.360 -0.0286  0.5754  0.1018
 8181TIP3    H246035   0.371   4.105  13.299  0.9433 -0.0668 -1.2711
 8182TIP3   OH246036   4.334   6.051   5.479 -0.1577 -0.0045 -0.1149
 8182TIP3    H146037   4.380   5.974   5.447 -0.2909 -0.5155  0.8857
 8182TIP3    H246038   4.386   6.081   5.553 -0.5559  0.3755  0.0175
 8183TIP3   OH246039   0.607   1.273   4.243  0.3155  0.1195  0.1196
 8183TIP3    H146040   0.578   1.202   4.301  1.7578  0.2376  1.0120
 8183TIP3    H246041   0.682   1.237   4.197  0.5018  0.7745 -0.0904
 8184TIP3   OH246042   0.978   0.007   5.056  0.1627  0.4768  0.7270
 8184TIP3    H146043   1.025   0.083   5.021  0.2331  0.9210  1.7530
 8184TIP3    H246044   0.908  -0.008   4.994  0.3437  1.1838  0.3357
 8185TIP3   OH246045   0.914   2.964  15.651 -0.0941  1.0170 -0.9003
 8185TIP3    H146046   1.002   3.000  15.644  0.4985 -0.2386 -0.1535
 8185TIP3    H246047   0.911   2.923  15.738 -0.9175 -0.1909 -1.4716
 8186TIP3   OH246048   3.196   6.379   0.449  0.1743  0.2495  0.0285
 8186TIP3    H146049   3.264   6.427   0.400 -1.5663  1.5546 -1.1875
 8186TIP3    H246050   3.176   6.304   0.393 -0.6286  0.8416 -0.5038
 8187TIP3   OH246051   2.495   3.050  11.950 -0.4071 -0.3145 -0.0986
 8187TIP3    H146052   2.546   2.982  11.906  0.0254 -0.9330  1.3355
 8187TIP3    H246053   2.558   3.095  12.006 -0.7130  1.2115 -0.9407
 8188TIP3   OH246054   2.405   2.147  16.504  0.1248 -0.1116  0.0541
 8188TIP3    H146055   2.352   2.189  16.572 -0.5976 -0.4908 -0.2691
 8188TIP3    H246056   2.392   2.053  16.518 -2.1850 -0.1914 -2.2400
 8189TIP3   OH246057   4.162   3.148  10.746 -0.1515 -1.1778  0.0273
 8189TIP3    H146058   4.222   3.216  10.717 -1.3613 -0.3265 -0.5399
 8189TIP3    H246059   4.216   3.088  10.797  0.5796  1.2308  2.1888
 8190TIP3   OH246060   1.284   5.815   3.538 -0.3726  0.3099 -0.0816
 8190TIP3    H146061   1.271   5.729   3.498 -2.8126  0.9239 -0.7114
 8190TIP3    H246062   1.223   5.818   3.611 -0.3223  1.4998 -0.0684
 8191TIP3   OH246063   5.321   0.520  15.813  0.8596  0.0415  0.3257
 8191TIP3    H146064   5.235   0.562  15.806  0.4298 -0.5247  1.9716
 8191TIP3    H246065   5.382   0.593  15.823  0.6280  0.4646 -1.1729
 8192TIP3   OH246066   6.251   0.672   3.121  0.2743 -0.0648 -0.0007
 8192TIP3    H146067   6.345   0.665   3.106  0.1894 -0.0846 -0.5291
 8192TIP3    H246068   6.213   0.679   3.033  0.0089  2.7434  0.3016
 8193TIP3   OH246069   1.673   3.412  11.615  0.1750 -0.2607 -0.1687
 8193TIP3    H146070   1.609   3.437  11.548  1.0717 -0.4714 -1.1045
 8193TIP3    H246071   1.671   3.484  11.678  0.1791  0.4850 -1.0142
 8194TIP3   OH246072   1.301   3.888  14.880  0.1918  0.2060 -0.3976
 8194TIP3    H146073   1.378   3.852  14.836 -0.5157 -0.4068 -1.1444
 8194TIP3    H246074   1.236   3.897  14.811  0.2947  2.7937 -0.1925
 8195TIP3   OH246075   0.017   0.656   5.308 -0.0592  0.3969 -0.0304
 8195TIP3    H146076  -0.005   0.564   5.296  0.2868  0.3267 -0.1096
 8195TIP3    H246077  -0.038   0.703   5.245  0.3591  0.1834 -0.5543
 8196TIP3   OH246078   2.049   5.448  15.474 -0.2410 -0.3149  0.5792
 8196TIP3    H146079   1.994   5.373  15.495  1.7885 -1.9483  0.2963
 8196TIP3    H246080   2.041   5.457  15.379 -0.3857 -0.2508  0.5963
 8197TIP3   OH246081   1.846   1.310   0.657  0.2019  0.0446 -0.4831
 8197TIP3    H146082   1.844   1.333   0.750  0.6615 -1.1894 -0.1496
 8197TIP3    H246083   1.768   1.351   0.620 -0.5100 -0.2709  0.6507
 8198TIP3   OH246084   4.661   1.198   6.815 -0.0768  0.3664 -0.1627
 8198TIP3    H146085   4.597   1.148   6.866 -1.2728  3.2385  1.2435
 8198TIP3    H246086   4.624   1.203   6.727 -1.6695  1.7198  0.5590
 8199TIP3   OH246087   6.065   4.251   4.836  0.0184  0.3601 -0.3870
 8199TIP3    H146088   6.061   4.347   4.840  1.2989  0.4166 -0.0657
 8199TIP3    H246089   6.150   4.230   4.874 -1.2591 -1.0534  1.8386
 8200TIP3   OH246090   4.006   4.225   2.442 -0.4150 -0.6381 -0.0853
 8200TIP3    H146091   3.967   4.296   2.493  0.2253 -0.3735  0.0376
 8200TIP3    H246092   4.002   4.149   2.500  0.4579 -0.3014  0.4253
 8201TIP3   OH246093   2.379   4.779   3.481 -0.0981 -0.2869 -0.0817
 8201TIP3    H146094   2.415   4.764   3.569 -1.1368 -0.1483  0.3863
 8201TIP3    H246095   2.452   4.813   3.430  1.1415 -2.6771  0.0535
 8202TIP3   OH246096   5.028   6.076  12.101  0.5450  0.2824  0.4401
 8202TIP3    H146097   5.090   6.022  12.052  0.1682 -0.8047  1.1445
 8202TIP3    H246098   5.027   6.160  12.054  1.0305 -0.3562 -0.7337
 8203TIP3   OH246099   1.360   4.277  16.880  0.0099  0.2985 -0.1100
 8203TIP3    H146100   1.264   4.283  16.879 -0.0598 -0.6615 -0.4021
 8203TIP3    H246101   1.383   4.240  16.795  0.5294 -0.7260  0.4524
 8204TIP3   OH246102   1.483   2.089   2.811 -0.8038  0.5649 -0.4147
 8204TIP3    H146103   1.464   2.142   2.889 -1.1186 -0.2499  0.0686
 8204TIP3    H246104   1.401   2.089   2.762 -0.5703  1.1798 -0.8197
 8205TIP3   OH246105   5.270   6.617  12.408 -0.3936 -0.3314 -0.2604
 8205TIP3    H146106   5.340   6.552  12.413 -1.7904 -1.7893  0.7232
 8205TIP3    H246107   5.272   6.647  12.317  1.9619  0.1989 -0.0757
 8206TIP3   OH246108   5.594   0.266  14.181 -0.3523 -0.1481 -0.4753
 8206TIP3    H146109   5.602   0.173  14.198 -1.5805 -0.0776  0.5390
 8206TIP3    H246110   5.680   0.302  14.203  0.6866 -1.2687 -2.5465
 8207TIP3   OH246111   3.963   4.755  13.027  0.0044 -0.2440  0.3226
 8207TIP3    H146112   3.932   4.665  13.037 -1.0143 -0.0267 -0.7385
 8207TIP3    H246113   4.010   4.755  12.943 -1.6014  0.6149 -0.6190
 8208TIP3   OH246114   3.382   1.722   3.283  0.3348  0.3481  0.2459
 8208TIP3    H146115   3.335   1.640   3.266 -0.6757  1.0299 -0.2889
 8208TIP3    H246116   3.441   1.732   3.209  1.0739 -0.3197  0.7324
 8209TIP3   OH246117   1.374   2.965  12.032 -0.3838  0.0651 -0.1759
 8209TIP3    H146118   1.365   3.002  12.120 -0.8628  1.0980 -0.6591
 8209TIP3    H246119   1.459   2.919  12.034  0.0880  0.9601  0.5059
 8210TIP3   OH246120   2.011   2.492   2.197  0.2029 -0.0903 -0.8226
 8210TIP3    H146121   1.987   2.535   2.279  1.5097  1.3247 -1.1511
 8210TIP3    H246122   2.032   2.402   2.221  2.1918  0.7510  0.6724
 8211TIP3   OH246123   6.321   0.912  17.292  0.5520  0.9763  0.1706
 8211TIP3    H146124   6.324   0.856  17.370  0.1670 -0.1546 -0.6182
 8211TIP3    H246125   6.413   0.923  17.268  0.6109  0.2680  0.0459
 8212TIP3   OH246126   6.303   0.573  11.187 -0.3173 -0.0473 -0.7605
 8212TIP3    H146127   6.316   0.612  11.100 -0.9742  3.2147  0.5271
 8212TIP3    H246128   6.222   0.524  11.179 -0.4578  0.3496 -1.9455
 8213TIP3   OH246129   1.994   6.115  15.775 -0.0236 -0.1724  0.5372
 8213TIP3    H146130   2.036   6.034  15.745 -0.1006  0.4491 -1.2699
 8213TIP3    H246131   1.917   6.085  15.824 -0.3314 -1.1893 -0.5488
 8214TIP3   OH246132   4.255   2.053  16.839 -0.1417  0.3137 -0.0942
 8214TIP3    H146133   4.164   2.078  16.825 -0.2065  0.3280  0.3456
 8214TIP3    H246134   4.305   2.107  16.778 -0.3562  0.9073  0.2479
 8215TIP3   OH246135   6.806   0.458   0.813 -0.2222  0.1606 -0.1257
 8215TIP3    H146136   6.752   0.408   0.753 -0.8110 -1.0585  1.3924
 8215TIP3    H246137   6.893   0.459   0.772 -0.7636 -0.1093 -1.2873
 8216TIP3   OH246138   4.648   0.713   2.066  0.2086  0.0301 -0.0233
 8216TIP3    H146139   4.587   0.740   1.997 -2.6939  1.0434  2.7856
 8216TIP3    H246140   4.608   0.635   2.103  0.1708  1.1491  2.3711
 8217TIP3   OH246141   1.769   1.963  12.289 -0.2317  0.8262  0.3178
 8217TIP3    H146142   1.808   1.892  12.238 -2.2415 -1.3742  1.7628
 8217TIP3    H246143   1.725   2.018  12.223  1.4760  0.8645 -0.8224
 8218TIP3   OH246144   4.300   3.661   2.577  0.2287 -0.1983  0.1122
 8218TIP3    H146145   4.386   3.703   2.589 -1.4661  3.2676  0.6853
 8218TIP3    H246146   4.310   3.609   2.497  2.4936  1.2631 -0.6150
 8219TIP3   OH246147   2.582   3.001   0.863  0.1974 -0.2163 -1.3112
 8219TIP3    H146148   2.517   2.955   0.810 -0.9061  1.1676 -1.1997
 8219TIP3    H246149   2.576   2.960   0.949 -0.6663  0.0017 -1.2562
 8220TIP3   OH246150   5.303   5.806  13.599  0.3002  0.4023 -0.0565
 8220TIP3    H146151   5.388   5.763  13.596  1.3579  2.4241  0.2756
 8220TIP3    H246152   5.249   5.758  13.535  2.8224  1.5154 -3.1483
 8221TIP3   OH246153   5.662   3.853   3.337 -0.1846  0.0696  0.8167
 8221TIP3    H146154   5.719   3.800   3.282 -0.0552 -0.0425  1.0572
 8221TIP3    H246155   5.589   3.877   3.280 -0.2294 -0.3449  0.6954
 8222TIP3   OH246156   4.435   5.487  13.152  0.1759 -0.3578  0.2120
 8222TIP3    H146157   4.482   5.560  13.192 -0.6802 -0.0632  0.7026
 8222TIP3    H246158   4.359   5.527  13.111 -0.4098 -0.9948  0.6553
 8223TIP3   OH246159   2.492   6.620   4.181 -0.3593 -0.0117 -0.1997
 8223TIP3    H146160   2.587   6.621   4.170 -0.4353 -0.4917 -0.9637
 8223TIP3    H246161   2.476   6.670   4.261  0.4585  0.9640 -0.6402
 8224TIP3   OH246162   2.220   2.013   4.552  0.1168 -0.2379 -0.3519
 8224TIP3    H146163   2.259   1.927   4.539  0.2011 -0.3505  0.6348
 8224TIP3    H246164   2.125   1.998   4.544  0.0447 -0.6799  1.2029
 8225TIP3   OH246165   4.338   3.174   5.405  0.3238 -0.2027 -0.2226
 8225TIP3    H146166   4.363   3.119   5.331 -2.4353  0.8263 -2.0173
 8225TIP3    H246167   4.388   3.255   5.391 -0.6625  0.2283 -1.3452
 8226TIP3   OH246168   5.090   0.210  13.020 -0.4534 -0.5583  0.4457
 8226TIP3    H146169   5.147   0.146  13.062 -0.0778 -1.2770 -1.1043
 8226TIP3    H246170   5.014   0.159  12.991 -0.2225 -0.2878 -0.6705
 8227TIP3   OH246171   2.215   3.663  13.832 -0.1886 -0.3263 -0.0293
 8227TIP3    H146172   2.259   3.581  13.808 -0.3769 -0.3826 -0.1798
 8227TIP3    H246173   2.285   3.728  13.835 -0.0896 -0.4257 -0.2291
 8228TIP3   OH246174   0.339   3.824  13.930  0.2539 -0.0519  0.1651
 8228TIP3    H146175   0.280   3.752  13.908 -1.1055  1.0748  0.0725
 8228TIP3    H246176   0.420   3.804  13.881 -1.0098 -0.1546 -1.9304
 8229TIP3   OH246177   2.333   6.747   2.674  0.2055  0.0685 -0.4240
 8229TIP3    H146178   2.387   6.815   2.632 -0.0079 -0.2247 -1.1883
 8229TIP3    H246179   2.253   6.793   2.700  0.9254  0.5617  0.9482
 8230TIP3   OH246180   2.894   1.293  14.058  0.3842  0.0117  0.1869
 8230TIP3    H146181   2.827   1.339  14.108 -0.4974  0.3881 -1.3191
 8230TIP3    H246182   2.891   1.203  14.090  0.3220  0.4137  1.3117
 8231TIP3   OH246183   3.945   0.571   6.480  0.1407 -0.1915 -0.0042
 8231TIP3    H146184   3.915   0.512   6.549  1.4672  0.5200  1.2184
 8231TIP3    H246185   3.879   0.641   6.478 -0.3305 -0.6366 -0.0162
 8232TIP3   OH246186   6.087   6.809   0.443 -0.0547  0.2335  0.2558
 8232TIP3    H146187   6.010   6.830   0.390  0.3514  1.5294  0.1696
 8232TIP3    H246188   6.148   6.769   0.380 -0.9606 -1.5853  0.4939
 8233TIP3   OH246189   4.200   3.665  11.929  0.0638 -0.4264  0.1902
 8233TIP3    H146190   4.181   3.637  12.019  1.9771  0.2284  0.8315
 8233TIP3    H246191   4.229   3.585  11.885  1.8947 -0.2305  0.9786
 8234TIP3   OH246192   6.308   2.894  10.766  0.5783  0.4589  0.2093
 8234TIP3    H146193   6.236   2.861  10.710 -0.4294  0.0614  1.7128
 8234TIP3    H246194   6.297   2.989  10.766  0.8909  0.5057 -0.6573
 8235TIP3   OH246195   3.587   2.677   5.204  0.3939 -0.5150  0.5618
 8235TIP3    H146196   3.622   2.766   5.207 -0.0266 -0.3649  1.3249
 8235TIP3    H246197   3.494   2.687   5.227 -0.2243 -0.8823 -1.7173
 8236TIP3   OH246198   3.131   3.618   2.468 -0.0928 -0.2150  0.2520
 8236TIP3    H146199   3.093   3.534   2.445  1.2428 -0.8491  0.3336
 8236TIP3    H246200   3.204   3.597   2.526 -0.5295  1.0807  1.3031
 8237TIP3   OH246201   4.559   3.814   5.533  0.2450  0.0089  0.2275
 8237TIP3    H146202   4.504   3.736   5.525 -1.4005  1.1548  0.1454
 8237TIP3    H246203   4.646   3.779   5.549 -0.3811 -1.8674 -0.2181
 8238TIP3   OH246204   2.537   6.639  14.892 -0.9522 -0.3218  0.1383
 8238TIP3    H146205   2.556   6.610  14.981 -1.8244 -0.1976  0.3645
 8238TIP3    H246206   2.445   6.619  14.878 -0.7265 -0.7097 -0.8859
 8239TIP3   OH246207   2.045   4.244   1.571 -0.0862  0.2221  0.2170
 8239TIP3    H146208   1.961   4.199   1.576  0.6839 -1.0641  1.9573
 8239TIP3    H246209   2.097   4.191   1.511 -0.6798  1.3406 -1.3259
 8240TIP3   OH246210   0.218   5.760  13.864 -0.5449  0.3723 -0.2133
 8240TIP3    H146211   0.245   5.844  13.826 -0.6033  1.0853  1.2577
 8240TIP3    H246212   0.295   5.704  13.855  0.1697  1.2068  0.5263
 8241TIP3   OH246213   2.445   1.930  16.885  0.1061 -0.3610 -0.2543
 8241TIP3    H146214   2.481   1.917  16.972 -0.9319  0.0437  0.2430
 8241TIP3    H246215   2.353   1.904  16.892  0.0754 -0.5825 -1.2892
 8242TIP3   OH246216   0.171   2.106  13.562  0.2272 -0.7254  0.5502
 8242TIP3    H146217   0.190   2.112  13.656 -0.8198  0.5098  0.7103
 8242TIP3    H246218   0.240   2.156  13.520 -0.5278  0.5915  0.8456
 8243TIP3   OH246219   0.282   5.743  11.875 -0.4282 -0.1799 -0.0891
 8243TIP3    H146220   0.329   5.797  11.811  0.4595 -1.8811 -0.9101
 8243TIP3    H246221   0.323   5.762  11.959 -1.1583  1.5724 -0.1141
 8244TIP3   OH246222   1.686   3.816   5.473  0.1981  0.4726  0.3562
 8244TIP3    H146223   1.775   3.793   5.499 -0.1988 -0.7586  0.6813
 8244TIP3    H246224   1.650   3.735   5.437 -0.7957  0.9511  0.2498
 8245TIP3   OH246225   5.334   0.999   4.763 -0.0439  0.0301  0.2224
 8245TIP3    H146226   5.322   1.080   4.713  0.3859 -0.2540 -0.3540
 8245TIP3    H246227   5.388   0.944   4.706 -2.7696 -1.8267 -0.7147
 8246TIP3   OH246228   5.702   6.038  14.711  0.3126  0.7164 -0.0997
 8246TIP3    H146229   5.628   6.005  14.762  0.2044 -0.3968 -0.9360
 8246TIP3    H246230   5.680   6.015  14.620  1.9753 -0.2445 -0.2933
 8247TIP3   OH246231   1.018   4.919  15.365 -0.5679 -0.2212 -0.1344
 8247TIP3    H146232   1.098   4.903  15.414 -0.1036  2.2408  0.0076
 8247TIP3    H246233   0.948   4.915  15.430 -0.0090  2.5213  0.7078
 8248TIP3   OH246234   1.265   5.772   4.913  0.5235 -0.0400  0.3366
 8248TIP3    H146235   1.306   5.836   4.855  0.1889  0.9282  1.1503
 8248TIP3    H246236   1.299   5.793   5.000 -2.1031  1.2051  1.1341
 8249TIP3   OH246237   2.852   4.243  16.138 -0.3626 -0.1397 -0.4615
 8249TIP3    H146238   2.808   4.256  16.054  0.3155  0.1358 -0.7861
 8249TIP3    H246239   2.782   4.228  16.201 -0.7963 -2.3575 -1.4256
 8250TIP3   OH246240   3.307   5.366   2.789 -0.1772  0.3214 -0.6300
 8250TIP3    H146241   3.288   5.301   2.721 -1.0325 -2.1906  1.9085
 8250TIP3    H246242   3.331   5.314   2.866 -2.0943  2.9725  1.8634
 8251TIP3   OH246243   4.253   6.521  16.403  0.1765 -0.4363  0.2577
 8251TIP3    H146244   4.253   6.433  16.364  0.5705 -0.3236 -0.0024
 8251TIP3    H246245   4.221   6.578  16.333 -0.1063 -0.3774  0.4362
 8252TIP3   OH246246   4.940   4.946   4.788  0.2241 -0.1123 -0.0604
 8252TIP3    H146247   4.862   4.908   4.829 -0.1730  0.7872  0.0474
 8252TIP3    H246248   5.006   4.944   4.857 -0.1812  0.5737  0.3667
 8253TIP3   OH246249   4.059   6.011   0.098  1.0126 -0.3567  0.2147
 8253TIP3    H146250   4.034   6.102   0.115  1.7728 -0.5733  2.7141
 8253TIP3    H246251   3.980   5.961   0.114  0.7739 -0.2209 -0.5018
 8254TIP3   OH246252   3.865   1.466  14.359  0.1475  0.6357 -0.3321
 8254TIP3    H146253   3.841   1.439  14.270  0.3913  0.1893 -0.2655
 8254TIP3    H246254   3.889   1.384  14.403  0.1141  0.8666  0.1190
 8255TIP3   OH246255   5.101   4.453   2.082 -0.1697  0.1675  0.3069
 8255TIP3    H146256   5.057   4.401   2.014  2.9357 -2.3974  0.1144
 8255TIP3    H246257   5.077   4.410   2.164  0.3441  0.0118  0.3741
 8256TIP3   OH246258   0.022   1.905  14.531  0.5258 -0.2712  0.7612
 8256TIP3    H146259  -0.032   1.981  14.506 -2.3550 -1.8869  1.9120
 8256TIP3    H246260   0.012   1.844  14.458  1.3487 -0.3216  0.6856
 8257TIP3   OH246261   0.430   0.014  16.138  0.0200 -0.6332  0.2611
 8257TIP3    H146262   0.340   0.001  16.169  0.0655  0.1010  0.7205
 8257TIP3    H246263   0.482  -0.051  16.186 -0.1634 -0.5974  0.5088
 8258TIP3   OH246264   5.108   6.436  16.336 -0.5367 -0.2296 -0.2792
 8258TIP3    H146265   5.108   6.492  16.258  2.8028  1.0820  0.6139
 8258TIP3    H246266   5.164   6.363  16.312 -0.1764 -0.2443  0.6246
 8259TIP3   OH246267   4.806   1.658   2.310 -0.4009 -0.4611 -0.9915
 8259TIP3    H146268   4.861   1.710   2.251 -1.2920  1.1950 -0.3940
 8259TIP3    H246269   4.846   1.672   2.396 -0.3691 -1.1662 -0.8889
 8260TIP3   OH246270   3.766   1.969   2.646 -0.2837 -0.1649  0.1289
 8260TIP3    H146271   3.729   1.941   2.563  2.2641  0.2639 -1.1872
 8260TIP3    H246272   3.789   1.887   2.691  0.3037 -0.3549 -0.5104
 8261TIP3   OH246273   3.766   4.497   5.006  0.5119 -0.1132  1.3549
 8261TIP3    H146274   3.749   4.410   4.970 -1.8356  0.3483  1.3031
 8261TIP3    H246275   3.853   4.490   5.046  1.3520 -1.8212 -0.6783
 8262TIP3   OH246276   4.888   0.723  13.312  0.1985 -0.0307  0.2308
 8262TIP3    H146277   4.924   0.788  13.251 -0.5982 -0.1859 -0.4081
 8262TIP3    H246278   4.808   0.764  13.347 -0.0549 -0.4821  0.1795
 8263TIP3   OH246279   5.909   4.950  12.518  0.0302  0.4035 -0.1201
 8263TIP3    H146280   5.851   5.026  12.524  0.3717  0.5809  1.0148
 8263TIP3    H246281   5.850   4.875  12.518 -0.1968  0.5544  1.6447
 8264TIP3   OH246282   6.778   2.620   1.736 -0.3964 -0.0001  0.3205
 8264TIP3    H146283   6.725   2.694   1.765 -0.6573  0.2473 -0.7704
 8264TIP3    H246284   6.863   2.659   1.714 -0.6530  0.0357 -0.6130
 8265TIP3   OH246285   0.537   5.424   5.517  0.4617 -0.0393 -0.0954
 8265TIP3    H146286   0.603   5.490   5.496 -0.1444  0.3546 -0.8158
 8265TIP3    H246287   0.530   5.425   5.612 -0.0017  1.4011 -0.1322
 8266TIP3   OH246288   4.153   2.609   4.707 -0.6400 -0.3554  0.2203
 8266TIP3    H146289   4.176   2.662   4.783 -2.1839 -0.4147  0.7491
 8266TIP3    H246290   4.098   2.539   4.743 -2.9342  0.6723 -1.1830
 8267TIP3   OH246291   4.116   4.474  11.702  0.3893  0.4517 -0.1917
 8267TIP3    H146292   4.040   4.432  11.742  0.2129 -0.8854 -1.9042
 8267TIP3    H246293   4.079   4.530  11.633  0.8997  0.4469 -0.4692
 8268TIP3   OH246294   1.977   3.527   5.178  0.7906 -0.0532 -0.2838
 8268TIP3    H146295   1.943   3.544   5.090 -1.0477  1.7193  0.7437
 8268TIP3    H246296   1.928   3.450   5.207 -0.7703  1.1291  0.3031
 8269TIP3   OH246297   6.316   1.200  15.313 -0.0373  0.1799  0.0605
 8269TIP3    H146298   6.284   1.110  15.312  1.1777 -0.2621 -0.0785
 8269TIP3    H246299   6.411   1.192  15.311  0.0832  1.4729 -0.1902
 8270TIP3   OH246300   1.897   4.155   5.312  0.2842  0.5944 -0.3838
 8270TIP3    H146301   1.961   4.136   5.243  1.0889  0.3870  0.3983
 8270TIP3    H246302   1.927   4.238   5.350  0.1092  0.4804  0.0035
 8271TIP3   OH246303   2.514   5.266   1.341  0.2440 -0.5075 -0.2073
 8271TIP3    H146304   2.598   5.290   1.380  0.0179  0.4038 -0.2772
 8271TIP3    H246305   2.534   5.247   1.250  0.0056  1.9534 -0.7915
 8272TIP3   OH246306   3.067   2.276  15.834  0.3389  0.0304 -0.4462
 8272TIP3    H146307   2.976   2.252  15.817 -0.5573  2.0622  1.1924
 8272TIP3    H246308   3.099   2.208  15.894 -0.7245  0.3615  0.5148
 8273TIP3   OH246309   0.733   4.662  11.814  0.3406 -0.6105  0.1891
 8273TIP3    H146310   0.737   4.653  11.909  1.7151  3.1174  0.5445
 8273TIP3    H246311   0.644   4.693  11.796 -0.0735 -1.7679  0.1713
 8274TIP3   OH246312   4.504   6.114   4.171  0.4501  0.6662  0.6277
 8274TIP3    H146313   4.428   6.167   4.193  0.3572  0.3048  1.1892
 8274TIP3    H246314   4.506   6.046   4.238  0.9185  0.3174  0.2651
 8275TIP3   OH246315   1.998   5.188  16.208 -0.1109  0.7531 -0.3199
 8275TIP3    H146316   1.960   5.225  16.128  2.1680  2.6682 -0.5908
 8275TIP3    H246317   2.075   5.140  16.178 -1.9741 -2.7110  0.2499
 8276TIP3   OH246318   2.858   6.347  17.127  0.1178 -0.1395  0.4345
 8276TIP3    H146319   2.930   6.296  17.087 -2.2038 -2.1764 -1.3310
 8276TIP3    H246320   2.826   6.402  17.056 -1.3260 -0.7014  0.6299
 8277TIP3   OH246321   2.067   5.102   3.507  0.3053  0.5068 -0.2266
 8277TIP3    H146322   2.102   5.184   3.472 -2.1410  0.7982 -2.0864
 8277TIP3    H246323   2.072   5.112   3.602  0.7169  2.4966 -0.4466
 8278TIP3   OH246324   1.644   0.602  11.597  0.3916  0.2271  0.3897
 8278TIP3    H146325   1.688   0.558  11.524 -0.0319  0.9082 -0.2846
 8278TIP3    H246326   1.692   0.573  11.675  1.2434 -0.0155 -0.2168
 8279TIP3   OH246327   6.517   0.568   0.293  0.7391 -0.4900  0.0814
 8279TIP3    H146328   6.522   0.589   0.386 -1.3578 -0.1172  0.1343
 8279TIP3    H246329   6.561   0.642   0.250 -0.5739  0.6400  0.6441
 8280TIP3   OH246330   4.139   2.352  11.165 -0.0134  0.2328 -0.0679
 8280TIP3    H146331   4.205   2.419  11.184 -0.5596  0.7753 -0.0260
 8280TIP3    H246332   4.131   2.352  11.069 -0.8913  1.1146 -0.0086
 8281TIP3   OH246333   1.463   0.493  15.898 -0.5555  0.5053 -0.2159
 8281TIP3    H146334   1.556   0.510  15.889 -0.1974 -0.0990  1.9025
 8281TIP3    H246335   1.429   0.569  15.946 -0.3003 -1.2212  2.8379
 8282TIP3   OH246336   3.874   0.247   4.389 -0.9163 -0.2492 -0.0514
 8282TIP3    H146337   3.920   0.192   4.325 -0.1236  0.7576 -0.3534
 8282TIP3    H246338   3.792   0.270   4.346 -0.4397  0.3232 -0.6636
 8283TIP3   OH246339   3.939   6.687   2.965  0.4239 -0.2914 -0.2456
 8283TIP3    H146340   3.940   6.757   3.030 -0.1183 -0.9431  0.4790
 8283TIP3    H246341   3.857   6.700   2.917  2.0419  1.7155 -2.5023
 8284TIP3   OH246342   4.227   2.870  16.507  0.0021 -0.4664  0.3559
 8284TIP3    H146343   4.166   2.898  16.575  0.7604  0.4824  0.6549
 8284TIP3    H246344   4.284   2.946  16.493  0.4555 -0.9858 -0.6557
 8285TIP3   OH246345   1.768   0.749  12.833  0.5665  0.0503  0.6046
 8285TIP3    H146346   1.780   0.834  12.791 -0.0842 -0.2729 -0.2438
 8285TIP3    H246347   1.716   0.698  12.771 -1.1304 -0.1678  2.1546
 8286TIP3   OH246348   1.057   2.265  15.349 -0.9764 -0.1274  0.0566
 8286TIP3    H146349   0.989   2.289  15.287  0.1512  1.2192 -0.7015
 8286TIP3    H246350   1.032   2.309  15.431 -0.4905  1.2539 -0.5118
 8287TIP3   OH246351   4.165   0.343  13.650 -0.3416  0.4342  0.0610
 8287TIP3    H146352   4.214   0.319  13.571  1.7681  0.0827  1.4496
 8287TIP3    H246353   4.172   0.439  13.655  0.8526  0.3209  0.6594
 8288TIP3   OH246354   2.999   4.839   0.425 -0.2763  0.4061 -0.1749
 8288TIP3    H146355   2.929   4.781   0.395 -0.8664  0.4960  1.0163
 8288TIP3    H246356   3.064   4.835   0.355 -0.4814 -1.3882 -0.3019
 8289TIP3   OH246357   3.398   0.251   2.672  0.1312  0.2340 -0.7934
 8289TIP3    H146358   3.493   0.252   2.659 -0.0470  0.8672 -2.1668
 8289TIP3    H246359   3.362   0.247   2.584 -1.1233  0.5672 -0.3053
 8290TIP3   OH246360   2.867   2.179   5.059 -0.5809 -0.0759 -0.5603
 8290TIP3    H146361   2.870   2.083   5.056  0.2545 -0.1210  1.0768
 8290TIP3    H246362   2.959   2.205   5.068 -0.7105  0.9339 -2.0470
 8291TIP3   OH246363   3.215   0.549  13.052  0.3302 -0.0086 -0.0187
 8291TIP3    H146364   3.165   0.625  13.021  0.5984  0.0459 -0.3188
 8291TIP3    H246365   3.291   0.544  12.994  1.1176  0.4120  0.9487
 8292TIP3   OH246366   1.256   5.764   5.504  0.4970  0.1817  0.0607
 8292TIP3    H146367   1.297   5.691   5.458 -1.4585 -1.2040  0.4334
 8292TIP3    H246368   1.243   5.831   5.438  0.4887 -0.6022 -0.7382
 8293TIP3   OH246369   5.962   2.972   3.996  0.1489  0.6429  0.4271
 8293TIP3    H146370   6.040   2.964   4.051  0.7229 -0.2021 -0.4896
 8293TIP3    H246371   5.993   2.952   3.908 -1.1073  0.3112  0.0533
 8294TIP3   OH246372   3.686   1.726   4.092 -0.0042  0.3805  0.5784
 8294TIP3    H146373   3.608   1.759   4.048 -0.1713  0.9151  1.2601
 8294TIP3    H246374   3.756   1.731   4.027 -0.7353 -0.9362 -0.3104
 8295TIP3   OH246375   6.773   0.298  15.478 -0.0330 -0.2201  0.6430
 8295TIP3    H146376   6.803   0.380  15.516  1.7658 -1.9356  3.1296
 8295TIP3    H246377   6.699   0.271  15.532  1.6467 -1.9627  2.1943
 8296TIP3   OH246378   2.092   0.756  14.829  0.2401 -0.8055 -0.3289
 8296TIP3    H146379   1.998   0.736  14.832  0.4635 -1.6780  1.4017
 8296TIP3    H246380   2.115   0.777  14.920  1.2740  1.5731 -1.0995
 8297TIP3   OH246381   1.470   2.622  14.083 -0.2495 -0.2387  0.0614
 8297TIP3    H146382   1.544   2.561  14.089 -0.5759 -0.4674  2.0005
 8297TIP3    H246383   1.482   2.665  13.999  2.3372  0.0409  0.5233
 8298TIP3   OH246384   1.156   1.816   5.377  0.2827  0.2455  0.5387
 8298TIP3    H146385   1.068   1.844   5.354 -0.0798  1.2708  3.0723
 8298TIP3    H246386   1.148   1.780   5.465  2.4354  0.5280  0.8790
 8299TIP3   OH246387   6.114   1.616  17.205  0.0012 -0.0082  0.1470
 8299TIP3    H146388   6.097   1.539  17.151  0.9365 -0.8939  1.1011
 8299TIP3    H246389   6.175   1.669  17.153 -0.4009 -0.0590 -0.3731
 8300TIP3   OH246390   4.023   3.530   3.434 -0.0231  0.4082 -0.0830
 8300TIP3    H146391   4.117   3.530   3.451  0.0372 -1.7258 -0.2857
 8300TIP3    H246392   3.983   3.504   3.517 -0.4763  1.9677  0.1894
 8301TIP3   OH246393   0.333   2.733   0.464 -0.7303 -0.7685  0.9044
 8301TIP3    H146394   0.254   2.688   0.436 -0.9471  0.9716 -1.4768
 8301TIP3    H246395   0.397   2.715   0.395 -0.2720  1.0151  0.8309
 8302TIP3   OH246396   5.307   1.162  12.870 -0.2814  0.1199 -0.2445
 8302TIP3    H146397   5.237   1.190  12.930 -0.4380  0.5775 -0.6381
 8302TIP3    H246398   5.273   1.183  12.783 -0.0627 -0.5722 -0.4907
 8303TIP3   OH246399   1.086   5.236   2.734  0.1798 -0.3588  1.0783
 8303TIP3    H146400   1.004   5.189   2.720  0.6279 -1.0038  0.6171
 8303TIP3    H246401   1.155   5.172   2.715  0.7921  0.1723  1.4816
 8304TIP3   OH246402   1.892   2.417  13.462 -0.3717  0.3688 -0.2128
 8304TIP3    H146403   1.830   2.468  13.514  0.6601  0.3411  1.0532
 8304TIP3    H246404   1.868   2.437  13.371 -3.0235 -0.6059  0.2183
 8305TIP3   OH246405   6.643   6.394  11.319  0.1098  0.2694  0.2076
 8305TIP3    H146406   6.704   6.441  11.376  0.3922  0.8352 -0.5462
 8305TIP3    H246407   6.674   6.413  11.231  0.2494 -1.3694 -0.1074
 8306TIP3   OH246408   1.384   6.494   2.098 -0.0228  0.0288 -0.2574
 8306TIP3    H146409   1.394   6.413   2.149  3.7544 -0.5165 -1.6504
 8306TIP3    H246410   1.336   6.467   2.019  0.4845 -0.6890 -0.3273
 8307TIP3   OH246411   2.847   4.251   5.131  0.0889  0.4201  0.3024
 8307TIP3    H146412   2.884   4.291   5.210  0.7787  1.1584 -0.3766
 8307TIP3    H246413   2.888   4.164   5.127  0.1262  0.4181  0.7101
 8308TIP3   OH246414   6.253   4.815   2.988 -0.4570 -0.3587 -0.7976
 8308TIP3    H146415   6.315   4.743   2.996 -0.7728 -0.5925 -0.4316
 8308TIP3    H246416   6.299   4.882   2.936  0.0997 -0.5207 -0.5078
 8309TIP3   OH246417   1.431   1.277   5.333 -0.3977  0.1327  0.0881
 8309TIP3    H146418   1.405   1.200   5.282 -1.3552 -0.4091  1.3760
 8309TIP3    H246419   1.349   1.310   5.370  0.1165  1.2962  0.2168
 8310TIP3   OH246420   1.605   1.922  12.511 -0.2818  0.4740  0.6884
 8310TIP3    H146421   1.514   1.953  12.513 -0.5196 -0.0609 -0.8411
 8310TIP3    H246422   1.637   1.948  12.425  0.5353 -0.6470  0.6434
 8311TIP3   OH246423   2.405   4.417  13.144  0.0717 -0.2500 -0.0130
 8311TIP3    H146424   2.445   4.398  13.060 -0.3997 -1.1130 -0.0550
 8311TIP3    H246425   2.474   4.400  13.208  0.1956 -0.3641 -0.1769
 8312TIP3   OH246426   0.683   0.239   6.425  0.1275 -0.0704  0.3578
 8312TIP3    H146427   0.649   0.326   6.402  0.1626 -0.1926 -0.1654
 8312TIP3    H246428   0.758   0.257   6.481  0.2576  0.2461  0.0848
 8313TIP3   OH246429   2.394   6.599  13.315  0.4728  0.7530  0.3305
 8313TIP3    H146430   2.461   6.666  13.330  0.0628  0.6485  2.8498
 8313TIP3    H246431   2.409   6.570  13.225  2.2123  2.4924  0.0174
 8314TIP3   OH246432   5.120   0.230  12.238 -0.2335 -0.3349  0.3872
 8314TIP3    H146433   5.119   0.326  12.246 -1.9266 -0.2124 -0.9349
 8314TIP3    H246434   5.050   0.200  12.296  0.8250 -0.8451  1.4193
 8315TIP3   OH246435   6.022   5.555  17.147  0.7542 -0.1303 -0.1506
 8315TIP3    H146436   5.969   5.579  17.071 -0.7445 -2.2238  0.1697
 8315TIP3    H246437   5.993   5.615  17.216 -0.5477 -0.6312 -0.2481
 8316TIP3   OH246438   5.465   5.527  14.318 -0.5994 -0.4655  0.2083
 8316TIP3    H146439   5.414   5.555  14.242 -0.2814 -0.4008  0.0176
 8316TIP3    H246440   5.525   5.600  14.335 -1.7335  0.1852  1.4854
 8317TIP3   OH246441   0.509   3.124   3.961 -0.4958  0.0929  0.1003
 8317TIP3    H146442   0.426   3.149   4.003 -1.2808  1.6234 -2.2454
 8317TIP3    H246443   0.564   3.202   3.968  0.7176 -0.8840  1.5455
 8318TIP3   OH246444   1.502   6.495  14.522  0.3770  0.3993  0.2563
 8318TIP3    H146445   1.538   6.431  14.460  1.2767 -0.5874  1.7642
 8318TIP3    H246446   1.577   6.519  14.577 -0.9450 -0.7020  2.6112
 8319TIP3   OH246447   0.799   6.640  13.186  0.3265 -0.3253  0.1397
 8319TIP3    H146448   0.893   6.658  13.180  0.0858  1.2120  0.7222
 8319TIP3    H246449   0.781   6.584  13.111  1.5241  0.2048 -0.5683
 8320TIP3   OH246450   2.763   1.506  15.118 -0.2549  0.4535  0.0411
 8320TIP3    H146451   2.674   1.481  15.094 -0.3660  0.5225  0.3813
 8320TIP3    H246452   2.819   1.445  15.069 -0.4221  1.6788 -1.7303
 8321TIP3   OH246453   3.177   6.198  11.437 -0.0793 -0.0642 -0.0294
 8321TIP3    H146454   3.112   6.160  11.376 -0.5282  0.2519  0.2500
 8321TIP3    H246455   3.124   6.232  11.509  0.5272 -1.4622  1.0972
 8322TIP3   OH246456   5.400   4.901   4.070  0.1656 -0.5990 -0.0631
 8322TIP3    H146457   5.485   4.866   4.043  0.3834 -0.6103  0.6258
 8322TIP3    H246458   5.420   4.986   4.109 -0.4284  0.5903 -2.2668
 8323TIP3   OH246459   6.378   1.885   2.305  0.1636  0.3362  0.6022
 8323TIP3    H146460   6.435   1.852   2.374  2.9037  1.0124 -1.2545
 8323TIP3    H246461   6.329   1.956   2.345  1.2451  0.2899  2.0286
 8324TIP3   OH246462   5.422   6.616   5.180  0.6154 -0.1597 -0.1857
 8324TIP3    H146463   5.333   6.602   5.148  0.2769  0.7463  0.3239
 8324TIP3    H246464   5.444   6.705   5.150  1.3948 -0.4217 -0.4090
 8325TIP3   OH246465   3.849   5.281  12.412 -0.1940  0.6882 -0.1289
 8325TIP3    H146466   3.896   5.270  12.329 -0.6981 -0.9420 -0.2109
 8325TIP3    H246467   3.813   5.195  12.431 -0.8178  1.2579  1.3573
 8326TIP3   OH246468   4.048   6.812   6.094  0.3217 -0.5000 -0.0085
 8326TIP3    H146469   4.018   6.756   6.022  0.0288  0.3320 -0.5459
 8326TIP3    H246470   4.001   6.780   6.171 -2.3407  1.0741 -0.9185
 8327TIP3   OH246471   1.833   3.253   6.213  0.9293 -0.6369 -0.2234
 8327TIP3    H146472   1.827   3.216   6.301  0.9771 -1.9677 -0.7652
 8327TIP3    H246473   1.893   3.327   6.222  0.0885 -0.0813  1.0725
 8328TIP3   OH246474   5.256   2.989  14.701 -0.3833  0.2533 -0.2013
 8328TIP3    H146475   5.204   3.006  14.780  0.5375 -1.0494  0.7142
 8328TIP3    H246476   5.312   3.067  14.692 -1.7509  1.1933 -0.5966
 8329TIP3   OH246477   1.446   2.958   1.686  0.2803 -0.2031  0.1119
 8329TIP3    H146478   1.518   2.962   1.750 -0.7400  2.8526  1.1377
 8329TIP3    H246479   1.477   3.009   1.612 -0.3043  0.0090  0.0124
 8330TIP3   OH246480   4.940   2.391   4.025 -0.1485  0.3160 -0.9456
 8330TIP3    H146481   5.016   2.343   3.994  0.4729  0.5871  0.1375
 8330TIP3    H246482   4.865   2.337   4.000  0.4029  0.0140 -1.9409
 8331TIP3   OH246483   2.900   3.361  13.875  0.2599 -0.2420 -0.1355
 8331TIP3    H146484   2.943   3.396  13.953  2.1899 -1.1535 -0.7616
 8331TIP3    H246485   2.856   3.281  13.906  0.9679 -0.5673  0.0535
 8332TIP3   OH246486   0.871   3.863  15.184  0.3357  0.0568 -0.0083
 8332TIP3    H146487   0.964   3.855  15.166  0.3527 -0.7100  0.4326
 8332TIP3    H246488   0.865   3.871  15.279 -0.0933 -0.5792  0.0234
 8333TIP3   OH246489   6.310   6.492   5.444  0.2274 -0.1862  0.2041
 8333TIP3    H146490   6.290   6.398   5.451 -0.4708 -0.0919 -0.5728
 8333TIP3    H246491   6.249   6.534   5.505  1.2368 -0.3257  1.3210
 8334TIP3   OH246492   2.449   2.389   1.408  0.1530 -0.5873 -0.0093
 8334TIP3    H146493   2.439   2.328   1.481 -1.7836 -2.2233 -1.5433
 8334TIP3    H246494   2.443   2.476   1.447 -3.8839 -1.3981  1.4866
 8335TIP3   OH246495   4.166   3.696  11.570 -0.9333  0.2676  0.2396
 8335TIP3    H146496   4.193   3.608  11.595  1.0909  0.5224 -0.9528
 8335TIP3    H246497   4.096   3.682  11.506  0.8807 -0.5274 -1.6135
 8336TIP3   OH246498   1.008   0.121  16.391  0.3600 -0.7779 -0.5868
 8336TIP3    H146499   1.075   0.101  16.456  1.3284  0.4580 -1.1859
 8336TIP3    H246500   1.033   0.207  16.356 -2.4003  0.4742  0.3279
 8337TIP3   OH246501   5.434   5.123   4.681 -0.1324 -0.0045  0.6083
 8337TIP3    H146502   5.411   5.057   4.746  1.4619 -1.4651 -0.3081
 8337TIP3    H246503   5.413   5.206   4.724 -0.4126 -1.0022  2.4533
 8338TIP3   OH246504   5.859   2.593  11.920 -0.4914 -0.1994 -0.1501
 8338TIP3    H146505   5.834   2.501  11.920 -0.1350 -0.3121  1.9966
 8338TIP3    H246506   5.953   2.593  11.901 -0.7220 -0.1927 -1.3280
 8339TIP3   OH246507   2.790   5.723   3.750  0.5508 -0.0405  0.2648
 8339TIP3    H146508   2.783   5.644   3.804 -1.1511  1.1906  1.8961
 8339TIP3    H246509   2.839   5.785   3.804 -2.7168  1.8327  1.2339
 8340TIP3   OH246510   3.857   2.471  12.617 -0.1643  0.2147  0.4281
 8340TIP3    H146511   3.907   2.480  12.698 -1.0605 -2.0114  1.2594
 8340TIP3    H246512   3.922   2.487  12.547  1.3317 -0.9922  1.5052
 8341TIP3   OH246513   3.202   0.130  16.501  0.4315  0.2393 -0.0353
 8341TIP3    H146514   3.210   0.094  16.412  0.1440 -2.1762  0.8662
 8341TIP3    H246515   3.284   0.106  16.543  0.1151  0.4169  0.6803
 8342TIP3   OH246516   1.105   1.286   1.279  0.3998  0.6454 -0.3093
 8342TIP3    H146517   1.055   1.365   1.261  1.1972  1.0072 -0.9092
 8342TIP3    H246518   1.129   1.252   1.193 -1.1721 -1.0556 -0.1337
 8343TIP3   OH246519   4.821   3.541  16.420  0.2923  0.2750  0.4657
 8343TIP3    H146520   4.807   3.568  16.510 -0.5429 -1.4847  0.8920
 8343TIP3    H246521   4.743   3.490  16.398  0.1772  1.2364 -1.4821
 8344TIP3   OH246522   4.118   6.634  12.143  0.6515  0.3848 -0.1293
 8344TIP3    H146523   4.042   6.663  12.193  1.4849  1.0432  0.7935
 8344TIP3    H246524   4.109   6.539  12.137  0.6682  0.2652  1.5118
 8345TIP3   OH246525   6.757   0.165  16.276 -0.3272  0.3593 -0.4881
 8345TIP3    H146526   6.838   0.215  16.266 -1.0906  1.3717 -1.8509
 8345TIP3    H246527   6.779   0.077  16.246  0.7117  0.1724  0.7772
 8346TIP3   OH246528   6.549   3.125   2.392 -0.6931  0.2237 -0.5159
 8346TIP3    H146529   6.562   3.202   2.336 -1.5265  1.1267  0.4994
 8346TIP3    H246530   6.615   3.062   2.362  1.1769  1.9727 -0.2254
 8347TIP3   OH246531   6.357   0.872  14.271  0.1269  0.0130  0.0860
 8347TIP3    H146532   6.290   0.811  14.303 -0.3290  0.9143  0.8991
 8347TIP3    H246533   6.328   0.957  14.304  1.7741  0.3830  0.5835
 8348TIP3   OH246534   5.151   1.012   0.894 -0.0882 -0.0837  0.1525
 8348TIP3    H146535   5.069   0.962   0.888 -0.2604 -0.1596  2.4396
 8348TIP3    H246536   5.218   0.945   0.905  0.1560  0.0270 -0.6534
 8349TIP3   OH246537   4.937   6.806   0.048  0.0754 -0.0931 -0.6063
 8349TIP3    H146538   4.895   6.752   0.115  0.2176  0.4569 -0.0702
 8349TIP3    H246539   4.880   6.882   0.039 -0.1983 -0.3953 -1.4599
 8350TIP3   OH246540   1.596   1.234   2.769  0.0439  0.3186 -0.9686
 8350TIP3    H146541   1.578   1.303   2.832  0.0146 -0.1958 -0.4114
 8350TIP3    H246542   1.533   1.165   2.789  0.0581  0.1376 -1.5344
 8351TIP3   OH246543   4.669   0.028   0.211 -0.2400  0.1261  0.1121
 8351TIP3    H146544   4.675   0.048   0.304  0.4592  0.7818 -0.0644
 8351TIP3    H246545   4.657   0.114   0.169  0.8640 -0.0124 -0.5071
 8352TIP3   OH246546   0.565   0.481  13.682  0.0210 -0.1947  0.5785
 8352TIP3    H146547   0.511   0.502  13.758  0.3409 -0.1420  0.7895
 8352TIP3    H246548   0.655   0.489  13.713  0.1568 -2.2725  0.7869
 8353TIP3   OH246549   3.336   6.636  11.895  0.4089 -0.5691  0.5004
 8353TIP3    H146550   3.293   6.721  11.909 -0.0236 -0.7891  0.5047
 8353TIP3    H246551   3.352   6.602  11.983  3.5736  0.9949  0.6162
 8354TIP3   OH246552   5.513   1.208  13.026 -0.1125 -0.3000  0.3200
 8354TIP3    H146553   5.577   1.138  13.015  1.0371  0.8758 -0.5633
 8354TIP3    H246554   5.448   1.192  12.958  0.1354 -0.5078  0.1305
 8355TIP3   OH246555   1.842   1.580  17.210  0.0076 -0.3899  0.1033
 8355TIP3    H146556   1.759   1.544  17.178  0.3354 -0.7517 -0.3564
 8355TIP3    H246557   1.822   1.611  17.298 -0.9136  0.6044 -0.4334
 8356TIP3   OH246558   5.322   6.004  17.124 -0.6202  0.1255 -0.0424
 8356TIP3    H146559   5.252   5.981  17.063 -0.4010 -2.0571  0.4900
 8356TIP3    H246560   5.338   5.923  17.174  1.2550  1.0213  0.8515
 8357TIP3   OH246561   0.901   2.696  16.146 -0.0918 -0.0783 -0.2374
 8357TIP3    H146562   0.885   2.752  16.221 -1.3098  0.0483 -0.5743
 8357TIP3    H246563   0.875   2.608  16.175 -3.7845  0.4970 -1.5094
 8358TIP3   OH246564   3.833   5.079  16.860 -0.3908  0.0328  0.0188
 8358TIP3    H146565   3.769   5.146  16.833 -1.8566 -1.3822 -0.1111
 8358TIP3    H246566   3.858   5.105  16.949  0.5955  1.8619 -0.7574
 8359TIP3   OH246567   3.365   6.638   3.153 -0.0190 -0.1244  0.3089
 8359TIP3    H146568   3.305   6.604   3.087 -0.2534  0.1839  0.3615
 8359TIP3    H246569   3.314   6.639   3.234  1.1650 -3.3573  1.1715
 8360TIP3   OH246570   3.515   1.161  12.987 -0.1329  0.2911 -0.1221
 8360TIP3    H146571   3.449   1.187  13.051  0.3904  1.1426  0.0803
 8360TIP3    H246572   3.553   1.244  12.957  1.7034 -0.2370  0.6705
 8361TIP3   OH246573   1.181   6.094   0.583 -0.4239 -0.1991  0.5986
 8361TIP3    H146574   1.108   6.151   0.557 -1.6507 -2.0125 -0.0787
 8361TIP3    H246575   1.142   6.032   0.645  1.3080  0.8065  2.7456
 8362TIP3   OH246576   0.505   0.589   0.442  0.5302  0.6634  0.1251
 8362TIP3    H146577   0.598   0.602   0.426  0.9627 -1.7764  0.3675
 8362TIP3    H246578   0.501   0.553   0.530 -0.6576  0.8754  0.1648
 8363TIP3   OH246579   2.818   3.227   2.941 -0.2211 -0.5702 -0.5408
 8363TIP3    H146580   2.840   3.207   3.033  1.4824 -1.9469 -1.2158
 8363TIP3    H246581   2.730   3.193   2.930 -0.3116 -0.6985  0.4982
 8364TIP3   OH246582   5.493   4.870   0.105 -0.3709 -0.7465 -0.0136
 8364TIP3    H146583   5.561   4.818   0.145 -0.3872  0.4317  1.6024
 8364TIP3    H246584   5.535   4.911   0.029  1.1072  0.9899  1.7047
 8365TIP3   OH246585   0.123   1.684   4.456  0.1104 -0.3392 -1.2330
 8365TIP3    H146586   0.053   1.621   4.476  1.5896 -1.3232  0.9508
 8365TIP3    H246587   0.102   1.761   4.509  2.1869 -1.7062  1.7343
 8366TIP3   OH246588   4.538   0.507  16.088 -0.0015 -0.1713  0.2617
 8366TIP3    H146589   4.571   0.591  16.055 -1.4653  0.6830  0.8808
 8366TIP3    H246590   4.613   0.448  16.085  0.1182  0.0562 -3.9323
 8367TIP3   OH246591   2.393   0.439   2.219  0.0359  0.4972 -0.9139
 8367TIP3    H146592   2.302   0.442   2.245  0.2106  0.1547 -0.2597
 8367TIP3    H246593   2.396   0.376   2.147 -0.1360  0.0176 -0.5010
 8368TIP3   OH246594   6.064   6.606  13.074  0.2108  0.3940  0.0627
 8368TIP3    H146595   5.969   6.598  13.081  0.1961  2.0774  2.6088
 8368TIP3    H246596   6.099   6.543  13.137  0.6817  1.8887  1.3324
 8369TIP3   OH246597   0.834   5.843   0.837 -0.3264 -0.5320 -0.3706
 8369TIP3    H146598   0.858   5.831   0.745  0.4319  0.6035 -0.3180
 8369TIP3    H246599   0.763   5.780   0.851  0.6411 -1.8555 -1.2918
 8370TIP3   OH246600   1.783   2.236  11.547  0.4157  0.1077  0.2677
 8370TIP3    H146601   1.693   2.212  11.566  0.4370 -1.2060 -1.1925
 8370TIP3    H246602   1.804   2.303  11.612 -1.6824  0.6080  0.4820
 8371TIP3   OH246603   5.887   3.706   0.605 -0.4293  0.6662 -0.2105
 8371TIP3    H146604   5.967   3.759   0.607 -0.7121  1.0861 -0.2167
 8371TIP3    H246605   5.882   3.673   0.515 -0.1230  0.4211 -0.1429
 8372TIP3   OH246606   1.828   2.482   2.778  0.6377 -0.5275  0.8173
 8372TIP3    H146607   1.745   2.517   2.808  0.0499 -0.0722 -1.2752
 8372TIP3    H246608   1.836   2.398   2.823 -1.2480 -0.8519  0.5786
 8373TIP3   OH246609   6.230   0.417   1.126 -0.2398  0.0140 -0.2194
 8373TIP3    H146610   6.232   0.325   1.152  0.3818  0.7811  2.6079
 8373TIP3    H246611   6.323   0.441   1.116 -0.4168  0.1935 -1.4595
 8374TIP3   OH246612   2.527   1.314   2.395  0.2662  0.0492 -0.2262
 8374TIP3    H146613   2.498   1.277   2.311 -3.1518  0.3345  0.7573
 8374TIP3    H246614   2.504   1.407   2.390 -0.0201  0.0580  1.0283
 8375TIP3   OH246615   6.149   4.763   6.129  0.5332 -0.0079 -0.6848
 8375TIP3    H146616   6.155   4.857   6.112  0.8255 -0.2198 -1.8017
 8375TIP3    H246617   6.239   4.735   6.142  0.2809  0.2481  1.9145
 8376TIP3   OH246618   4.242   4.013   5.891 -0.6042 -0.2476 -0.0728
 8376TIP3    H146619   4.147   4.007   5.899 -0.5694 -0.2890  0.2826
 8376TIP3    H246620   4.255   4.080   5.824 -0.8748  0.1118  0.2306
 8377TIP3   OH246621   4.052   1.720   3.859 -0.1453 -0.2060 -0.1749
 8377TIP3    H146622   4.075   1.684   3.944 -1.6687 -0.4891  0.1247
 8377TIP3    H246623   4.118   1.685   3.799 -0.4147 -1.8548  0.4823
 8378TIP3   OH246624   6.448   6.688  14.709  0.2707  0.3883  0.1907
 8378TIP3    H146625   6.464   6.597  14.732  1.2834  0.0168 -1.8477
 8378TIP3    H246626   6.379   6.717  14.769  0.1400 -1.6307  1.0306
 8379TIP3   OH246627   4.694   0.510   0.055 -0.0537  0.0617  0.1691
 8379TIP3    H146628   4.637   0.518  -0.022  0.2977  0.5351 -0.0414
 8379TIP3    H246629   4.699   0.598   0.091 -0.1527 -0.1438  0.6958
 8380TIP3   OH246630   1.526   2.782   5.973  0.3983 -0.0705 -0.1742
 8380TIP3    H146631   1.446   2.786   5.921 -0.2633 -0.4885  0.8037
 8380TIP3    H246632   1.580   2.716   5.929 -1.1884 -2.2696  1.0716
 8381TIP3   OH246633   6.518   2.916   0.043 -0.3021  0.4274  0.0278
 8381TIP3    H146634   6.428   2.941   0.064 -0.6370 -2.1227  1.9628
 8381TIP3    H246635   6.572   2.983   0.084 -1.2855  2.2413 -1.5384
 8382TIP3   OH246636   5.388   3.357   3.199 -0.6260  0.0782 -0.2543
 8382TIP3    H146637   5.333   3.436   3.196 -0.0421  0.4406 -1.9499
 8382TIP3    H246638   5.478   3.390   3.195 -0.3489 -0.6192  0.1320
 8383TIP3   OH246639   5.690   2.729   5.779 -0.1376 -0.3764  0.0678
 8383TIP3    H146640   5.783   2.721   5.757  0.0412 -0.1776  0.7525
 8383TIP3    H246641   5.688   2.784   5.857 -0.8315 -0.3612  0.0424
 8384TIP3   OH246642   1.260   5.530  10.476  0.3852 -0.1727 -0.1033
 8384TIP3    H146643   1.285   5.441  10.500 -0.0720 -0.1320  0.5285
 8384TIP3    H246644   1.180   5.547  10.526  0.0836  0.3382 -0.7524
 8385TIP3   OH246645   3.633   6.741   4.861  0.0595  0.1709 -0.6866
 8385TIP3    H146646   3.598   6.657   4.831 -1.6115  0.8350 -0.6754
 8385TIP3    H246647   3.606   6.804   4.794  1.4697  0.6822 -0.7979
 8386TIP3   OH246648   5.720   4.116  12.277 -0.5604 -0.4828  0.5956
 8386TIP3    H146649   5.675   4.200  12.274  2.5629  1.2419 -0.3453
 8386TIP3    H246650   5.688   4.069  12.200  0.2226  1.2552 -0.8233
 8387TIP3   OH246651   4.590   2.995   2.393 -0.1684  0.2730  0.3461
 8387TIP3    H146652   4.633   2.973   2.311 -1.2301  0.5379 -0.2950
 8387TIP3    H246653   4.614   2.925   2.453  1.7962  0.8393  0.2392
 8388TIP3   OH246654   4.544   0.536   3.858  0.5050  0.5579 -0.6203
 8388TIP3    H146655   4.457   0.520   3.894  0.7472  1.6466  0.5079
 8388TIP3    H246656   4.589   0.452   3.863 -0.0106  0.3239  0.1289
 8389TIP3   OH246657   0.052   5.198  17.264  0.6419 -0.0676  0.5063
 8389TIP3    H146658   0.113   5.166  17.330  2.3722  0.7233 -0.6695
 8389TIP3    H246659   0.106   5.212  17.186 -0.9414  1.1499 -0.4011
 8390TIP3   OH246660   2.448   0.317   5.818  0.2371 -0.4431 -0.5846
 8390TIP3    H146661   2.404   0.232   5.808 -0.3701  0.0405 -2.1543
 8390TIP3    H246662   2.470   0.343   5.729  1.5558  0.4687 -0.0070
 8391TIP3   OH246663   6.805   2.860   1.230 -0.5438 -0.4435 -0.0665
 8391TIP3    H146664   6.763   2.941   1.258  0.2836  0.2244 -0.7647
 8391TIP3    H246665   6.755   2.832   1.153 -1.3862 -1.0795  0.6957
 8392TIP3   OH246666   0.421   4.470  16.120  0.7718 -0.0557  0.0050
 8392TIP3    H146667   0.513   4.492  16.136  0.8611 -2.2000  2.5976
 8392TIP3    H246668   0.373   4.519  16.187 -0.0691  1.4047 -1.6167
 8393TIP3   OH246669   6.450   3.719  11.850  0.5275  0.5226  0.2575
 8393TIP3    H146670   6.503   3.717  11.770 -0.5864  1.8214 -0.5316
 8393TIP3    H246671   6.455   3.810  11.880  0.0953  0.2709  1.1028
 8394TIP3   OH246672   6.630   2.664   2.285  0.4592  0.3507  0.0087
 8394TIP3    H146673   6.712   2.635   2.245 -0.2236 -0.8511 -0.5200
 8394TIP3    H246674   6.633   2.629   2.374 -0.0143 -0.7033 -0.3856
 8395TIP3   OH246675   3.253   3.178   3.601 -0.4791  0.0234 -0.1970
 8395TIP3    H146676   3.205   3.100   3.629  0.1435 -0.4984 -0.5765
 8395TIP3    H246677   3.318   3.145   3.539  0.2068  0.7606  0.1273
 8396TIP3   OH246678   0.126   3.018   3.943  0.4752 -0.3296 -0.4382
 8396TIP3    H146679   0.130   3.076   3.867 -1.6697 -0.3631 -0.6010
 8396TIP3    H246680   0.163   3.070   4.015 -1.0252  1.1019 -0.6743
 8397TIP3   OH246681   2.053   5.831   4.079  0.3856  0.2781 -0.3044
 8397TIP3    H146682   2.012   5.746   4.098 -1.0993  1.1239  0.4015
 8397TIP3    H246683   2.071   5.828   3.985  0.2696 -0.7902 -0.3009
 8398TIP3   OH246684   4.760   3.890   0.402 -0.4810  0.1777  0.2697
 8398TIP3    H146685   4.856   3.889   0.400 -0.4256  2.2311  1.1291
 8398TIP3    H246686   4.738   3.882   0.495 -1.1227  0.3833  0.1385
 8399TIP3   OH246687   5.345   1.869  17.212  0.2372 -0.7997  0.3609
 8399TIP3    H146688   5.342   1.927  17.288  1.3183  0.1793 -0.3318
 8399TIP3    H246689   5.292   1.912  17.146  0.7658 -0.7515 -0.0423
 8400TIP3   OH246690   0.933   4.769  15.678 -0.2780 -0.3458 -0.0820
 8400TIP3    H146691   0.894   4.811  15.754 -1.5551 -1.1453 -0.2839
 8400TIP3    H246692   1.027   4.787  15.686 -0.4278 -0.2182  1.5468
 8401TIP3   OH246693   5.865   5.742   5.280  0.3414 -0.2693 -0.4351
 8401TIP3    H146694   5.822   5.688   5.347  1.6581  0.0542  0.7008
 8401TIP3    H246695   5.840   5.832   5.302 -0.9155 -0.3046 -1.6412
 8402TIP3   OH246696   5.059   3.629  12.663 -0.0399  0.3624 -0.1539
 8402TIP3    H146697   5.028   3.714  12.632 -1.3430  0.2479  0.8191
 8402TIP3    H246698   5.119   3.649  12.735 -0.8025  0.4454  0.4645
 8403TIP3   OH246699   5.147   1.106  11.672  0.4616  0.2996  0.3019
 8403TIP3    H146700   5.134   1.059  11.755  1.1758 -2.0382 -0.8434
 8403TIP3    H246701   5.191   1.042  11.616 -0.1499  1.7983 -1.9362
 8404TIP3   OH246702   0.344   4.710   1.087 -0.1225  0.0759 -0.2748
 8404TIP3    H146703   0.329   4.786   1.143  0.1300 -0.4626  0.5280
 8404TIP3    H246704   0.433   4.723   1.053 -0.2196  0.3246 -0.4367
 8405TIP3   OH246705   6.756   3.378  11.738 -0.0703 -0.5542  0.0688
 8405TIP3    H146706   6.846   3.406  11.719  0.0391 -1.2819 -0.5104
 8405TIP3    H246707   6.742   3.304  11.680 -1.3597  0.1078 -0.4691
 8406TIP3   OH246708   6.604   4.792  11.571 -0.4648  0.3304 -0.0874
 8406TIP3    H146709   6.530   4.850  11.586  0.3377  1.5110 -0.5616
 8406TIP3    H246710   6.627   4.758  11.657 -1.1525  0.4666  0.1458
 8407TIP3   OH246711   1.143   5.920   2.670 -0.2459  0.1360 -0.4009
 8407TIP3    H146712   1.237   5.920   2.654 -0.1154  1.0865  0.2915
 8407TIP3    H246713   1.129   5.852   2.736 -0.0166  0.1444 -0.3445
 8408TIP3   OH246714   5.832   3.112   5.194  0.2635 -0.1659  0.3659
 8408TIP3    H146715   5.815   3.059   5.271 -0.6481 -3.8111 -2.2342
 8408TIP3    H246716   5.751   3.161   5.180 -0.0502 -0.5387  0.8728
 8409TIP3   OH246717   6.588   6.650  15.657  0.0675 -0.0450  0.0798
 8409TIP3    H146718   6.504   6.653  15.702 -0.1952 -0.7496 -0.3461
 8409TIP3    H246719   6.650   6.617  15.723  0.0222  0.5123  0.4051
 8410TIP3   OH246720   1.463   3.667   5.347 -0.2737 -0.1290 -0.5351
 8410TIP3    H146721   1.472   3.609   5.271 -1.1391 -1.2910  0.2253
 8410TIP3    H246722   1.389   3.724   5.326 -0.6838 -0.6291 -0.4630
 8411TIP3   OH246723   6.114   3.405  12.862  0.0362 -0.5898  0.8832
 8411TIP3    H146724   6.096   3.391  12.769 -0.3545 -1.0222  1.0210
 8411TIP3    H246725   6.086   3.495  12.880 -1.3668 -1.0309  0.9441
 8412TIP3   OH246726   0.248   0.151  14.006  0.0044 -0.6574  0.1439
 8412TIP3    H146727   0.197   0.083  14.050  0.3540 -1.0353 -0.0397
 8412TIP3    H246728   0.182   0.202  13.959 -0.2518 -0.8991  0.2371
 8413TIP3   OH246729   6.043   2.780  15.600 -0.0653 -0.5426  0.4535
 8413TIP3    H146730   6.055   2.865  15.559 -0.5274 -0.2263  0.9734
 8413TIP3    H246731   6.123   2.767  15.651  0.5437 -0.9729 -0.5960
 8414TIP3   OH246732   6.013   4.458  16.979 -0.2221  0.3126 -0.0039
 8414TIP3    H146733   5.935   4.443  17.033 -1.2233  1.3991 -1.1131
 8414TIP3    H246734   6.008   4.550  16.954  1.3387  0.3531 -0.2203
 8415TIP3   OH246735   2.703   5.294  10.807 -0.7158  0.4204  0.1343
 8415TIP3    H146736   2.712   5.341  10.724 -0.5450 -0.4864 -0.3685
 8415TIP3    H246737   2.609   5.290  10.822 -0.8053 -0.3670 -0.5822
 8416TIP3   OH246738   0.086   4.683  11.225 -0.2462 -0.1207  0.3780
 8416TIP3    H146739   0.162   4.647  11.179 -0.5993 -0.8702  0.3781
 8416TIP3    H246740   0.011   4.635  11.190 -0.4413 -1.1977  2.2479
 8417TIP3   OH246741   6.327   3.890  16.651 -0.2221 -0.6739 -0.1020
 8417TIP3    H146742   6.370   3.928  16.574 -1.2764  0.7405 -0.0240
 8417TIP3    H246743   6.233   3.899  16.632 -0.4941  0.2063  1.5983
 8418TIP3   OH246744   2.633   6.022   3.723 -0.2387 -0.3039 -0.3422
 8418TIP3    H146745   2.544   5.991   3.738 -0.1181 -0.1098  0.8533
 8418TIP3    H246746   2.682   5.993   3.800 -0.0222  2.4555  0.6292
 8419TIP3   OH246747   0.494   5.753   6.473  0.0649  0.4163 -0.0677
 8419TIP3    H146748   0.546   5.786   6.547  0.4758  0.8823 -0.5679
 8419TIP3    H246749   0.475   5.830   6.420 -0.9344  0.2084 -0.0223
 8420TIP3   OH246750   4.719   0.408   2.987 -0.5895  0.1096 -0.0778
 8420TIP3    H146751   4.786   0.455   2.936 -0.3511  0.7500  0.8246
 8420TIP3    H246752   4.683   0.344   2.925  0.3321  0.2701 -0.7931
 8421TIP3   OH246753   0.274   2.401  17.236 -0.6201 -0.2315 -0.2453
 8421TIP3    H146754   0.342   2.349  17.194  0.5012 -0.0331  1.2644
 8421TIP3    H246755   0.279   2.377  17.329 -1.2498  1.2764  0.2057
 8422TIP3   OH246756   5.938   0.856   4.393 -0.3807 -0.5812 -0.1296
 8422TIP3    H146757   5.879   0.784   4.416 -1.5218  0.0628 -0.9698
 8422TIP3    H246758   5.941   0.855   4.297  0.7949 -0.4642 -0.0993
 8423TIP3   OH246759   0.780   3.120  13.904 -0.0459  0.1671  0.8359
 8423TIP3    H146760   0.808   3.057  13.838  1.2327  0.9806  0.5828
 8423TIP3    H246761   0.781   3.070  13.986 -0.4459 -0.5127  0.4377
 8424TIP3   OH246762   4.739   5.877   2.376 -0.4436 -0.2353 -0.1614
 8424TIP3    H146763   4.643   5.882   2.381 -0.8443 -1.8384 -4.0937
 8424TIP3    H246764   4.761   5.791   2.411 -0.6849 -0.7325 -1.2028
 8425TIP3   OH246765   4.374   5.922   5.796 -0.5132  0.3723 -0.1789
 8425TIP3    H146766   4.373   5.858   5.725 -0.5093 -0.2052  0.3401
 8425TIP3    H246767   4.283   5.952   5.803 -1.0999 -1.7331  1.5144
 8426TIP3   OH246768   4.419   0.891   3.234  1.0377 -0.8048  0.1451
 8426TIP3    H146769   4.384   0.977   3.259  2.3802  0.0025 -0.7346
 8426TIP3    H246770   4.476   0.866   3.307  1.8602 -0.2381 -0.2975
 8427TIP3   OH246771   5.325   1.506  14.904 -0.0764 -0.5862 -0.0112
 8427TIP3    H146772   5.346   1.588  14.860  0.0302 -0.1953  0.7645
 8427TIP3    H246773   5.331   1.440  14.835 -2.4612  0.3342 -1.1702
 8428TIP3   OH246774   0.605   1.093  15.081 -0.2254 -0.0469 -0.5891
 8428TIP3    H146775   0.685   1.051  15.049 -0.3233  0.3949 -1.4269
 8428TIP3    H246776   0.553   1.021  15.116  0.9405 -0.2184  0.8293
 8429TIP3   OH246777   3.234   4.894   0.587 -0.2458  0.0568 -0.3657
 8429TIP3    H146778   3.161   4.872   0.530 -1.5875 -0.9822  1.6555
 8429TIP3    H246779   3.283   4.812   0.597  0.0238  0.2456 -0.0988
 8430TIP3   OH246780   0.956   3.336   5.807 -0.2458 -0.2481  0.0741
 8430TIP3    H146781   1.046   3.364   5.823 -0.6472 -0.6600  3.3663
 8430TIP3    H246782   0.962   3.277   5.731  2.6321 -2.0577  1.6319
 8431TIP3   OH246783   0.534   3.118   0.974 -0.4854 -0.2032  0.9131
 8431TIP3    H146784   0.561   3.035   0.935 -0.7211 -0.3644  1.0915
 8431TIP3    H246785   0.542   3.182   0.903  3.3908  0.3899  1.7731
 8432TIP3   OH246786   4.699   2.660  11.712 -0.0104 -0.5583 -0.2417
 8432TIP3    H146787   4.734   2.581  11.672  0.0229 -1.1455  0.9318
 8432TIP3    H246788   4.776   2.705  11.748 -0.2232 -0.8596  0.6010
 8433TIP3   OH246789   6.342   2.247  16.734 -0.0214 -0.4253  0.1989
 8433TIP3    H146790   6.427   2.243  16.690  0.0837 -2.7061  0.5576
 8433TIP3    H246791   6.357   2.208  16.820 -0.9452  1.1635  1.1095
 8434TIP3   OH246792   6.714   2.304  11.062  0.5398 -0.2711  0.0645
 8434TIP3    H146793   6.790   2.247  11.067  1.8463  1.3381 -0.9222
 8434TIP3    H246794   6.719   2.344  10.975 -1.7809 -0.6012 -0.2540
 8435TIP3   OH246795   3.271   6.695  14.967 -0.4454 -0.3039  0.3348
 8435TIP3    H146796   3.278   6.678  14.873 -0.9892 -1.3080  0.4657
 8435TIP3    H246797   3.241   6.785  14.973  1.1262  0.2761 -0.4242
 8436TIP3   OH246798   1.783   2.014  15.496 -0.5058  0.0226  0.4341
 8436TIP3    H146799   1.791   1.978  15.407 -0.7677  1.1707 -0.0684
 8436TIP3    H246800   1.828   2.099  15.491 -1.6903  0.6966  1.0288
 8437TIP3   OH246801   4.407   5.065   2.029  0.1057 -0.7580  0.3460
 8437TIP3    H146802   4.480   5.125   2.020 -1.0025  0.7538  1.2813
 8437TIP3    H246803   4.426   5.015   2.108  0.0638 -0.2719  0.6647
 8438TIP3   OH246804   1.848   0.772  10.571 -0.4090  0.3565 -0.0447
 8438TIP3    H146805   1.906   0.744  10.641 -1.0669 -1.0318 -0.0397
 8438TIP3    H246806   1.772   0.810  10.616  0.7758  2.8201 -0.0577
 8439TIP3   OH246807   1.823   1.080  13.634 -0.0881  0.3274  0.0587
 8439TIP3    H146808   1.891   1.045  13.691  0.7256  1.0133 -0.4700
 8439TIP3    H246809   1.871   1.114  13.558 -1.2788 -2.4140 -2.0291
 8440TIP3   OH246810   6.569   2.430  11.670  0.0737  0.5951  0.0169
 8440TIP3    H146811   6.635   2.399  11.608  0.2736  2.2505 -0.5961
 8440TIP3    H246812   6.535   2.510  11.632 -1.1354  0.6403  1.1443
 8441TIP3   OH246813   2.040   6.620  12.947 -0.1796 -0.2213 -0.4129
 8441TIP3    H146814   2.129   6.614  12.983 -0.2439  0.1443 -0.1870
 8441TIP3    H246815   2.048   6.680  12.873 -0.1676 -0.4857 -0.6268
 8442TIP3   OH246816   4.728   5.433  16.594  0.0825 -0.1370  0.3153
 8442TIP3    H146817   4.787   5.508  16.595 -0.7194  0.4902  1.2642
 8442TIP3    H246818   4.649   5.464  16.549  0.6139 -1.0958 -1.3262
 8443TIP3   OH246819   3.855   3.834  11.843  0.3049  0.4317 -0.0171
 8443TIP3    H146820   3.879   3.899  11.909  2.2749  1.4454 -1.6899
 8443TIP3    H246821   3.909   3.758  11.863 -0.6876 -0.0445  0.8537
 8444TIP3   OH246822   5.922   1.086  12.938  0.9749  0.0648 -0.0777
 8444TIP3    H146823   5.878   1.075  12.854  0.3248  2.9781 -0.1639
 8444TIP3    H246824   5.870   1.033  12.999 -0.1519  0.0944 -0.9971
 8445TIP3   OH246825   2.982   3.690   2.180  0.3302 -0.3592  0.2022
 8445TIP3    H146826   2.908   3.647   2.137  0.9934 -0.0320 -1.2939
 8445TIP3    H246827   3.023   3.620   2.232 -0.9283 -0.5737  0.9362
 8446TIP3   OH246828   5.793   2.551  11.602 -0.1869 -0.1468  0.7093
 8446TIP3    H146829   5.824   2.612  11.536 -0.6115  3.0492  3.3356
 8446TIP3    H246830   5.871   2.532  11.655 -0.6265  0.2619  1.5123
 8447TIP3   OH246831   5.388   4.945  13.031 -0.2039  0.9235 -0.1711
 8447TIP3    H146832   5.301   4.946  13.070  0.5416  1.7250  1.5003
 8447TIP3    H246833   5.416   4.854  13.036 -0.6438  0.7957 -0.0463
 8448TIP3   OH246834   0.599   5.426   3.685 -0.1747  0.1143 -0.1923
 8448TIP3    H146835   0.587   5.351   3.627  1.7432  0.5847 -1.2517
 8448TIP3    H246836   0.636   5.494   3.628 -2.3206  2.0294  0.6420
 8449TIP3   OH246837   1.940   4.429   4.034  0.1867  0.3748 -0.6246
 8449TIP3    H146838   1.964   4.520   4.055 -1.7297  0.3728  1.7036
 8449TIP3    H246839   1.865   4.437   3.976 -1.2273  0.2877  1.1614
 8450TIP3   OH246840   2.295   5.650  15.387 -0.4490  0.2761  0.2130
 8450TIP3    H146841   2.230   5.711  15.351 -1.4766  0.2197  1.9135
 8450TIP3    H246842   2.305   5.678  15.478  0.4772 -0.9379  0.4881
 8451TIP3   OH246843   5.546   3.362   4.028  0.3362  0.8988  0.0668
 8451TIP3    H146844   5.523   3.287   3.973  1.7722  0.8017 -0.4222
 8451TIP3    H246845   5.484   3.431   4.001 -0.9968 -0.0867  0.5271
 8452TIP3   OH246846   5.295   4.774  14.715  0.4080 -0.5170  0.0175
 8452TIP3    H146847   5.382   4.800  14.744  0.4673 -0.8950  0.1817
 8452TIP3    H246848   5.310   4.697  14.660  0.3305  0.4259 -1.3275
 8453TIP3   OH246849   4.572   1.602   0.714 -0.3956  0.3937  0.0863
 8453TIP3    H146850   4.631   1.641   0.778 -0.6707 -0.6059  0.9580
 8453TIP3    H246851   4.509   1.553   0.766  0.3101 -1.7374 -1.0015
 8454TIP3   OH246852   1.408   6.257   2.938 -0.3238  0.0944 -0.6904
 8454TIP3    H146853   1.480   6.197   2.956  0.4944  1.1973 -0.2201
 8454TIP3    H246854   1.330   6.212   2.970  0.1786 -1.0230 -1.0188
 8455TIP3   OH246855   1.828   3.756   5.087  0.1233 -0.3214  0.0428
 8455TIP3    H146856   1.881   3.743   5.166  1.0632  2.6190 -0.0549
 8455TIP3    H246857   1.761   3.820   5.113  0.9186  1.2774 -1.7007
 8456TIP3   OH246858   4.889   1.217   1.258  0.4566  0.2518  0.2721
 8456TIP3    H146859   4.938   1.199   1.178 -0.5370 -1.5429  0.0406
 8456TIP3    H246860   4.800   1.236   1.228  0.6092  1.8848  0.8014
 8457TIP3   OH246861   3.459   4.646   3.864  0.2556 -0.2500 -0.0440
 8457TIP3    H146862   3.496   4.714   3.807  0.8375 -0.3933  0.1556
 8457TIP3    H246863   3.393   4.603   3.811 -1.9245  2.1264  0.6396
 8458TIP3   OH246864   1.536   2.732  15.747 -0.1198 -0.4187 -0.0844
 8458TIP3    H146865   1.448   2.711  15.778  0.3735  0.1722  1.7235
 8458TIP3    H246866   1.564   2.653  15.700 -0.3929 -1.8105  2.0429
 8459TIP3   OH246867   5.297   2.975   1.774  0.2620  0.1112  0.3200
 8459TIP3    H146868   5.341   2.959   1.691  0.4824 -0.2023  0.4938
 8459TIP3    H246869   5.216   2.924   1.769 -0.4634  1.3052 -0.3120
 8460TIP3   OH246870   3.952   0.380   1.127 -0.0361 -0.2288 -0.0123
 8460TIP3    H146871   4.031   0.397   1.178  0.3317 -1.1727 -0.2498
 8460TIP3    H246872   3.984   0.334   1.049 -0.6868  0.4542 -0.6853
 8461TIP3   OH246873   1.505   4.974   4.557 -0.0869  0.3688  0.2714
 8461TIP3    H146874   1.574   5.016   4.506  1.2259 -0.0787  1.6332
 8461TIP3    H246875   1.548   4.898   4.598 -2.0374 -1.4512 -0.9463
 8462TIP3   OH246876   0.128   6.801   0.284  0.4493 -0.3322 -0.7011
 8462TIP3    H146877   0.108   6.878   0.337 -0.9438 -2.1584  1.6003
 8462TIP3    H246878   0.053   6.792   0.225 -0.1142 -0.7223  0.0563
 8463TIP3   OH246879   3.901   2.754  15.328  0.1518  0.0724  0.6240
 8463TIP3    H146880   3.967   2.686  15.339 -0.8212 -1.5154 -2.7899
 8463TIP3    H246881   3.853   2.755  15.411  1.6151 -1.8004  1.5217
 8464TIP3   OH246882   6.167   4.752  12.340 -0.2166  0.5218  0.1472
 8464TIP3    H146883   6.262   4.737  12.336 -0.1477  0.6436  1.3264
 8464TIP3    H246884   6.158   4.847  12.341 -0.3878  0.5187 -0.6681
 8465TIP3   OH246885   3.591   3.730  16.568  0.1992 -0.1959 -0.2255
 8465TIP3    H146886   3.639   3.647  16.559  1.2867  0.4135 -0.1647
 8465TIP3    H246887   3.596   3.770  16.482 -1.5900 -0.8463 -0.6580
 8466TIP3   OH246888   0.672   4.568  15.504  0.3715  0.0910  0.0461
 8466TIP3    H146889   0.686   4.631  15.433  0.7874 -1.4695 -1.3032
 8466TIP3    H246890   0.593   4.599  15.549  1.2343  2.2124  0.1547
 8467TIP3   OH246891   3.647   0.789   2.021  0.0511  0.8285  1.1567
 8467TIP3    H146892   3.586   0.762   2.090 -0.8746 -1.3460 -0.4528
 8467TIP3    H246893   3.718   0.725   2.025 -0.8980 -0.4254 -1.0307
 8468TIP3   OH246894   3.629   1.581   6.280 -0.1097  0.6404  0.1507
 8468TIP3    H146895   3.627   1.487   6.297 -0.9175  0.9642  2.0046
 8468TIP3    H246896   3.542   1.601   6.245 -0.2150  0.8177  0.5084
 8469TIP3   OH246897   6.257   5.591  13.346  0.2380 -0.1904 -0.4291
 8469TIP3    H146898   6.331   5.636  13.387 -1.3932  1.0661  1.2735
 8469TIP3    H246899   6.261   5.502  13.380  0.6832  0.0159  0.0778
 8470TIP3   OH246900   3.020   2.853  14.756 -0.0002 -0.0070 -0.3706
 8470TIP3    H146901   2.942   2.907  14.767  0.1494  0.6819 -2.3308
 8470TIP3    H246902   3.076   2.904  14.697  2.8261  0.4288  2.5711
 8471TIP3   OH246903   0.753   4.186   5.430 -0.1787  0.0287 -0.0612
 8471TIP3    H146904   0.764   4.245   5.356 -0.0267 -3.1223 -2.6985
 8471TIP3    H246905   0.842   4.168   5.460 -0.0796 -0.5953 -0.7183
 8472TIP3   OH246906   3.165   5.344  11.733 -0.2353 -0.1233 -0.0449
 8472TIP3    H146907   3.131   5.407  11.797 -0.3818  0.5143 -0.7493
 8472TIP3    H246908   3.148   5.259  11.773 -2.9899  0.1680 -0.5203
 8473TIP3   OH246909   0.836   6.442   5.748  0.2140 -0.5547 -0.1236
 8473TIP3    H146910   0.904   6.391   5.791  0.7960  1.0943  0.9365
 8473TIP3    H246911   0.780   6.376   5.706  1.6797 -1.9854  0.1183
 8474TIP3   OH246912   6.388   3.330   3.323 -0.3035 -0.0822  0.1774
 8474TIP3    H146913   6.393   3.266   3.252 -0.9640 -0.4852  0.4831
 8474TIP3    H246914   6.348   3.281   3.395  0.4115  0.3050  0.8439
 8475TIP3   OH246915   5.271   0.099   6.701  0.4189  0.5361 -0.1791
 8475TIP3    H146916   5.233   0.023   6.657  0.6214  0.6097 -0.4792
 8475TIP3    H246917   5.215   0.172   6.674 -0.9141  0.2265  1.5613
 8476TIP3   OH246918   3.331   6.184  15.078  0.1959 -0.0532 -0.1266
 8476TIP3    H146919   3.365   6.152  14.995  0.3518 -0.0363 -0.0685
 8476TIP3    H246920   3.341   6.279  15.073  0.9846 -0.1089  0.2539
 8477TIP3   OH246921   5.218   4.581   4.879  0.0898 -0.0358 -0.3828
 8477TIP3    H146922   5.304   4.622   4.894  0.5354 -1.0452 -0.1465
 8477TIP3    H246923   5.214   4.567   4.785  0.1088  0.1849 -0.4156
 8478TIP3   OH246924   0.708   0.646  11.104 -0.1803 -0.4181  0.2893
 8478TIP3    H146925   0.634   0.615  11.157 -1.7002 -0.0993 -1.5786
 8478TIP3    H246926   0.668   0.675  11.022  2.1858 -1.6133 -1.3468
 8479TIP3   OH246927   0.895   2.974   3.473  0.0268  0.1120 -0.4125
 8479TIP3    H146928   0.987   2.980   3.448  0.5429 -3.1600  0.4766
 8479TIP3    H246929   0.853   2.928   3.400 -0.4969 -0.2488  0.1079
 8480TIP3   OH246930   3.778   6.392   1.479  0.4758  0.1651 -0.2347
 8480TIP3    H146931   3.872   6.412   1.475  0.3384  0.7492 -0.5325
 8480TIP3    H246932   3.763   6.332   1.407  0.8785 -0.9896  0.6273
 8481TIP3   OH246933   2.812   0.147   2.555  0.0698 -0.1406  0.3250
 8481TIP3    H146934   2.884   0.136   2.617 -1.8880  0.4183  2.7687
 8481TIP3    H246935   2.777   0.233   2.575 -2.5078 -1.1996  0.5067
 8482TIP3   OH246936   0.324   6.093   5.892 -0.1230  0.2786 -0.0309
 8482TIP3    H146937   0.405   6.129   5.857  0.3226 -0.3718  0.3157
 8482TIP3    H246938   0.268   6.081   5.815  0.4824 -0.2234 -0.3962
 8483TIP3   OH246939   3.929   1.740   2.713 -0.2189 -0.1115  0.0740
 8483TIP3    H146940   3.907   1.726   2.806 -1.7295  1.5603 -0.0100
 8483TIP3    H246941   3.989   1.815   2.714 -0.9109  0.4577 -0.3530
 8484TIP3   OH246942   1.071   2.653   3.439 -0.1068  0.2088  0.8064
 8484TIP3    H146943   1.019   2.578   3.411  0.2214 -0.1309  1.1016
 8484TIP3    H246944   1.099   2.694   3.358  1.4041 -1.1591  0.6084
 8485TIP3   OH246945   6.726   5.517   2.295 -0.5040  0.2453  0.2859
 8485TIP3    H146946   6.643   5.549   2.262  0.1880  1.0389 -0.6989
 8485TIP3    H246947   6.716   5.519   2.390 -2.1583 -1.1478  0.1624
 8486TIP3   OH246948   0.903   2.562   2.980 -0.5425 -0.2238  0.2004
 8486TIP3    H146949   0.878   2.653   2.961 -0.8059  0.1526  2.1949
 8486TIP3    H246950   0.997   2.559   2.966 -0.5432  0.3551  0.0689
 8487TIP3   OH246951   6.393   1.747  16.584  0.1981 -0.5603  0.6923
 8487TIP3    H146952   6.454   1.802  16.633 -1.2264 -0.1805  2.0310
 8487TIP3    H246953   6.315   1.801  16.573  0.0626 -1.0745 -0.9739
 8488TIP3   OH246954   2.776   3.709  16.592  0.2452 -0.2237  0.3883
 8488TIP3    H146955   2.705   3.660  16.549  1.5463 -1.0616 -0.8536
 8488TIP3    H246956   2.840   3.642  16.614  1.2078  0.6905  0.3698
 8489TIP3   OH246957   2.009   2.395  13.063 -0.2831 -0.0288  0.6314
 8489TIP3    H146958   2.051   2.314  13.090  0.9232  0.0326 -1.0297
 8489TIP3    H246959   2.066   2.431  12.995 -0.9344  2.0811  1.1642
 8490TIP3   OH246960   6.305   6.292   1.492 -0.3306 -0.1222  0.8614
 8490TIP3    H146961   6.230   6.350   1.506  0.1230  0.1813  2.1662
 8490TIP3    H246962   6.380   6.344   1.520  0.2506 -0.7936  0.5558
 8491TIP3   OH246963   1.368   2.049   5.162  0.1845 -0.3080  0.0909
 8491TIP3    H146964   1.387   2.004   5.244 -0.2566  0.5603  0.6677
 8491TIP3    H246965   1.311   1.988   5.115 -0.2488 -0.4474  0.7901
 8492TIP3   OH246966   4.004   5.533   5.560  0.1393 -0.2562  0.2407
 8492TIP3    H146967   4.020   5.626   5.545  2.6228 -0.3970  1.7353
 8492TIP3    H246968   3.925   5.531   5.615 -0.4891  0.8920 -0.6003
 8493TIP3   OH246969   5.762   6.631  16.528 -0.3118 -0.2958 -0.3040
 8493TIP3    H146970   5.723   6.644  16.614  0.0074 -1.3920  0.0188
 8493TIP3    H246971   5.845   6.678  16.532  0.1935 -1.2283  0.3630
 8494TIP3   OH246972   3.317   6.722  13.505 -0.1480 -0.0991  0.0681
 8494TIP3    H146973   3.394   6.727  13.561  0.1820  0.0685 -0.3891
 8494TIP3    H246974   3.242   6.730  13.565  0.1849 -0.4880  0.5376
 8495TIP3   OH246975   3.432   0.771   2.994  0.2782 -1.0429 -0.3041
 8495TIP3    H146976   3.514   0.804   3.029  0.8547  0.0882 -2.6089
 8495TIP3    H246977   3.390   0.727   3.068  1.5728  0.9508  1.6878
 8496TIP3   OH246978   2.638   5.170   2.258 -0.5357  0.0624  0.3681
 8496TIP3    H146979   2.678   5.172   2.171 -0.8700  0.9802  0.2311
 8496TIP3    H246980   2.669   5.089   2.297  1.4922  0.7590  0.2612
 8497TIP3   OH246981   1.803   1.577   6.089  0.0347 -0.1358 -0.1464
 8497TIP3    H146982   1.760   1.509   6.038  1.7553 -1.1567 -0.2873
 8497TIP3    H246983   1.801   1.655   6.032 -0.5429 -0.4876 -0.6136
 8498TIP3   OH246984   5.302   6.616  12.922 -0.0610  0.1319 -0.2306
 8498TIP3    H146985   5.242   6.542  12.928 -1.4379  1.3471  1.5936
 8498TIP3    H246986   5.257   6.679  12.866 -0.2881  0.8472  0.7446
 8499TIP3   OH246987   0.560   6.242   1.996  0.0770  0.6565 -0.2156
 8499TIP3    H146988   0.557   6.299   2.073 -0.6615  0.2852  0.0406
 8499TIP3    H246989   0.606   6.164   2.026 -0.2387  0.4986 -0.1349
 8500TIP3   OH246990   2.212   2.627  15.463  0.6069  0.4778 -0.0444
 8500TIP3    H146991   2.201   2.623  15.558 -0.5530 -0.7466 -0.2199
 8500TIP3    H246992   2.146   2.690  15.434  0.8098  0.6825 -0.0609
 8501TIP3   OH246993   5.022   1.816  11.825 -0.1154 -0.2443  0.2751
 8501TIP3    H146994   4.932   1.793  11.802 -0.0875 -1.5362  1.3768
 8501TIP3    H246995   5.062   1.733  11.851  1.2477  0.4012  0.2713
 8502TIP3   OH246996   6.003   1.974   1.342 -0.1402 -0.1907  0.2536
 8502TIP3    H146997   5.952   1.958   1.263 -0.1149 -0.4603  0.2911
 8502TIP3    H246998   6.049   1.891   1.359  0.9313  0.2860 -0.2318
 8503TIP3   OH246999   6.504   0.384  12.394  0.0099  0.3093  0.3528
 8503TIP3    H147000   6.588   0.409  12.354  0.5437  1.3254  2.0608
 8503TIP3    H247001   6.453   0.465  12.393 -0.6218 -0.0868  0.1682
 8504TIP3   OH247002   3.843   4.375  11.702 -0.1297  0.2957 -0.1273
 8504TIP3    H147003   3.858   4.386  11.796  0.6604 -1.1218 -0.0799
 8504TIP3    H247004   3.805   4.458  11.674  2.0014  1.6977  0.9694
 8505TIP3   OH247005   6.146   5.982   0.743  0.0743  0.2028  0.1229
 8505TIP3    H147006   6.214   5.982   0.675  0.4075 -0.2871  0.4486
 8505TIP3    H247007   6.183   5.928   0.813 -0.5963  0.0464  0.3590
 8506TIP3   OH247008   3.365   5.533  11.639  0.9878  0.2098  0.5431
 8506TIP3    H147009   3.283   5.491  11.663  0.8081  0.4875  0.4111
 8506TIP3    H247010   3.369   5.528  11.544  0.7174  0.9542  0.4918
 8507TIP3   OH247011   4.693   2.658  13.294  0.0122  0.2650 -0.5306
 8507TIP3    H147012   4.765   2.615  13.248  1.9138  0.2519  2.3670
 8507TIP3    H247013   4.729   2.743  13.320 -1.2416  0.5345  0.3577
 8508TIP3   OH247014   3.668   2.384  10.974  0.2228 -0.3889  0.0046
 8508TIP3    H147015   3.651   2.469  11.015 -0.3049 -0.3842 -0.2169
 8508TIP3    H247016   3.634   2.394  10.885  1.2803 -0.4257 -0.4063
 8509TIP3   OH247017   3.492   3.339  12.573  0.4706 -0.0884 -0.4926
 8509TIP3    H147018   3.538   3.348  12.489  1.3107 -0.1151 -0.0488
 8509TIP3    H247019   3.433   3.414  12.576  1.9754  1.1154 -0.1782
 8510TIP3   OH247020   1.477   4.033   4.810  0.2968 -0.4174  0.0024
 8510TIP3    H147021   1.570   4.038   4.788  0.2923 -0.5060 -0.0385
 8510TIP3    H247022   1.450   3.946   4.781 -0.1978  0.2476 -1.5484
 8511TIP3   OH247023   2.434   4.454  15.974 -0.2972  0.0385 -0.3038
 8511TIP3    H147024   2.442   4.359  15.972  0.2498  0.1056 -1.6227
 8511TIP3    H247025   2.524   4.486  15.980 -0.4860  0.4817  0.2742
 8512TIP3   OH247026   6.451   0.752   5.603  0.1514  0.0639  0.0275
 8512TIP3    H147027   6.356   0.759   5.615  0.1013  0.4602 -0.6001
 8512TIP3    H247028   6.484   0.841   5.619  0.5856 -0.3907  1.7472
 8513TIP3   OH247029   3.369   2.752  13.365  0.2947 -0.4984  0.2511
 8513TIP3    H147030   3.353   2.772  13.458  1.5760 -1.2192  0.6310
 8513TIP3    H247031   3.464   2.753  13.356  0.1443  1.2261 -1.4321
 8514TIP3   OH247032   6.677   1.534  10.758  0.2717  0.9250  0.0646
 8514TIP3    H147033   6.611   1.536  10.827 -1.4898 -1.7669 -1.4322
 8514TIP3    H247034   6.634   1.575  10.683  0.1413 -1.1728 -1.0301
 8515TIP3   OH247035   3.799   2.405  15.279  0.8072 -0.5766  0.1438
 8515TIP3    H147036   3.875   2.463  15.271  1.2748 -1.2645 -0.3879
 8515TIP3    H247037   3.756   2.410  15.194  0.3037 -0.2585  0.4156
 8516TIP3   OH247038   0.839   5.067   0.175 -0.9623  0.2804  0.2399
 8516TIP3    H147039   0.824   4.976   0.200  1.3134 -0.8937 -2.3463
 8516TIP3    H247040   0.917   5.093   0.223 -0.3068  0.1071 -0.7115
 8517TIP3   OH247041   5.975   0.536   5.782 -0.1795 -0.2381  0.4169
 8517TIP3    H147042   5.944   0.500   5.865  1.0695  1.4305  1.6551
 8517TIP3    H247043   5.903   0.591   5.751 -0.4683 -0.4973  0.6241
 8518TIP3   OH247044   3.872   3.191   3.677  0.1855 -0.3944  0.4498
 8518TIP3    H147045   3.881   3.173   3.771 -1.1842  1.1137  0.8951
 8518TIP3    H247046   3.960   3.212   3.648  0.2998  1.0797  1.8366
 8519TIP3   OH247047   6.589   0.074   1.763 -0.0467  0.1209  0.4951
 8519TIP3    H147048   6.654   0.012   1.797 -0.6663  0.6368  2.6305
 8519TIP3    H247049   6.519   0.018   1.729  0.2476 -0.3739  0.6932
 8520TIP3   OH247050   6.061   2.516   5.062 -0.5367  0.1517  0.2878
 8520TIP3    H147051   6.047   2.580   4.992  0.3345  0.1381  0.0931
 8520TIP3    H247052   6.095   2.569   5.135  0.5160 -0.1267  0.0123
 8521TIP3   OH247053   0.276   0.685  17.252  0.3636  0.0584  0.6964
 8521TIP3    H147054   0.330   0.621  17.207 -0.3786 -0.3957  0.4301
 8521TIP3    H247055   0.226   0.728  17.182 -1.8311 -1.6263  1.1724
 8522TIP3   OH247056   6.717   6.696  14.328 -0.2190 -0.1902 -0.3457
 8522TIP3    H147057   6.636   6.731  14.365 -0.6189 -1.2384 -0.2140
 8522TIP3    H247058   6.728   6.742  14.245 -0.5196  0.5402  0.0154
 8523TIP3   OH247059   5.527   5.787   0.217 -0.0204  0.5494  0.1315
 8523TIP3    H147060   5.581   5.714   0.248  0.7879  0.2367 -1.8729
 8523TIP3    H247061   5.458   5.745   0.166  0.9133  1.1792 -1.7126
 8524TIP3   OH247062   0.940   5.076  16.582  0.3205 -0.3342  0.5031
 8524TIP3    H147063   0.949   5.171  16.584 -1.4799 -0.1755  1.8836
 8524TIP3    H247064   0.890   5.058  16.502  0.6693 -0.1370  0.2386
 8525TIP3   OH247065   1.882   6.184  12.575  0.0426 -0.0603 -0.0883
 8525TIP3    H147066   1.793   6.206  12.547  1.1140  0.6224 -3.1328
 8525TIP3    H247067   1.896   6.235  12.654 -2.2242 -0.0848  0.3528
 8526TIP3   OH247068   1.423   5.179  13.662 -0.3234 -0.7731  0.1137
 8526TIP3    H147069   1.420   5.195  13.757 -2.4197 -1.9188  0.2496
 8526TIP3    H247070   1.362   5.243  13.626  1.1546  0.2773 -0.5802
 8527TIP3   OH247071   5.372   6.186  16.241 -0.2199  0.6358 -0.0050
 8527TIP3    H147072   5.427   6.209  16.316 -0.8868 -0.3677  0.8114
 8527TIP3    H247073   5.380   6.261  16.182  1.5031  0.7947  0.3874
 8528TIP3   OH247074   2.795   6.172  12.709 -0.0451 -0.2619 -0.2880
 8528TIP3    H147075   2.887   6.182  12.731  0.1511  1.5559 -1.7736
 8528TIP3    H247076   2.784   6.078  12.693  1.4224 -0.5636  0.4086
 8529TIP3   OH247077   5.845   5.459  14.020  1.0534 -0.2424  0.1825
 8529TIP3    H147078   5.793   5.522  13.972 -1.2212 -2.7952 -0.8187
 8529TIP3    H247079   5.934   5.496  14.020  0.1293  2.1024 -1.7876
 8530TIP3   OH247080   1.549   2.159   4.817  0.2533  0.1127 -0.3133
 8530TIP3    H147081   1.515   2.179   4.904 -0.0131  0.9216 -0.5917
 8530TIP3    H247082   1.598   2.238   4.792 -1.4722  0.7597 -1.7701
 8531TIP3   OH247083   0.563   4.430   2.343 -0.3983  0.6612 -0.3168
 8531TIP3    H147084   0.513   4.490   2.398  1.3053  0.1384  1.8307
 8531TIP3    H247085   0.652   4.465   2.344 -0.0915 -0.0365 -1.7894
 8532TIP3   OH247086   5.835   3.319   2.761 -0.3375  0.2212 -0.0050
 8532TIP3    H147087   5.924   3.292   2.738 -1.0943 -0.9931 -1.6468
 8532TIP3    H247088   5.818   3.393   2.703 -0.3824  0.4764  0.3368
 8533TIP3   OH247089   0.380   4.900   2.748  0.3812 -0.4855 -0.6421
 8533TIP3    H147090   0.309   4.914   2.685  0.2312  2.9784  0.2048
 8533TIP3    H247091   0.343   4.838   2.811 -0.9398 -0.7662 -1.6690
 8534TIP3   OH247092   0.749   3.554   3.477  0.3266  0.1608  0.2054
 8534TIP3    H147093   0.700   3.593   3.550  0.8304 -0.1220  0.7075
 8534TIP3    H247094   0.682   3.522   3.417 -0.1001  0.2052  0.6527
 8535TIP3   OH247095   5.597   0.793   0.994  0.2376 -0.1441 -0.4146
 8535TIP3    H147096   5.652   0.834   1.061  1.9124 -2.5721 -0.2293
 8535TIP3    H247097   5.624   0.834   0.912  0.4529  0.5503  0.0009
 8536TIP3   OH247098   5.612   4.779   3.209  0.3875  0.3113  0.0106
 8536TIP3    H147099   5.557   4.712   3.249  1.5003 -0.4931  0.2084
 8536TIP3    H247100   5.685   4.790   3.269  1.1851  0.3345 -0.9573
 8537TIP3   OH247101   6.272   3.145   5.912 -0.0577  0.0917 -0.4005
 8537TIP3    H147102   6.177   3.143   5.902 -0.1951 -1.9553  1.0181
 8537TIP3    H247103   6.289   3.211   5.978 -0.6345 -0.6582  0.5118
 8538TIP3   OH247104   3.321   5.342  14.907  0.4046  0.9131  0.1106
 8538TIP3    H147105   3.325   5.296  14.823 -1.5386  1.3093 -0.2211
 8538TIP3    H247106   3.313   5.272  14.972  0.8575  0.6554 -0.1057
 8539TIP3   OH247107   3.879   2.711  15.044  0.1023  0.2380  0.5686
 8539TIP3    H147108   3.912   2.711  15.134  1.5698  0.8210  0.0320
 8539TIP3    H247109   3.956   2.697  14.989 -1.0844 -2.3486 -0.5125
 8540TIP3   OH247110   6.330   0.388   0.517  0.0753  0.5541 -0.2977
 8540TIP3    H147111   6.338   0.298   0.547 -0.8838 -0.2258 -2.2802
 8540TIP3    H247112   6.315   0.439   0.596  1.0286 -0.9675  0.8826
 8541TIP3   OH247113   0.016   0.793   4.994 -0.4726  0.2538  0.3392
 8541TIP3    H147114   0.062   0.862   5.042  0.7835 -0.5978  0.4043
 8541TIP3    H247115  -0.066   0.780   5.041 -0.8973  1.9626  0.0938
 8542TIP3   OH247116   5.263   3.646  15.067  0.3141 -0.6107  0.0599
 8542TIP3    H147117   5.234   3.556  15.053 -0.8822 -0.2481  0.1844
 8542TIP3    H247118   5.345   3.653  15.017  1.0631 -2.1216  1.0503
 8543TIP3   OH247119   0.742   3.610   5.280  0.0696 -0.0306  0.2636
 8543TIP3    H147120   0.745   3.666   5.358  0.3477 -0.1259  0.3230
 8543TIP3    H247121   0.834   3.596   5.258 -0.0168  0.4257 -0.3923
 8544TIP3   OH247122   1.031   0.563  11.977 -0.3230 -0.0573 -0.3963
 8544TIP3    H147123   0.981   0.520  12.047  0.5649  0.3317  0.4976
 8544TIP3    H247124   0.967   0.581  11.909 -1.3262  0.0607  0.5672
 8545TIP3   OH247125   0.845   0.498   2.472 -0.2257 -0.6268  0.7870
 8545TIP3    H147126   0.919   0.558   2.483 -0.7850  0.7317 -2.1614
 8545TIP3    H247127   0.883   0.411   2.476  1.5734  0.0595 -0.7729
 8546TIP3   OH247128   0.310   3.849  12.588 -0.2058  0.2757 -0.3287
 8546TIP3    H147129   0.305   3.855  12.683  0.2719 -1.8951 -0.1356
 8546TIP3    H247130   0.218   3.845  12.559 -0.3329 -0.1582  0.1304
 8547TIP3   OH247131   0.074   0.426  12.688  0.1023  0.1491 -0.0030
 8547TIP3    H147132   0.167   0.448  12.676  0.1839 -0.7091 -1.0769
 8547TIP3    H247133   0.074   0.331  12.701 -0.7336 -0.0604 -1.3821
 8548TIP3   OH247134   5.897   2.277   0.159  0.3550  0.5040 -0.0991
 8548TIP3    H147135   5.990   2.299   0.159  0.2423  1.1658 -2.7420
 8548TIP3    H247136   5.893   2.189   0.197  2.0135  0.5879  0.2951
 8549TIP3   OH247137   5.690   5.097  11.699  0.1729  0.6752  0.2377
 8549TIP3    H147138   5.654   5.044  11.628 -0.4804  2.2458 -0.6065
 8549TIP3    H247139   5.675   5.044  11.778 -0.5682 -0.3470 -0.5842
 8550TIP3   OH247140   3.747   6.358   3.214 -0.5265 -0.1545 -0.2407
 8550TIP3    H147141   3.820   6.319   3.165 -0.0655  1.0368 -0.5174
 8550TIP3    H247142   3.784   6.376   3.301 -0.8905 -0.8048  0.0533
 8551TIP3   OH247143   4.505   0.849   1.880 -0.4208  0.0004  0.1993
 8551TIP3    H147144   4.454   0.914   1.928  0.3085 -0.7085  1.9454
 8551TIP3    H247145   4.443   0.777   1.863  0.0107 -0.9261  2.4429
 8552TIP3   OH247146   3.426   3.089   2.888 -0.3941 -0.4247 -0.1863
 8552TIP3    H147147   3.331   3.092   2.879 -0.5582  0.4801  1.6223
 8552TIP3    H247148   3.445   2.998   2.911 -1.0596 -0.1501  1.5640
 8553TIP3   OH247149   4.362   3.078  14.885  0.3827 -0.5242 -0.2489
 8553TIP3    H147150   4.315   3.115  14.810 -0.5767 -0.5500  0.3253
 8553TIP3    H247151   4.399   3.154  14.930  2.5070 -0.6466 -1.7540
 8554TIP3   OH247152   5.636   4.615   0.063 -0.2762 -0.8117  0.0701
 8554TIP3    H147153   5.662   4.683   0.002 -0.5396 -0.8983 -0.1371
 8554TIP3    H247154   5.623   4.537   0.009  0.7140 -1.2129  0.3928
 8555TIP3   OH247155   3.363   1.038   2.436  0.1397  0.6174  0.5760
 8555TIP3    H147156   3.399   0.956   2.472  1.2645  1.1439  0.6647
 8555TIP3    H247157   3.419   1.107   2.472 -0.3942  1.3787 -0.0295
 8556TIP3   OH247158   4.758   1.846  16.119  0.4477 -0.3245 -0.3582
 8556TIP3    H147159   4.810   1.771  16.144  1.5396 -0.1429 -1.9988
 8556TIP3    H247160   4.712   1.818  16.040 -0.1089  0.3003 -0.2597
 8557TIP3   OH247161   1.184   3.842   0.445  0.2544 -0.2915  0.2485
 8557TIP3    H147162   1.242   3.918   0.438  1.2361 -1.0178  0.4229
 8557TIP3    H247163   1.135   3.857   0.525  0.2271  0.3080  0.1248
 8558TIP3   OH247164   5.689   3.475  15.934  0.8557 -0.4170 -0.1438
 8558TIP3    H147165   5.782   3.458  15.946  0.9213 -0.0579 -0.1347
 8558TIP3    H247166   5.647   3.429  16.007  0.8436 -2.3651 -1.3439
 8559TIP3   OH247167   3.416   5.438   0.693  0.1716  0.4574 -0.4525
 8559TIP3    H147168   3.383   5.442   0.782 -0.3211  1.5605 -0.6812
 8559TIP3    H247169   3.397   5.348   0.665  0.2004  0.1532  0.4959
 8560TIP3   OH247170   4.308   2.878  13.880  0.1511 -0.2936  0.5302
 8560TIP3    H147171   4.351   2.793  13.872 -2.1038 -1.3802 -0.7404
 8560TIP3    H247172   4.228   2.859  13.930 -1.4001  0.6703 -1.5257
 8561TIP3   OH247173   5.095   5.187  15.671  0.1481 -0.3365  0.3823
 8561TIP3    H147174   5.051   5.232  15.599  0.1247  2.5354  2.1331
 8561TIP3    H247175   5.027   5.171  15.736  0.4074 -1.8304  0.3130
 8562TIP3   OH247176   4.911   3.660   2.522  0.4007 -0.0465 -0.3954
 8562TIP3    H147177   4.880   3.735   2.470 -0.5277  0.6323  1.1143
 8562TIP3    H247178   4.832   3.608   2.537  0.7295 -0.4088  0.0692
 8563TIP3   OH247179   3.102   0.309   3.956  0.6725  0.0499  0.4680
 8563TIP3    H147180   3.072   0.265   4.035 -1.0576  0.8321  0.2690
 8563TIP3    H247181   3.141   0.390   3.987  3.2979 -1.2796  0.7843
 8564TIP3   OH247182   6.179   5.379   1.053  0.4354 -0.9816 -0.6484
 8564TIP3    H147183   6.258   5.367   0.999 -0.3639 -0.3070 -1.9942
 8564TIP3    H247184   6.170   5.297   1.101  2.4832 -0.7240  0.2335
 8565TIP3   OH247185   3.119   4.791   1.239 -1.1375  0.5380  0.2508
 8565TIP3    H147186   3.047   4.830   1.289 -2.4119 -1.6598  0.2224
 8565TIP3    H247187   3.158   4.728   1.299  0.5535  1.4494  0.1358
 8566TIP3   OH247188   6.040   2.504  11.714 -0.4604  0.1042  0.1188
 8566TIP3    H147189   6.084   2.461  11.641  2.7624 -1.2394  2.7128
 8566TIP3    H247190   6.087   2.587  11.724 -3.6558  2.2634 -1.9269
 8567TIP3   OH247191   4.620   5.645   5.536  0.4165  0.1452  0.0148
 8567TIP3    H147192   4.573   5.581   5.483 -1.6250 -0.7202  2.7450
 8567TIP3    H247193   4.622   5.724   5.483 -2.2023 -0.4733 -1.0598
 8568TIP3   OH247194   3.489   4.948  13.436 -0.2982 -0.3928  0.0152
 8568TIP3    H147195   3.490   5.020  13.373  2.1973 -1.0395 -0.7594
 8568TIP3    H247196   3.500   4.990  13.521 -0.5495  0.2589 -0.2757
 8569TIP3   OH247197   1.223   1.394  15.829  0.1256 -0.3710 -0.0703
 8569TIP3    H147198   1.139   1.348  15.830  0.8680 -1.7425  0.5393
 8569TIP3    H247199   1.200   1.487  15.827 -1.4097 -0.6995  1.8235
 8570TIP3   OH247200   1.599   4.455   4.849  0.5229  0.2169  0.3628
 8570TIP3    H147201   1.520   4.410   4.818 -0.1169 -0.7800  3.1802
 8570TIP3    H247202   1.567   4.539   4.883  1.4527  2.0614 -3.1650
 8571TIP3   OH247203   0.336   2.738   0.139  0.2908  0.3993  0.2204
 8571TIP3    H147204   0.247   2.721   0.106 -0.6447  0.7838  2.4173
 8571TIP3    H247205   0.393   2.685   0.083 -1.5158 -1.4137  0.0340
 8572TIP3   OH247206   3.293   4.418   0.099 -0.3086  0.7626 -0.1675
 8572TIP3    H147207   3.255   4.388   0.182 -1.0759 -0.2551 -0.8876
 8572TIP3    H247208   3.339   4.499   0.123  0.2543 -0.0029  1.4300
 8573TIP3   OH247209   6.340   2.049  13.719 -0.1727 -0.3293  0.0938
 8573TIP3    H147210   6.399   1.991  13.767  0.7171  1.5049  1.3020
 8573TIP3    H247211   6.367   2.137  13.745 -1.1828  0.6477 -2.0426
 8574TIP3   OH247212   4.769   0.641   4.526 -0.1045  0.4158 -0.0480
 8574TIP3    H147213   4.699   0.701   4.553 -1.1765 -0.4843 -0.7854
 8574TIP3    H247214   4.846   0.671   4.575 -0.9530  1.5328  0.6383
 8575TIP3   OH247215   1.141   0.738   0.080  0.3791  0.4309  0.2524
 8575TIP3    H147216   1.235   0.721   0.075  0.0059 -1.3246 -1.1328
 8575TIP3    H247217   1.100   0.656   0.053 -1.5537  1.6740 -0.6975
 8576TIP3   OH247218   4.348   4.365  16.196  0.4294 -0.6045 -0.1168
 8576TIP3    H147219   4.306   4.312  16.264  0.1697 -0.4556 -0.1632
 8576TIP3    H247220   4.419   4.409  16.241 -2.1645  2.6327  0.9931
 8577TIP3   OH247221   4.649   1.514  12.165  0.3294  0.0682  0.4517
 8577TIP3    H147222   4.578   1.455  12.193  1.5449 -2.7696 -2.0657
 8577TIP3    H247223   4.608   1.569  12.098  0.2231 -0.9107 -0.3079
 8578TIP3   OH247224   2.237   6.047  14.294  0.7942  0.6152  0.5259
 8578TIP3    H147225   2.239   6.007  14.207  2.0233  0.1683  0.7425
 8578TIP3    H247226   2.170   5.998  14.342  2.4268 -1.3787  0.8526
 8579TIP3   OH247227   0.671   0.438  15.863  0.3869  0.1990  0.0986
 8579TIP3    H147228   0.685   0.419  15.956  0.3146 -0.2477  0.0169
 8579TIP3    H247229   0.576   0.451  15.856  0.3913  0.2227  0.0839
 8580TIP3   OH247230   2.213   2.489   1.826 -0.4454  0.2121 -0.2519
 8580TIP3    H147231   2.191   2.396   1.831  1.2376 -0.2572 -1.0354
 8580TIP3    H247232   2.192   2.513   1.736 -0.3041  0.4219 -0.2283
 8581TIP3   OH247233   2.508   1.411  16.920 -0.2478  0.0745 -0.1460
 8581TIP3    H147234   2.413   1.422  16.917 -0.2766  0.9444  2.5383
 8581TIP3    H247235   2.523   1.352  16.994  1.2053 -1.7599 -1.8489
 8582TIP3   OH247236   4.817   2.568  14.201 -0.0563  0.4732  0.3615
 8582TIP3    H147237   4.823   2.663  14.205  1.0126  0.3832  1.0053
 8582TIP3    H247238   4.730   2.548  14.236 -0.0477  1.1800  0.7954
 8583TIP3   OH247239   2.977   5.083   3.366 -0.1213  0.1722 -0.2912
 8583TIP3    H147240   2.926   5.157   3.400 -0.9137 -0.7965  0.6620
 8583TIP3    H247241   2.911   5.021   3.335  0.4756 -0.9978  0.7331
 8584TIP3   OH247242   1.599   6.720  15.800  0.1804  0.0469 -0.6875
 8584TIP3    H147243   1.552   6.743  15.880  0.0909 -0.7250 -0.5158
 8584TIP3    H247244   1.678   6.773  15.802  1.5764 -2.0547  1.3474
 8585TIP3   OH247245   5.052   4.076   0.313 -0.0926  0.1279  0.1142
 8585TIP3    H147246   5.082   4.037   0.231 -1.9336  0.6867 -0.8351
 8585TIP3    H247247   5.133   4.103   0.356  0.9563 -1.0434 -1.0654
 8586TIP3   OH247248   0.406   5.920  14.719  0.1557 -0.0480 -0.2411
 8586TIP3    H147249   0.455   6.001  14.707  0.0388  0.1961  0.8815
 8586TIP3    H247250   0.391   5.888  14.630  1.3888  0.4418 -0.6386
 8587TIP3   OH247251   5.772   2.551  16.092  0.5088 -0.3171  0.6391
 8587TIP3    H147252   5.749   2.504  16.012  0.2395 -2.0315  1.6783
 8587TIP3    H247253   5.843   2.610  16.067  0.7938 -1.2334 -0.7354
 8588TIP3   OH247254   5.633   5.093  13.070 -0.1223 -0.7883  0.3947
 8588TIP3    H147255   5.547   5.053  13.081 -0.1072 -0.4004  2.1632
 8588TIP3    H247256   5.629   5.172  13.124  0.0913  1.2504 -2.4880
 8589TIP3   OH247257   2.914   0.649  13.160 -0.2141  0.5371 -0.4258
 8589TIP3    H147258   2.973   0.612  13.226 -0.0624  2.6546  0.7049
 8589TIP3    H247259   2.843   0.586  13.152  0.3374 -0.2804  0.9794
 8590TIP3   OH247260   6.596   2.639  16.522  0.7858 -0.4535  0.2429
 8590TIP3    H147261   6.511   2.597  16.506  1.7757 -3.1157  1.6787
 8590TIP3    H247262   6.659   2.583  16.478  1.9025  1.0906 -0.1732
 8591TIP3   OH247263   6.298   3.448  11.147  0.3651  0.1360  0.5273
 8591TIP3    H147264   6.347   3.369  11.170  0.2338 -0.0354  0.2166
 8591TIP3    H247265   6.359   3.520  11.166  1.0361 -0.1173 -0.6259
 8592TIP3   OH247266   1.768   5.595  16.835  0.3515 -0.1702 -0.3933
 8592TIP3    H147267   1.858   5.617  16.859  0.0894  2.4312 -1.6442
 8592TIP3    H247268   1.773   5.508  16.795  2.3825  0.2260 -1.0078
 8593TIP3   OH247269   0.596   1.467  10.708 -0.2246 -0.6277  0.2331
 8593TIP3    H147270   0.620   1.397  10.648  0.6806 -0.3231  0.2329
 8593TIP3    H247271   0.502   1.454  10.724  0.1231 -2.3545  0.9373
 8594TIP3   OH247272   2.295   0.462   1.786  0.0651  0.0012 -0.5355
 8594TIP3    H147273   2.330   0.542   1.824 -0.0219  0.1354 -0.7408
 8594TIP3    H247274   2.291   0.479   1.692  0.7670 -0.5216 -0.6605
 8595TIP3   OH247275   4.613   6.113   6.597  0.0970 -0.3442  0.6151
 8595TIP3    H147276   4.645   6.171   6.666  0.2604  1.3920 -0.8727
 8595TIP3    H247277   4.547   6.059   6.639  0.4080  0.4880  2.1944
 8596TIP3   OH247278   4.563   0.797   4.561 -0.7018 -0.1232 -0.3991
 8596TIP3    H147279   4.549   0.892   4.563  2.1789  0.3640 -1.1418
 8596TIP3    H247280   4.529   0.766   4.645  3.1086  2.3494  2.2034
 8597TIP3   OH247281   3.035   0.437  13.573 -0.4752 -0.4165  0.3627
 8597TIP3    H147282   3.064   0.415  13.484  1.7275 -0.4435  1.0607
 8597TIP3    H247283   3.000   0.355  13.608  0.7428 -0.9797  0.2915
 8598TIP3   OH247284   2.037   1.557   1.434 -0.1585 -0.4705 -0.4003
 8598TIP3    H147285   2.118   1.533   1.389 -0.9513  1.3114 -2.9240
 8598TIP3    H247286   1.968   1.510   1.387 -0.8038 -0.3267  0.3780
 8599TIP3   OH247287   3.549   4.294   6.264 -0.8396 -0.6726  0.2659
 8599TIP3    H147288   3.524   4.287   6.356 -0.2165 -0.5377  0.4496
 8599TIP3    H247289   3.593   4.379   6.257 -2.5375  0.1541 -0.5558
 8600TIP3   OH247290   6.069   6.692   2.597  0.1652 -0.3260  0.0396
 8600TIP3    H147291   6.068   6.784   2.572  1.1589  0.6670  3.3936
 8600TIP3    H247292   6.147   6.657   2.554  0.1705  0.5743 -0.6999
 8601TIP3   OH247293   0.086   4.368  11.740 -0.0700  0.1873 -0.1580
 8601TIP3    H147294   0.074   4.311  11.817 -0.6620 -0.0192 -0.3998
 8601TIP3    H247295   0.093   4.308  11.666 -1.6857  0.4330 -0.5442
 8602TIP3   OH247296   4.695   4.778   3.071  0.1819 -0.1808  0.9722
 8602TIP3    H147297   4.738   4.840   3.012 -2.2013  0.6306  0.0064
 8602TIP3    H247298   4.743   4.785   3.153  0.9781  1.7267  0.3631
 8603TIP3   OH247299   0.743   0.986   3.657 -0.2320  0.4738  0.0476
 8603TIP3    H147300   0.671   1.046   3.640 -0.8068  0.2623  1.6490
 8603TIP3    H247301   0.820   1.042   3.668  0.0162  0.6563 -2.3537
 8604TIP3   OH247302   3.586   1.480  16.313  0.0846 -0.1857  0.4301
 8604TIP3    H147303   3.494   1.471  16.339 -0.1468  0.8275 -0.0318
 8604TIP3    H247304   3.615   1.561  16.354  0.2478  0.4582 -0.9384
 8605TIP3   OH247305   1.236   1.730  12.802  0.0204  0.0835 -0.0715
 8605TIP3    H147306   1.266   1.663  12.862 -0.3427 -0.1949 -0.1973
 8605TIP3    H247307   1.312   1.787  12.789  0.0695  0.1959  0.7161
 8606TIP3   OH247308   2.183   2.035  11.750 -0.2525  0.0593 -0.3817
 8606TIP3    H147309   2.267   2.031  11.795 -0.9088 -0.1272  0.8298
 8606TIP3    H247310   2.177   2.125  11.717 -0.6148  0.7534  1.5498
 8607TIP3   OH247311   3.193   5.954   5.746 -0.1944  1.0237  0.5297
 8607TIP3    H147312   3.190   6.029   5.687 -0.3328 -1.2650 -2.5060
 8607TIP3    H247313   3.282   5.921   5.739 -0.8553 -0.6620 -0.2546
 8608TIP3   OH247314   1.312   2.363  15.408 -0.5722  0.5262  0.1585
 8608TIP3    H147315   1.226   2.321  15.400 -0.3304 -0.1248  0.8829
 8608TIP3    H247316   1.332   2.358  15.501  0.0521  1.0801  0.0537
 8609TIP3   OH247317   6.369   5.174  15.216  0.7470  0.1594 -0.1156
 8609TIP3    H147318   6.460   5.160  15.241  0.6876 -0.3004 -0.1514
 8609TIP3    H247319   6.353   5.110  15.146  0.8452  1.2690 -1.1783
 8610TIP3   OH247320   0.056   5.920   4.368 -0.3488  0.3509  0.1949
 8610TIP3    H147321   0.004   5.844   4.346 -0.3256  0.5546 -0.5757
 8610TIP3    H247322   0.141   5.904   4.325 -0.4063  0.8906 -0.1248
 8611TIP3   OH247323   1.244   1.219   2.441 -0.8543  0.3140 -0.1836
 8611TIP3    H147324   1.272   1.308   2.417  0.0885  0.9331  3.0058
 8611TIP3    H247325   1.218   1.226   2.533 -0.3434 -2.8288  0.2425
 8612TIP3   OH247326   0.576   1.910   4.653 -0.5650 -0.0062 -0.3366
 8612TIP3    H147327   0.528   1.991   4.638 -0.7832 -0.4209 -1.9773
 8612TIP3    H247328   0.572   1.864   4.569  0.7025 -1.0991  0.1833
 8613TIP3   OH247329   1.272   5.107   2.571 -0.2428 -0.1326 -0.0671
 8613TIP3    H147330   1.278   5.157   2.489 -0.0715  1.3814  0.8660
 8613TIP3    H247331   1.231   5.024   2.544  0.6056 -0.0092 -1.8364
 8614TIP3   OH247332   0.109   1.513  12.625  0.4981 -0.3593  0.1433
 8614TIP3    H147333   0.106   1.467  12.709  0.0815 -0.5721  0.0184
 8614TIP3    H247334   0.021   1.549  12.615  1.3547  2.0366  1.0899
 8615TIP3   OH247335   4.901   6.231   3.715 -0.4480 -0.1765  0.0285
 8615TIP3    H147336   4.939   6.165   3.657 -0.7354  2.7007 -3.6436
 8615TIP3    H247337   4.819   6.193   3.746  0.3398 -2.2857 -0.4509
 8616TIP3   OH247338   3.478   3.703  16.818 -0.1155  0.8911 -0.1452
 8616TIP3    H147339   3.428   3.784  16.822 -0.7195  0.5274 -0.2999
 8616TIP3    H247340   3.502   3.693  16.726 -0.1438  0.8363 -0.1454
 8617TIP3   OH247341   6.450   5.696   5.945  0.3775  0.5234 -0.2614
 8617TIP3    H147342   6.436   5.672   6.036 -0.6261  1.0449 -0.2718
 8617TIP3    H247343   6.373   5.749   5.922  0.9467  0.9489 -1.2075
 8618TIP3   OH247344   1.447   6.278  15.000 -0.3583 -0.0276 -0.3729
 8618TIP3    H147345   1.426   6.185  15.010 -0.7484  0.1702  0.7135
 8618TIP3    H247346   1.461   6.309  15.089 -1.0695  1.1601 -0.6598
 8619TIP3   OH247347   2.455   4.617   2.572 -0.1478 -0.2046 -0.3619
 8619TIP3    H147348   2.410   4.680   2.516  0.3357 -0.5840 -1.1971
 8619TIP3    H247349   2.513   4.670   2.627 -0.3733  0.1447 -0.4580
 8620TIP3   OH247350   1.112   2.634   1.285 -0.2170 -0.2281  0.1919
 8620TIP3    H147351   1.044   2.649   1.220  1.7146 -1.0222 -2.0932
 8620TIP3    H247352   1.095   2.699   1.353 -2.5667  0.3101 -0.8590
 8621TIP3   OH247353   3.730   4.318   0.914  0.4754  0.1947 -0.0241
 8621TIP3    H147354   3.819   4.317   0.949 -0.8100 -1.5731  3.4184
 8621TIP3    H247355   3.721   4.236   0.866  0.8773  0.6290 -0.8405
 8622TIP3   OH247356   0.143   3.661  11.492  0.2906  0.1789  0.0545
 8622TIP3    H147357   0.187   3.642  11.409 -0.2063 -1.0413  0.0580
 8622TIP3    H247358   0.089   3.738  11.474  1.0466  0.5999 -0.4368
 8623TIP3   OH247359   2.269   2.020   1.885 -0.2863  0.2550 -0.0848
 8623TIP3    H147360   2.319   1.987   1.811 -1.8354 -1.8265 -0.2405
 8623TIP3    H247361   2.254   1.944   1.940 -0.6100  1.4591  1.5362
 8624TIP3   OH247362   4.484   1.096  14.691 -0.1026 -0.7671  0.0278
 8624TIP3    H147363   4.484   1.151  14.770  0.4406  0.9059 -1.1141
 8624TIP3    H247364   4.483   1.006  14.725 -2.8073 -0.1060  1.9563
 8625TIP3   OH247365   3.468   2.550  11.234  0.3225  0.0021  0.3441
 8625TIP3    H147366   3.409   2.623  11.253 -0.9647 -0.7218 -0.6868
 8625TIP3    H247367   3.540   2.589  11.185  0.0067  0.6994  0.4234
 8626TIP3   OH247368   6.069   3.393   2.381 -0.2923 -0.1760 -0.3402
 8626TIP3    H147369   6.130   3.355   2.318  0.9645  1.5651 -0.1730
 8626TIP3    H247370   5.988   3.405   2.331  0.0029 -0.9140 -1.0082
 8627TIP3   OH247371   2.806   1.790   4.171  0.4897 -0.3059 -0.1524
 8627TIP3    H147372   2.876   1.725   4.178  0.8730  0.1239  0.0959
 8627TIP3    H247373   2.762   1.787   4.256  0.9822  0.2779  0.1328
 8628TIP3   OH247374   5.149   5.833  15.951 -0.9038  0.1298 -0.2730
 8628TIP3    H147375   5.188   5.748  15.973 -2.0525 -0.9203 -2.0964
 8628TIP3    H247376   5.200   5.864  15.876 -1.6864  0.1313 -0.8144
 8629TIP3   OH247377   5.402   1.817  11.285  0.0785  0.4250  0.0141
 8629TIP3    H147378   5.423   1.725  11.299 -0.3598 -0.0160 -2.0976
 8629TIP3    H247379   5.361   1.845  11.366 -3.1583 -2.2424 -0.6115
 8630TIP3   OH247380   6.459   1.770  11.946 -0.2405  0.5615 -0.6930
 8630TIP3    H147381   6.456   1.837  12.014 -0.0455  0.7981 -0.9145
 8630TIP3    H247382   6.447   1.819  11.864 -0.0460  0.3355 -0.8586
 8631TIP3   OH247383   5.263   3.113  13.949  1.3575 -0.6607 -0.5970
 8631TIP3    H147384   5.257   3.055  14.025  1.1326  0.7992  0.5235
 8631TIP3    H247385   5.189   3.087  13.894 -0.6869  0.6796  1.4127
 8632TIP3   OH247386   4.015   0.200  13.821 -0.4409 -0.7165 -0.8259
 8632TIP3    H147387   4.048   0.110  13.817  0.9438 -0.2759  0.2589
 8632TIP3    H247388   4.082   0.252  13.777 -0.1127  0.0728  0.5697
 8633TIP3   OH247389   5.122   4.022  12.987 -0.3225 -0.0198  0.0205
 8633TIP3    H147390   5.063   4.020  12.911  1.1002 -1.7418 -1.0582
 8633TIP3    H247391   5.083   3.960  13.049 -0.6867  0.2864  0.1007
 8634TIP3   OH247392   3.221   6.223   1.834 -0.0564  0.3901 -0.0475
 8634TIP3    H147393   3.137   6.268   1.824 -0.0411  0.7695  1.4479
 8634TIP3    H247394   3.216   6.181   1.920  0.1855 -1.9476 -1.1279
 8635TIP3   OH247395   2.919   1.880   1.989  0.2700 -0.3817  0.2003
 8635TIP3    H147396   2.989   1.946   1.989  0.6156 -0.7410 -0.5580
 8635TIP3    H247397   2.960   1.802   1.951 -0.5518 -0.5873 -0.2659
 8636TIP3   OH247398   4.304   0.398  12.474  0.3660  0.2848  0.0892
 8636TIP3    H147399   4.292   0.309  12.443 -0.2525 -0.0604  1.2797
 8636TIP3    H247400   4.230   0.447  12.437  1.4570  0.6166 -1.6848
 8637TIP3   OH247401   5.486   2.575  13.403  0.1615 -0.3855 -0.1107
 8637TIP3    H147402   5.465   2.643  13.339 -1.1008 -0.9170 -0.2621
 8637TIP3    H247403   5.581   2.567  13.398  0.2594  0.8773 -0.5844
 8638TIP3   OH247404   0.080   0.482  16.918 -0.4840  1.1387 -0.4829
 8638TIP3    H147405   0.031   0.554  16.878 -2.9029 -0.1170  0.1327
 8638TIP3    H247406   0.058   0.406  16.865 -0.7104  0.1977  0.9289
 8639TIP3   OH247407   6.782   0.421  13.163  0.5492  0.1238 -0.4290
 8639TIP3    H147408   6.826   0.443  13.081  1.6193 -0.3143  0.0202
 8639TIP3    H247409   6.813   0.333  13.184 -0.5915 -0.2125 -0.1271
 8640TIP3   OH247410   1.783   1.140   5.536 -0.2332  0.6296 -0.2091
 8640TIP3    H147411   1.742   1.201   5.474  1.6375  1.4920 -0.6275
 8640TIP3    H247412   1.788   1.190   5.618  1.0594  0.9637 -0.4822
 8641TIP3   OH247413   3.072   1.114   0.476 -0.2861 -0.1131 -0.0206
 8641TIP3    H147414   3.089   1.118   0.382 -0.7948 -1.6497 -0.2020
 8641TIP3    H247415   3.102   1.026   0.501 -0.2011  0.2737  1.2387
 8642TIP3   OH247416   0.198   3.086   3.173  0.6293 -0.3651 -0.1300
 8642TIP3    H147417   0.255   3.111   3.246 -0.6011 -0.2179  0.7789
 8642TIP3    H247418   0.194   3.164   3.118  1.5270 -0.4621 -0.3389
 8643TIP3   OH247419   6.396   1.818  15.861 -0.1389  0.0022  0.5172
 8643TIP3    H147420   6.340   1.778  15.927  0.5260  2.0523  2.3974
 8643TIP3    H247421   6.479   1.771  15.868 -0.2801 -0.2192  0.7114
 8644TIP3   OH247422   1.002   1.955   5.163 -0.0963 -0.3943 -0.0713
 8644TIP3    H147423   1.059   2.004   5.222 -0.2249  0.0144 -0.2861
 8644TIP3    H247424   0.915   1.962   5.203 -0.3126  0.4919 -0.6866
 8645TIP3   OH247425   5.452   6.412  12.381 -1.0004  0.3727  0.4761
 8645TIP3    H147426   5.496   6.332  12.409  1.0359  1.8112  1.5520
 8645TIP3    H247427   5.465   6.414  12.286  0.3421  0.2269  0.6451
 8646TIP3   OH247428   2.311   2.497  12.330  0.1910 -0.3407  0.4674
 8646TIP3    H147429   2.309   2.592  12.334  2.6503 -0.3079  3.1677
 8646TIP3    H247430   2.227   2.469  12.366 -0.5335  0.7929 -0.3372
 8647TIP3   OH247431   4.061   1.187   0.848  0.2269  0.1454  0.2428
 8647TIP3    H147432   4.002   1.147   0.785 -0.4760  1.0766  0.2897
 8647TIP3    H247433   4.020   1.171   0.933  1.2240 -1.1965  0.4794
 8648TIP3   OH247434   4.637   6.438  14.195 -0.3999 -0.0115 -0.3936
 8648TIP3    H147435   4.627   6.508  14.131  1.1437  1.3232  0.7693
 8648TIP3    H247436   4.708   6.468  14.252  0.3156 -2.5478  0.1095
 8649TIP3   OH247437   5.262   5.262   3.503 -0.2492  0.6259 -0.2203
 8649TIP3    H147438   5.188   5.203   3.519  0.1990  0.0622 -0.2052
 8649TIP3    H247439   5.286   5.294   3.590  0.8156 -0.7722  0.0174
 8650TIP3   OH247440   0.261   5.534   4.164  0.5225 -0.2689  0.6256
 8650TIP3    H147441   0.357   5.531   4.165  0.5204 -1.9888 -0.9999
 8650TIP3    H247442   0.235   5.455   4.115 -1.7127  0.3515  0.7502
 8651TIP3   OH247443   1.279   1.501   1.002  0.1977  0.0642 -0.8537
 8651TIP3    H147444   1.209   1.436   1.006 -0.0297  0.4301  1.3645
 8651TIP3    H247445   1.233   1.584   0.989  0.4803 -0.1620 -3.5477
 8652TIP3   OH247446   6.757   5.377  13.397 -0.3003  0.1886 -0.0505
 8652TIP3    H147447   6.845   5.349  13.424 -1.2792 -1.2181  1.8309
 8652TIP3    H247448   6.699   5.337  13.462 -2.5891 -1.1993 -2.8598
 8653TIP3   OH247449   2.682   2.867   4.827 -0.3321 -0.0778  0.1097
 8653TIP3    H147450   2.678   2.933   4.758 -1.4987 -0.7979 -0.5230
 8653TIP3    H247451   2.747   2.804   4.796  0.1655  0.3285  0.3217
 8654TIP3   OH247452   6.590   0.992   1.892  0.4586 -1.0331  0.3093
 8654TIP3    H147453   6.573   0.982   1.985  0.0776  1.0364  0.4798
 8654TIP3    H247454   6.529   0.932   1.849 -2.2883  1.0155  1.2234
 8655TIP3   OH247455   6.045   6.465  14.048 -0.0731 -0.0716  0.1409
 8655TIP3    H147456   6.045   6.424  13.962 -2.9146  0.3447 -0.0779
 8655TIP3    H247457   5.957   6.500  14.059  0.2798  0.0410  3.1488
 8656TIP3   OH247458   1.392   1.727  11.688 -0.1306 -0.0207 -0.0242
 8656TIP3    H147459   1.389   1.800  11.625 -1.1879 -0.2948 -0.3034
 8656TIP3    H247460   1.475   1.683  11.670 -0.0342  0.4113 -0.6535
 8657TIP3   OH247461   0.377   6.173   6.594  0.0755  0.1297  0.1589
 8657TIP3    H147462   0.462   6.211   6.570 -0.7048  1.6683 -0.2135
 8657TIP3    H247463   0.381   6.083   6.561  0.9541  0.6745 -1.2624
 8658TIP3   OH247464   6.113   2.432   3.003  0.5451  0.6975  0.7676
 8658TIP3    H147465   6.032   2.393   3.035 -0.2545  1.1172 -0.6692
 8658TIP3    H247466   6.182   2.378   3.040 -0.4277 -0.2485  1.2378
 8659TIP3   OH247467   6.634   2.115  14.473 -0.0735 -0.4791 -0.1716
 8659TIP3    H147468   6.602   2.171  14.402 -1.3663 -0.3030  0.5292
 8659TIP3    H247469   6.579   2.139  14.548  0.3317 -1.6732  0.5096
 8660TIP3   OH247470   3.474   0.146  13.347  0.4566 -0.3339  0.4676
 8660TIP3    H147471   3.442   0.074  13.401 -0.2105  0.0054  0.5325
 8660TIP3    H247472   3.396   0.197  13.326  0.7969 -0.1203 -0.3049
 8661TIP3   OH247473   5.311   0.466   4.503 -0.0674 -0.2218  0.2688
 8661TIP3    H147474   5.291   0.519   4.425  1.4263 -0.1085 -0.0557
 8661TIP3    H247475   5.381   0.514   4.547  0.0012 -0.9614  0.9762
 8662TIP3   OH247476   6.704   1.175  15.630 -0.2435 -0.6140 -0.1810
 8662TIP3    H147477   6.636   1.109  15.615 -0.4852 -0.2762 -0.5989
 8662TIP3    H247478   6.656   1.257  15.639 -0.0197 -0.6418  1.3990
 8663TIP3   OH247479   1.261   5.294   5.204 -0.7818 -0.3777 -0.2540
 8663TIP3    H147480   1.256   5.339   5.120 -1.1577  1.1494  0.5718
 8663TIP3    H247481   1.304   5.211   5.184  1.6041  1.1016 -1.4923
 8664TIP3   OH247482   2.530   5.093  12.560 -0.1106 -0.6192  0.1741
 8664TIP3    H147483   2.583   5.042  12.621  1.1272  1.0799  0.5504
 8664TIP3    H247484   2.585   5.103  12.482 -0.8915 -1.0269 -0.4407
 8665TIP3   OH247485   1.195   3.371   4.461  0.8963 -0.1134  0.3682
 8665TIP3    H147486   1.194   3.456   4.504  0.2397 -0.0012  0.1296
 8665TIP3    H247487   1.275   3.372   4.409  1.1598  0.1522  0.7713
 8666TIP3   OH247488   2.035   6.623  14.671 -0.0515 -0.4596  0.4553
 8666TIP3    H147489   1.996   6.635  14.758 -0.3553 -1.5404  0.4732
 8666TIP3    H247490   1.963   6.591  14.616  0.2509 -0.2183 -0.0877
 8667TIP3   OH247491   4.789   6.152   0.317 -0.0350 -0.2451 -0.0229
 8667TIP3    H147492   4.738   6.225   0.351  1.4346  1.1541 -0.7438
 8667TIP3    H247493   4.839   6.121   0.392 -0.1067 -0.0313  0.1141
 8668TIP3   OH247494   1.612   5.923  16.762 -0.0965 -0.4158 -0.4888
 8668TIP3    H147495   1.698   5.965  16.768 -0.8310  0.9858  0.4861
 8668TIP3    H247496   1.556   5.973  16.822 -1.9125 -0.5245 -2.0505
 8669TIP3   OH247497   4.641   2.111  15.798  0.4350 -0.1279 -0.1912
 8669TIP3    H147498   4.680   2.053  15.732  0.9855 -1.0951  0.9618
 8669TIP3    H247499   4.715   2.161  15.833  0.1309  0.4492 -0.3715
 8670TIP3   OH247500   2.201   0.657  16.672  0.0536 -0.0164  0.2082
 8670TIP3    H147501   2.244   0.742  16.669 -0.4845  0.2153 -1.6536
 8670TIP3    H247502   2.202   0.626  16.581 -1.3784 -1.1690  0.5550
 8671TIP3   OH247503   6.437   0.659  16.029  0.1480 -0.2217  0.4264
 8671TIP3    H147504   6.430   0.592  16.098 -0.7136  0.4958  1.0420
 8671TIP3    H247505   6.366   0.721  16.048 -0.3417 -0.2163 -1.3300
 8672TIP3   OH247506   5.230   6.412   5.563  0.1098 -0.0232 -0.0831
 8672TIP3    H147507   5.321   6.406   5.589 -0.2697 -1.9848  0.8334
 8672TIP3    H247508   5.224   6.364   5.481 -0.0622  0.2828 -0.2538
 8673TIP3   OH247509   1.868   6.432   5.442 -0.3366 -0.0668  0.4640
 8673TIP3    H147510   1.864   6.362   5.506  1.7589 -2.4327 -1.8759
 8673TIP3    H247511   1.776   6.448   5.418 -0.8372 -2.2744  0.7906
 8674TIP3   OH247512   5.474   2.930  11.357 -0.0413 -0.3655  0.2320
 8674TIP3    H147513   5.477   2.861  11.290 -0.8316 -1.2229  1.0688
 8674TIP3    H247514   5.424   3.000  11.316 -0.5970 -0.9191 -0.0512
 8675TIP3   OH247515   6.679   2.709   0.118 -0.1099  0.0120 -0.2703
 8675TIP3    H147516   6.753   2.768   0.104  0.7741 -1.1789 -0.7921
 8675TIP3    H247517   6.618   2.758   0.173 -0.5235  2.2897 -2.6707
 8676TIP3   OH247518   4.038   3.455   6.071 -0.8555 -0.4216  0.2678
 8676TIP3    H147519   3.966   3.396   6.091  0.4781 -2.2072 -0.0922
 8676TIP3    H247520   4.081   3.471   6.155  1.0749 -3.0642 -0.1452
 8677TIP3   OH247521   3.874   6.393  16.743  0.0163 -0.4643  0.9631
 8677TIP3    H147522   3.902   6.370  16.655 -0.9215 -0.4185  0.6501
 8677TIP3    H247523   3.913   6.326  16.799  1.0113 -0.2206  0.5740
 8678TIP3   OH247524   6.495   2.253   1.309 -0.3802 -0.0044  0.3112
 8678TIP3    H147525   6.516   2.188   1.242  0.3934 -1.0251  1.5256
 8678TIP3    H247526   6.522   2.336   1.270  1.3745 -0.7370 -0.1025
 8679TIP3   OH247527   2.937   0.887  15.805  0.6143  0.3746 -0.2409
 8679TIP3    H147528   2.848   0.919  15.789  0.5883  1.0446  1.2055
 8679TIP3    H247529   2.952   0.822  15.736 -1.0436  0.1572 -0.4046
 8680TIP3   OH247530   5.542   2.760   4.849  0.1932 -0.3631 -0.2460
 8680TIP3    H147531   5.591   2.829   4.895 -1.2254  0.9620 -0.6617
 8680TIP3    H247532   5.554   2.780   4.756  0.3560 -1.0982 -0.3835
 8681TIP3   OH247533   4.732   1.530  14.316 -0.8398 -0.7826  0.7227
 8681TIP3    H147534   4.639   1.547  14.304 -1.0645 -1.6584  1.1931
 8681TIP3    H247535   4.764   1.604  14.368 -1.2612 -0.4747  0.5424
 8682TIP3   OH247536   1.172   6.228  11.602 -0.1712  0.0367  0.0387
 8682TIP3    H147537   1.219   6.308  11.577  0.0786  0.0973  0.7022
 8682TIP3    H247538   1.101   6.221  11.538  0.2086  0.4282 -0.4259
 8683TIP3   OH247539   6.135   2.579   2.091  0.1232 -0.3882  0.1892
 8683TIP3    H147540   6.219   2.619   2.113  0.8839 -2.2211  0.6949
 8683TIP3    H247541   6.078   2.603   2.164 -0.0777  1.5839 -0.5659
 8684TIP3   OH247542   4.916   6.662   4.511  0.5314 -0.6007  0.1090
 8684TIP3    H147543   4.904   6.588   4.450  0.7638  0.5017 -1.2990
 8684TIP3    H247544   4.888   6.739   4.462  1.3707  0.3999  1.1587
 8685TIP3   OH247545   3.368   2.396  16.033  0.4784  0.2628  0.1604
 8685TIP3    H147546   3.280   2.419  16.004 -0.3828 -0.4612  2.1797
 8685TIP3    H247547   3.409   2.358  15.955 -1.4512 -0.6820 -0.4272
 8686TIP3   OH247548   0.109   4.610  11.613 -0.0522 -0.5271 -0.0960
 8686TIP3    H147549   0.109   4.524  11.654  0.0755 -0.3777  0.2230
 8686TIP3    H247550   0.043   4.604  11.544  0.2104 -0.9909 -0.3098
 8687TIP3   OH247551   5.651   4.459   1.261 -0.3857  0.5428 -0.1116
 8687TIP3    H147552   5.575   4.405   1.281  0.2961  0.0404  1.2633
 8687TIP3    H247553   5.672   4.502   1.344  1.1086  0.2861 -0.3377
 8688TIP3   OH247554   4.079   3.174  12.371  0.4449  0.9757  0.3006
 8688TIP3    H147555   4.145   3.113  12.339  0.2805  0.2970  1.2037
 8688TIP3    H247556   4.128   3.252  12.396  0.8577  0.6494  0.5276
 8689TIP3   OH247557   3.307   5.048   5.547  0.3812  0.2413  0.8399
 8689TIP3    H147558   3.256   5.125   5.575  0.4152  1.4603 -2.1727
 8689TIP3    H247559   3.253   5.008   5.479 -0.4839 -3.5512  3.6182
 8690TIP3   OH247560   5.523   0.262  15.231  0.5965 -0.3036  0.0881
 8690TIP3    H147561   5.478   0.319  15.169  1.4970  0.0083 -0.2757
 8690TIP3    H247562   5.452   0.223  15.283 -0.0339  0.9766  0.2081
 8691TIP3   OH247563   2.654   2.428   4.679 -0.0887  0.4380  0.4931
 8691TIP3    H147564   2.726   2.491   4.681  0.7956 -0.5859  1.7587
 8691TIP3    H247565   2.576   2.481   4.695  0.2117  1.7559 -2.2092
 8692TIP3   OH247566   4.234   3.984  10.606  0.2755 -0.3003 -0.9375
 8692TIP3    H147567   4.221   3.911  10.545  1.3262  0.5065 -2.1769
 8692TIP3    H247568   4.196   4.060  10.561  2.3717  0.5876 -1.2724
 8693TIP3   OH247569   4.472   0.046   1.183 -0.3894  0.2084 -0.5669
 8693TIP3    H147570   4.433   0.113   1.125 -0.0464 -1.0257 -2.2570
 8693TIP3    H247571   4.399  -0.011   1.206 -0.2791 -0.0447 -0.8390
 8694TIP3   OH247572   5.040   3.564   3.531  0.7984  0.0529 -0.2710
 8694TIP3    H147573   5.019   3.472   3.548 -0.0819  0.1040 -1.0471
 8694TIP3    H247574   5.136   3.567   3.530  0.8368 -0.7113  0.5155
 8695TIP3   OH247575   1.421   4.401  15.644  0.5930 -0.8289 -0.0260
 8695TIP3    H147576   1.398   4.376  15.554 -2.0183 -2.9247  1.1678
 8695TIP3    H247577   1.506   4.361  15.659  1.3023 -0.0117 -1.7398
 8696TIP3   OH247578   2.427   4.730   5.316  0.3478 -0.4379  0.4761
 8696TIP3    H147579   2.413   4.824   5.329  1.6967 -0.1650  0.0351
 8696TIP3    H247580   2.520   4.717   5.332  1.1515 -0.8787 -3.9090
 8697TIP3   OH247581   2.575   6.353   0.582 -0.3202  0.6064 -0.3713
 8697TIP3    H147582   2.647   6.316   0.633 -0.7469 -2.5834 -1.9680
 8697TIP3    H247583   2.617   6.393   0.506  0.0128  2.2243  0.6192
 8698TIP3   OH247584   1.959   4.696   3.725 -0.0588 -0.2184 -0.5524
 8698TIP3    H147585   2.017   4.620   3.734 -2.0060 -2.0401 -2.8083
 8698TIP3    H247586   1.935   4.719   3.815  0.4463 -2.3371  0.1482
 8699TIP3   OH247587   3.784   1.513  13.691 -0.0212  0.4018 -0.1069
 8699TIP3    H147588   3.719   1.453  13.728  1.3459 -0.0971  1.5873
 8699TIP3    H247589   3.744   1.599  13.696 -1.3885 -0.1694 -1.0883
 8700TIP3   OH247590   0.480   6.613  12.147 -0.4360  0.7075  0.2672
 8700TIP3    H147591   0.569   6.589  12.173 -0.9236  0.9264  2.1820
 8700TIP3    H247592   0.423   6.566  12.208 -1.7800 -1.5523 -2.5588
 8701TIP3   OH247593   1.530   1.291   4.070  0.5189  0.2152 -0.2487
 8701TIP3    H147594   1.498   1.379   4.090 -0.2327  0.1287 -1.0300
 8701TIP3    H247595   1.453   1.235   4.080  0.7264 -0.1862 -0.8539
 8702TIP3   OH247596   5.852   5.419   0.707 -0.0620 -0.5513 -0.4651
 8702TIP3    H147597   5.821   5.367   0.633 -0.5915 -1.4500  0.3747
 8702TIP3    H247598   5.898   5.493   0.667 -0.3672 -1.0106 -1.6857
 8703TIP3   OH247599   1.795   0.177  14.191 -0.4693 -0.5332  0.6379
 8703TIP3    H147600   1.825   0.175  14.100 -2.1288 -0.6291  0.0759
 8703TIP3    H247601   1.706   0.211  14.186 -0.8825 -1.3648  2.1397
 8704TIP3   OH247602   3.643   5.217   3.507 -0.2253 -0.1683 -0.4238
 8704TIP3    H147603   3.684   5.223   3.593 -1.0563  1.0017 -0.1048
 8704TIP3    H247604   3.698   5.270   3.449  0.1361 -0.6697 -0.5423
 8705TIP3   OH247605   0.259   5.681   4.481  0.2750  0.0345 -0.1235
 8705TIP3    H147606   0.329   5.746   4.481 -0.3376  0.6984  0.4808
 8705TIP3    H247607   0.215   5.692   4.397  1.1210 -0.6494 -0.6745
 8706TIP3   OH247608   4.192   1.863   1.705 -0.0722  0.5453 -0.1994
 8706TIP3    H147609   4.278   1.882   1.741  0.0752 -0.6768  0.1167
 8706TIP3    H247610   4.204   1.783   1.654 -0.8583  0.7770 -0.7642
 8707TIP3   OH247611   2.991   1.442   4.884 -0.1880 -0.4729  0.0703
 8707TIP3    H147612   2.998   1.532   4.914 -1.2156 -0.9679  1.8933
 8707TIP3    H247613   3.077   1.421   4.847  0.4413  0.8414  0.7761
 8708TIP3   OH247614   2.978   4.880  15.039 -0.1607 -0.4117  0.6262
 8708TIP3    H147615   2.983   4.947  14.971  0.6047  0.0026  1.0905
 8708TIP3    H247616   2.894   4.837  15.024  0.5265 -1.1046 -1.3125
 8709TIP3   OH247617   0.447   1.348   1.923  0.0398  0.2156  0.1959
 8709TIP3    H147618   0.457   1.435   1.962 -0.4038 -0.5188  1.9984
 8709TIP3    H247619   0.357   1.324   1.943  0.1549 -0.6454 -0.3310
 8710TIP3   OH247620   1.031   2.342   2.807  0.2151  0.1362 -0.0305
 8710TIP3    H147621   1.033   2.287   2.885 -1.6013 -0.0282 -0.0642
 8710TIP3    H247622   0.938   2.362   2.795  0.6555  1.6189 -1.1315
 8711TIP3   OH247623   4.333   5.739   5.618 -0.1081 -0.0171  0.1440
 8711TIP3    H147624   4.325   5.644   5.627  1.2439 -0.0652  1.2138
 8711TIP3    H247625   4.382   5.751   5.537 -1.4218 -0.1663 -0.6821
 8712TIP3   OH247626   5.048   2.846   1.791 -0.4977 -0.2045  0.0606
 8712TIP3    H147627   5.017   2.795   1.716  0.5731  2.6479 -2.4060
 8712TIP3    H247628   4.976   2.905   1.811  0.7254  1.8428 -1.3998
 8713TIP3   OH247629   3.494   1.487  13.371 -0.5114 -0.0165 -0.6706
 8713TIP3    H147630   3.516   1.418  13.434  1.5959 -0.0534 -1.4301
 8713TIP3    H247631   3.576   1.532  13.354 -0.9812 -0.0930 -3.4907
 8714TIP3   OH247632   3.060   0.183   2.242  0.0940 -0.2449  0.2852
 8714TIP3    H147633   3.006   0.262   2.245 -0.2799 -0.3702 -2.2269
 8714TIP3    H247634   3.113   0.193   2.163 -0.3542 -2.7559 -0.3811
 8715TIP3   OH247635   3.859   6.730  12.263 -0.1346 -0.3472 -0.1943
 8715TIP3    H147636   3.824   6.728  12.352  0.1466 -1.6572 -0.1000
 8715TIP3    H247637   3.787   6.698  12.208  0.2378 -1.1334 -0.2353
 8716TIP3   OH247638   2.766   1.250   3.212 -0.0046 -0.0730 -0.4762
 8716TIP3    H147639   2.860   1.269   3.211 -0.0991  0.4015 -1.7715
 8716TIP3    H247640   2.753   1.192   3.137 -1.0756  1.5617 -1.5924
 8717TIP3   OH247641   0.433   6.787   3.051  0.3690  0.2416 -0.2064
 8717TIP3    H147642   0.456   6.698   3.024 -0.8285  0.0610 -0.6637
 8717TIP3    H247643   0.446   6.787   3.146  1.2795 -0.1377 -0.3220
 8718TIP3   OH247644   2.480   3.372   4.558  0.6300 -0.9158  0.1980
 8718TIP3    H147645   2.572   3.389   4.537  0.3968 -0.1609 -0.2441
 8718TIP3    H247646   2.456   3.298   4.502  1.6214 -2.6874  2.0539
 8719TIP3   OH247647   2.094   4.647   5.167  0.3386 -0.3369  0.5370
 8719TIP3    H147648   2.156   4.575   5.155 -0.9077 -1.4010  0.3597
 8719TIP3    H247649   2.125   4.716   5.107  0.9727 -1.0898 -0.0095
 8720TIP3   OH247650   3.393   0.040  14.704  0.2520 -0.1990 -0.1335
 8720TIP3    H147651   3.475  -0.005  14.726  0.4127  0.5028  0.7341
 8720TIP3    H247652   3.374   0.013  14.615  1.1273 -0.8309 -0.1343
 8721TIP3   OH247653   0.822   5.465   1.249  0.5174  0.3820 -0.0979
 8721TIP3    H147654   0.871   5.541   1.218  0.8497 -1.2944 -3.9182
 8721TIP3    H247655   0.749   5.456   1.188  0.5681 -2.4071  0.1603
 8722TIP3   OH247656   3.322   0.497   0.989 -0.3306 -0.3179  0.4967
 8722TIP3    H147657   3.244   0.505   1.044  0.3052 -1.1985  1.5543
 8722TIP3    H247658   3.296   0.439   0.917  0.0325 -2.6394  2.1879
 8723TIP3   OH247659   0.854   1.399  12.735 -0.0372  0.6733 -0.2014
 8723TIP3    H147660   0.865   1.378  12.827  0.6279 -1.9018 -0.8234
 8723TIP3    H247661   0.939   1.381  12.696 -0.9246 -0.3685 -1.6996
 8724TIP3   OH247662   4.889   2.414  13.101 -0.4462  0.2830  0.1341
 8724TIP3    H147663   4.924   2.489  13.149 -0.8848  0.0495  0.8471
 8724TIP3    H247664   4.837   2.452  13.030 -0.6113  0.6575  0.4545
 8725TIP3   OH247665   6.244   3.807   4.208  0.6321  0.3524  0.2963
 8725TIP3    H147666   6.201   3.880   4.252  0.2549  0.4718 -0.2561
 8725TIP3    H247667   6.219   3.816   4.116  1.1375 -0.0796  0.1077
 8726TIP3   OH247668   6.016   1.308   2.063 -0.0493 -0.0475  0.2221
 8726TIP3    H147669   5.928   1.344   2.050  0.6265  1.1945 -1.1428
 8726TIP3    H247670   6.038   1.267   1.979  1.1726  0.8022  0.1034
 8727TIP3   OH247671   6.117   4.377  16.254  0.0691  0.0345 -0.1405
 8727TIP3    H147672   6.049   4.334  16.308  1.6217 -0.0826  1.7809
 8727TIP3    H247673   6.199   4.344  16.290  1.1888  1.6135 -1.2435
 8728TIP3   OH247674   3.409   5.212  11.966  0.2166 -0.6293  0.1584
 8728TIP3    H147675   3.324   5.215  11.922 -1.0698 -1.7636  2.4239
 8728TIP3    H247676   3.403   5.280  12.033  0.5525 -1.6414  1.2330
 8729TIP3   OH247677   5.485   4.449   4.774 -0.2989  0.4801 -0.3117
 8729TIP3    H147678   5.413   4.391   4.797  0.8958 -0.2775  1.6997
 8729TIP3    H247679   5.561   4.413   4.821  1.2199  1.6886 -1.7630
 8730TIP3   OH247680   6.297   2.748  11.379  0.3519 -0.2921 -0.3659
 8730TIP3    H147681   6.364   2.792  11.327 -1.6911 -0.3509 -3.2102
 8730TIP3    H247682   6.300   2.657  11.349  0.8184 -0.8968  1.4720
 8731TIP3   OH247683   1.894   0.613   0.311 -0.0477 -0.3624 -0.0252
 8731TIP3    H147684   1.957   0.543   0.298  0.6288  0.3093 -0.4112
 8731TIP3    H247685   1.823   0.594   0.250  1.6593  1.0617 -2.5629
 8732TIP3   OH247686   6.136   1.343   1.360  0.1626  0.0358 -0.6222
 8732TIP3    H147687   6.142   1.299   1.276  0.4614  1.0369 -1.1316
 8732TIP3    H247688   6.223   1.381   1.374 -0.6131  2.0214 -1.0671
 8733TIP3   OH247689   4.501   5.932   1.466  0.1362 -0.1393  0.0316
 8733TIP3    H147690   4.466   5.853   1.425 -2.0583  0.7507  0.1036
 8733TIP3    H247691   4.485   6.001   1.402 -0.6619  0.7552  1.1736
 8734TIP3   OH247692   6.674   2.579   3.547 -0.5011  0.0676 -0.1254
 8734TIP3    H147693   6.642   2.654   3.496 -2.2780 -1.7531 -1.8072
 8734TIP3    H247694   6.628   2.585   3.631  1.0126  2.0418  0.5966
 8735TIP3   OH247695   5.949   6.603  14.705  0.3137  0.1777  0.8004
 8735TIP3    H147696   6.018   6.626  14.768  1.4459  0.4047 -0.5013
 8735TIP3    H247697   5.962   6.663  14.632  1.2986 -2.4598 -1.2465
 8736TIP3   OH247698   0.182   1.886  17.255 -0.1031  0.1815 -0.0021
 8736TIP3    H147699   0.111   1.950  17.264 -1.4659 -1.3997  0.7140
 8736TIP3    H247700   0.191   1.848  17.342  0.3413 -0.9575 -0.5436
 8737TIP3   OH247701   3.380   3.197   5.106 -0.6823 -0.0819  0.0338
 8737TIP3    H147702   3.287   3.182   5.092 -0.7287  0.0738  0.1793
 8737TIP3    H247703   3.423   3.150   5.034 -0.8089 -1.2165  0.6798
 8738TIP3   OH247704   1.024   0.945   3.777  0.5965 -0.5132 -0.0671
 8738TIP3    H147705   1.000   1.012   3.841 -2.2862 -1.6395  0.0882
 8738TIP3    H247706   1.104   0.906   3.811  0.4510  0.5806  1.5579
 8739TIP3   OH247707   6.099   2.235  13.900  0.0045 -0.3687  0.6504
 8739TIP3    H147708   6.148   2.162  13.937 -1.4011 -2.2877 -1.1819
 8739TIP3    H247709   6.166   2.300  13.878  1.1879 -0.6944  3.0545
 8740TIP3   OH247710   6.043   0.906   6.955  0.9590 -0.0237 -0.5546
 8740TIP3    H147711   6.101   0.905   6.878  0.9339  0.5400 -0.5819
 8740TIP3    H247712   6.090   0.855   7.021  0.3559 -1.7277 -1.3928
 8741TIP3   OH247713   2.501   3.284  13.516  0.2799 -0.2393 -0.0956
 8741TIP3    H147714   2.417   3.253  13.481 -0.7345  2.5133 -0.2320
 8741TIP3    H247715   2.506   3.375  13.486  2.5660  0.1008  1.2947
 8742TIP3   OH247716   5.550   0.958   2.827  0.4487 -0.0372  0.0793
 8742TIP3    H147717   5.626   1.011   2.853  0.4087  0.1940 -0.2717
 8742TIP3    H247718   5.570   0.930   2.738 -1.1121  2.3248 -1.0629
 8743TIP3   OH247719   0.404   3.851  16.174  0.3088 -0.0668 -0.1170
 8743TIP3    H147720   0.335   3.883  16.234  0.3539  2.3040 -1.2571
 8743TIP3    H247721   0.484   3.890  16.208  1.1263 -2.6942  1.1120
 8744TIP3   OH247722   2.041   3.282  14.021  0.0520  0.5646  0.0886
 8744TIP3    H147723   1.969   3.222  14.002  0.0019  0.3588  0.9249
 8744TIP3    H247724   2.110   3.257  13.959 -0.7826  1.1089 -1.0828
 8745TIP3   OH247725   2.099   1.840  11.393 -0.7967  0.2049 -0.1331
 8745TIP3    H147726   2.134   1.881  11.314 -1.3690 -1.8171 -1.5191
 8745TIP3    H247727   2.010   1.813  11.367 -1.1573 -0.0631  1.3569
 8746TIP3   OH247728   3.987   2.780  12.415  0.1580 -0.0391 -0.0487
 8746TIP3    H147729   3.956   2.771  12.505  0.1566  0.7141  0.0284
 8746TIP3    H247730   3.910   2.764  12.361  0.1072 -0.2619  0.0904
 8747TIP3   OH247731   5.192   5.212  12.020  0.7667 -0.0211 -0.2212
 8747TIP3    H147732   5.281   5.227  12.053  1.0442  3.4586 -2.3214
 8747TIP3    H247733   5.136   5.261  12.080  0.6517  0.9646 -1.1260
 8748TIP3   OH247734   0.505   4.994  11.088  0.0750  0.7292 -0.1198
 8748TIP3    H147735   0.520   4.902  11.109  0.7011  0.2190 -2.6018
 8748TIP3    H247736   0.577   5.041  11.130  0.7390 -0.1100 -0.3218
 8749TIP3   OH247737   2.792   1.491   5.727  0.1596  0.1380  0.6924
 8749TIP3    H147738   2.734   1.565   5.743  0.8989  1.2545 -1.6435
 8749TIP3    H247739   2.769   1.460   5.640  1.3830 -0.9769  0.7456
 8750TIP3   OH247740   2.398   6.653   3.487 -0.4445 -0.0598 -0.2185
 8750TIP3    H147741   2.389   6.731   3.432  1.7509  0.3877 -0.0139
 8750TIP3    H247742   2.340   6.588   3.447 -0.5680  0.9533 -1.7350
 8751TIP3   OH247743   4.700   5.484  13.501 -0.2149  0.2176 -0.0409
 8751TIP3    H147744   4.636   5.425  13.461 -1.1290  1.5167 -0.5290
 8751TIP3    H247745   4.713   5.449  13.589 -0.5009 -0.9082 -0.4451
 8752TIP3   OH247746   0.096   6.404  10.882  0.4551  0.0117  0.0920
 8752TIP3    H147747   0.017   6.357  10.907  0.5094 -0.5709 -0.8090
 8752TIP3    H247748   0.153   6.337  10.845  0.3218  0.8601 -1.7132
 8753TIP3   OH247749   1.524   2.492  11.498 -0.5775  0.1441 -0.0925
 8753TIP3    H147750   1.556   2.480  11.409 -2.8969  0.5022 -1.0182
 8753TIP3    H247751   1.595   2.537  11.543  0.9667 -0.8162 -1.5114
 8754TIP3   OH247752   3.290   5.450   1.749  0.7287  0.5158  0.8447
 8754TIP3    H147753   3.375   5.493   1.744  1.3946 -0.7118  1.4163
 8754TIP3    H247754   3.271   5.426   1.658  2.8895 -2.7640  1.1680
 8755TIP3   OH247755   5.424   4.561  11.528  0.3845 -0.0759  0.1635
 8755TIP3    H147756   5.445   4.480  11.575 -0.5482  0.2017  1.0720
 8755TIP3    H247757   5.427   4.629  11.595 -2.6430  0.0793  0.2106
 8756TIP3   OH247758   0.977   1.135  16.329  0.7053  0.1256  0.2371
 8756TIP3    H147759   0.894   1.181  16.345  1.4113  0.4628  3.3053
 8756TIP3    H247760   0.956   1.043  16.341  0.6062  0.1584  0.3250
 8757TIP3   OH247761   4.109   1.012  16.009  0.0118  0.5234  0.0383
 8757TIP3    H147762   4.162   1.057  15.943 -1.0774  0.8775 -0.5943
 8757TIP3    H247763   4.073   1.081  16.064  0.0509  0.2959  0.3550
 8758TIP3   OH247764   1.923   1.631  14.945 -0.3262 -0.1281 -0.1727
 8758TIP3    H147765   1.857   1.648  14.877 -1.0614  1.8197  0.9856
 8758TIP3    H247766   1.972   1.712  14.953  1.1707 -1.0329  0.1371
 8759TIP3   OH247767   0.867   0.378   3.270  0.5340 -0.1511  0.6226
 8759TIP3    H147768   0.802   0.310   3.256 -3.4903  3.5558  0.2242
 8759TIP3    H247769   0.879   0.380   3.365  0.1362 -0.9310  0.6914
 8760TIP3   OH247770   5.764   5.783  15.703  0.4610 -0.0719 -0.3971
 8760TIP3    H147771   5.730   5.866  15.736  0.7388  0.2201 -0.8503
 8760TIP3    H247772   5.687   5.726  15.701  0.3493  0.0508  0.2953
 8761TIP3   OH247773   5.757   6.294   3.520  0.2474 -0.1275 -0.7392
 8761TIP3    H147774   5.797   6.350   3.454 -0.1691 -1.7369 -2.3881
 8761TIP3    H247775   5.663   6.299   3.504  0.1668 -0.8701 -0.5541
 8762TIP3   OH247776   5.528   3.529   1.565 -0.0501 -0.0928 -0.0376
 8762TIP3    H147777   5.523   3.546   1.471  1.1670  0.8460  0.0512
 8762TIP3    H247778   5.455   3.578   1.602  0.3422  0.7352 -0.3474
 8763TIP3   OH247779   1.777   5.446  11.777  0.7254 -0.3076 -0.5946
 8763TIP3    H147780   1.718   5.384  11.822 -0.0167  0.8426  0.0579
 8763TIP3    H247781   1.737   5.458  11.691  1.4777 -1.5826 -1.1244
 8764TIP3   OH247782   6.349   6.042  14.439  0.2910 -0.7234 -0.6561
 8764TIP3    H147783   6.264   6.047  14.396  0.2404 -1.2545 -0.6182
 8764TIP3    H247784   6.335   5.985  14.514  0.3655  0.2461  0.1030
 8765TIP3   OH247785   3.984   1.978  17.045  0.1343  0.1392  0.3466
 8765TIP3    H147786   4.020   2.044  17.104 -0.2664  0.6654  0.0069
 8765TIP3    H247787   4.009   2.008  16.958 -0.7628  0.2922  0.1326
 8766TIP3   OH247788   0.479   5.512  15.126 -0.3291 -0.0859  0.2707
 8766TIP3    H147789   0.458   5.555  15.209 -0.0652  0.5657  0.0085
 8766TIP3    H247790   0.436   5.566  15.060  0.0362 -0.2123 -0.0695
 8767TIP3   OH247791   6.321   5.842  16.872 -0.3547  0.6013  0.8318
 8767TIP3    H147792   6.374   5.785  16.818 -0.6309  1.9829 -0.9404
 8767TIP3    H247793   6.232   5.835  16.837 -0.4116  2.0257  0.6415
 8768TIP3   OH247794   1.462   1.466   4.577  0.4820  0.3558  0.2933
 8768TIP3    H147795   1.418   1.382   4.591  0.0613  0.5298  0.0012
 8768TIP3    H247796   1.479   1.499   4.665 -1.0413  0.8650  0.4067
 8769TIP3   OH247797   5.282   4.808  15.829 -0.0061 -0.4961  0.5466
 8769TIP3    H147798   5.245   4.740  15.774 -0.3427 -0.5843  0.8784
 8769TIP3    H247799   5.271   4.888  15.779  0.1102 -0.6397  0.2864
 8770TIP3   OH247800   1.172   3.302  14.938  0.5097 -0.4116 -0.0673
 8770TIP3    H147801   1.143   3.268  14.854 -0.0366  0.6464 -0.3238
 8770TIP3    H247802   1.213   3.228  14.982  0.5673 -1.0324 -1.1589
 8771TIP3   OH247803   6.505   5.799  17.065  0.2013 -0.4221 -0.1411
 8771TIP3    H147804   6.443   5.841  17.004  0.3516 -1.6741 -1.1686
 8771TIP3    H247805   6.590   5.808  17.021  0.3801 -0.9050  0.1135
 8772TIP3   OH247806   2.269   6.421   4.198 -0.4279  0.1789  0.6720
 8772TIP3    H147807   2.255   6.512   4.172 -0.3347  0.0645  0.1993
 8772TIP3    H247808   2.363   6.407   4.184 -0.7837 -0.5525 -1.1209
 8773TIP3   OH247809   6.477   5.662  13.488  0.2272  0.5340 -0.0338
 8773TIP3    H147810   6.539   5.631  13.554  0.0056 -1.0869 -0.5649
 8773TIP3    H247811   6.460   5.754  13.512  0.0144 -0.0764  2.2519
 8774TIP3   OH247812   3.128   5.698   3.037 -0.2038 -0.0918  0.1247
 8774TIP3    H147813   3.144   5.653   3.120  1.1359  1.2284  0.5957
 8774TIP3    H247814   3.214   5.707   2.997 -0.6775  0.4726 -0.7933
 8775TIP3   OH247815   5.293   4.616   2.283  0.0903  0.6866  0.0318
 8775TIP3    H147816   5.343   4.649   2.208 -0.2200  1.5622  0.2117
 8775TIP3    H247817   5.202   4.629   2.260 -0.0277  0.3194  0.2737
 8776TIP3   OH247818   6.137   1.576   5.244 -0.1986 -0.5308 -0.1434
 8776TIP3    H147819   6.215   1.554   5.194 -0.0324  0.3647 -0.2868
 8776TIP3    H247820   6.067   1.525   5.204  0.1052 -0.5040 -0.7127
 8777TIP3   OH247821   5.502   0.969   1.353 -0.3414 -0.3087  0.1124
 8777TIP3    H147822   5.499   1.040   1.290 -1.8021 -1.9278 -1.7029
 8777TIP3    H247823   5.592   0.972   1.388 -0.0957  1.7736 -0.6511
 8778TIP3   OH247824   3.170   5.288  17.105 -0.1146  0.1660 -0.3894
 8778TIP3    H147825   3.213   5.265  17.187 -1.1669 -0.8034 -0.0869
 8778TIP3    H247826   3.193   5.218  17.045 -0.0271  0.4401 -0.6792
 8779TIP3   OH247827   5.468   3.046   2.638  0.3802  0.0860 -0.0874
 8779TIP3    H147828   5.390   2.993   2.658 -0.1416  1.3635  1.3220
 8779TIP3    H247829   5.434   3.134   2.624  1.5190  0.5155 -0.1668
 8780TIP3   OH247830   5.134   0.841   3.474  0.0598  0.1013  0.1855
 8780TIP3    H147831   5.199   0.771   3.464  0.0863  0.1995 -0.3048
 8780TIP3    H247832   5.058   0.810   3.425 -0.1292  0.1596  0.4420
 8781TIP3   OH247833   2.931   2.863   3.576  0.0783 -0.0789 -0.0250
 8781TIP3    H147834   2.843   2.825   3.578  0.6199 -1.3142  2.1440
 8781TIP3    H247835   2.983   2.799   3.526 -0.0372  0.1801 -0.4811
 8782TIP3   OH247836   2.732   2.909   5.504  0.1166 -0.1808  0.3754
 8782TIP3    H147837   2.721   2.972   5.433 -1.4670  0.2820  0.9984
 8782TIP3    H247838   2.646   2.906   5.547  0.8489 -0.9539  1.8444
 8783TIP3   OH247839   5.421   4.139   5.075  0.6127 -0.4550  0.3454
 8783TIP3    H147840   5.329   4.148   5.097  0.5567 -1.9044  0.7196
 8783TIP3    H247841   5.422   4.121   4.981  0.6284  1.4222 -0.0364
 8784TIP3   OH247842   4.359   2.950   6.016  0.6859 -0.0735  0.2720
 8784TIP3    H147843   4.323   2.959   5.928  1.6933  0.2121 -0.1137
 8784TIP3    H247844   4.371   3.040   6.046 -0.2121 -0.1648  0.9392
 8785TIP3   OH247845   0.925   1.208   5.887 -0.2561 -0.1547  0.2672
 8785TIP3    H147846   0.996   1.164   5.934 -0.8535  0.8341  2.1129
 8785TIP3    H247847   0.876   1.254   5.954 -1.8327  0.3324 -1.1810
 8786TIP3   OH247848   1.823   6.011   4.137 -0.5565 -0.4284 -0.3239
 8786TIP3    H147849   1.843   5.938   4.078 -0.4249  0.2344 -1.0994
 8786TIP3    H247850   1.729   6.026   4.126 -0.3805  0.2120 -0.9540
 8787TIP3   OH247851   3.103   6.471   4.401 -0.4140  0.2109 -0.4712
 8787TIP3    H147852   3.032   6.435   4.454 -0.8576  0.9926 -0.5292
 8787TIP3    H247853   3.121   6.403   4.336 -0.8293 -0.1607 -0.2019
 8788TIP3   OH247854   5.648   2.731  11.848  0.3832  0.4148  0.5100
 8788TIP3    H147855   5.731   2.696  11.881  0.3802 -0.7256 -0.6707
 8788TIP3    H247856   5.628   2.677  11.772 -0.9020  1.3878  0.1503
 8789TIP3   OH247857   1.459   6.314   4.802 -0.2475 -0.7701 -0.0001
 8789TIP3    H147858   1.416   6.237   4.838  0.8314 -1.0235  0.7919
 8789TIP3    H247859   1.392   6.358   4.750 -1.1845 -1.6350  0.4697
 8790TIP3   OH247860   0.632   1.293   1.664  0.4141 -0.0772  0.6749
 8790TIP3    H147861   0.719   1.253   1.659 -0.3919 -1.6836 -1.0577
 8790TIP3    H247862   0.592   1.252   1.740  0.8102 -0.0717  0.8898
 8791TIP3   OH247863   0.001   2.798   5.202 -0.4602  0.5021  0.2468
 8791TIP3    H147864  -0.005   2.787   5.297  0.5883  0.7815  0.3553
 8791TIP3    H247865  -0.054   2.728   5.166  0.6719 -0.8299  1.0372
 8792TIP3   OH247866   2.388   1.844  14.160 -0.1985  0.1259  0.6799
 8792TIP3    H147867   2.340   1.861  14.241  0.1086 -0.0549  0.9024
 8792TIP3    H247868   2.442   1.767  14.181 -0.1072  0.0915  0.3094
 8793TIP3   OH247869   0.734   5.484   0.843  0.4477 -0.2754 -0.0096
 8793TIP3    H147870   0.683   5.558   0.875 -0.7979 -1.6317  1.2250
 8793TIP3    H247871   0.693   5.462   0.759  1.0332  0.6152 -0.5445
 8794TIP3   OH247872   2.936   6.388   3.604 -0.2789  0.3402  0.0654
 8794TIP3    H147873   2.923   6.409   3.696  2.9085 -0.9780  0.8961
 8794TIP3    H247874   2.933   6.292   3.601  0.2690  0.3497 -1.0626
 8795TIP3   OH247875   6.216   2.889   5.759  0.0289  0.0068 -0.4060
 8795TIP3    H147876   6.255   2.802   5.746 -0.7374 -0.1134 -1.9989
 8795TIP3    H247877   6.153   2.876   5.830 -1.0463 -1.0662 -1.5325
 8796TIP3   OH247878   2.461   3.274   4.824  0.1256 -0.0101  0.0285
 8796TIP3    H147879   2.474   3.309   4.736  0.5702 -1.1794 -0.3740
 8796TIP3    H247880   2.391   3.210   4.814  0.5523 -0.5374  0.4280
 8797TIP3   OH247881   5.838   1.602  11.626  0.5990  0.7660 -0.3774
 8797TIP3    H147882   5.817   1.690  11.658 -0.0031  1.5202 -2.7768
 8797TIP3    H247883   5.932   1.606  11.605  1.1853  0.0333  1.9483
 8798TIP3   OH247884   4.911   5.587  13.259 -0.1244 -0.0272  0.6660
 8798TIP3    H147885   4.824   5.589  13.299 -0.4012  2.2535  0.0150
 8798TIP3    H247886   4.898   5.538  13.178 -0.9325  0.7831  0.2978
 8799TIP3   OH247887   5.839   2.395   1.341  0.3902 -0.5763  0.3652
 8799TIP3    H147888   5.853   2.302   1.355 -0.8884 -0.7649  0.5064
 8799TIP3    H247889   5.875   2.437   1.420  0.5767 -0.9884  0.4969
 8800TIP3   OH247890   4.205   5.962  13.185 -0.5132  0.1880  0.4507
 8800TIP3    H147891   4.189   6.032  13.122 -0.9000  0.3121  0.6848
 8800TIP3    H247892   4.205   6.005  13.271 -2.0410 -0.2830  0.7020
 8801TIP3   OH247893   5.765   5.475   1.984 -0.0023  0.3729 -0.4963
 8801TIP3    H147894   5.760   5.542   1.916 -0.1003  0.2345 -0.6271
 8801TIP3    H247895   5.713   5.402   1.950  1.7749 -0.5675 -1.2733
 8802TIP3   OH247896   4.511   1.868  13.129 -0.4929  0.3734 -0.0946
 8802TIP3    H147897   4.418   1.889  13.125 -0.6321 -0.0478  0.7513
 8802TIP3    H247898   4.538   1.859  13.037 -1.4455 -0.1775 -0.3303
 8803TIP3   OH247899   2.042   4.316  15.589 -0.1051  0.6808 -0.4946
 8803TIP3    H147900   2.114   4.346  15.645 -1.2400  1.5858  0.5240
 8803TIP3    H247901   1.966   4.366  15.620 -1.2119 -0.4138 -1.4088
 8804TIP3   OH247902   3.586   4.302  15.957 -0.1826 -0.3707 -0.7410
 8804TIP3    H147903   3.582   4.218  15.911  0.3420 -0.4970 -0.5674
 8804TIP3    H247904   3.646   4.355  15.904 -0.6299 -0.0554 -0.9309
 8805TIP3   OH247905   6.694   5.026  17.051 -0.6151  0.3582  0.2483
 8805TIP3    H147906   6.678   5.083  17.126 -0.2642 -0.2093  0.7626
 8805TIP3    H247907   6.758   5.074  16.998 -0.5769  0.5970  0.5100
 8806TIP3   OH247908   2.123   0.667   4.342  0.6068 -0.2459  0.1590
 8806TIP3    H147909   2.145   0.749   4.387  0.6838 -1.0337  1.5844
 8806TIP3    H247910   2.031   0.678   4.317  0.7412  0.4512 -0.0223
 8807TIP3   OH247911   5.358   0.022  16.063 -0.0956  0.5002  0.1118
 8807TIP3    H147912   5.355   0.112  16.098  1.4032  0.9787 -0.9691
 8807TIP3    H247913   5.444   0.015  16.023  0.1164 -1.7177  0.9182
 8808TIP3   OH247914   0.898   1.768   1.080 -0.0351 -0.3537  0.1326
 8808TIP3    H147915   0.824   1.714   1.110 -0.2815  0.1512  0.4395
 8808TIP3    H247916   0.893   1.847   1.133 -0.6030  0.6419 -1.3873
 8809TIP3   OH247917   3.318   3.173  10.623 -0.0934 -0.0352  0.2551
 8809TIP3    H147918   3.262   3.161  10.546  0.4862 -1.5595  0.0495
 8809TIP3    H247919   3.292   3.104  10.683 -0.8162  1.3982  1.6279
 8810TIP3   OH247920   4.083   0.563  14.708 -0.3170  0.1938 -0.2668
 8810TIP3    H147921   3.989   0.552  14.693 -0.0949 -1.9377 -0.3172
 8810TIP3    H247922   4.104   0.647  14.667 -2.4742  1.4739  1.1619
 8811TIP3   OH247923   1.213   0.683  16.407 -0.9886 -0.0215  0.2980
 8811TIP3    H147924   1.198   0.778  16.405 -0.7625  0.0488  1.7430
 8811TIP3    H247925   1.126   0.646  16.423 -0.7671  0.0436  1.6856
 8812TIP3   OH247926   0.466   6.352   0.428  0.6249  0.5096  0.4339
 8812TIP3    H147927   0.458   6.261   0.457  1.4525 -0.1465 -1.3707
 8812TIP3    H247928   0.553   6.378   0.457  1.3281 -0.0449 -1.1723
 8813TIP3   OH247929   2.529   4.468  14.632 -0.1331 -0.0915  0.2505
 8813TIP3    H147930   2.623   4.478  14.651 -0.5238 -0.5485  2.4671
 8813TIP3    H247931   2.490   4.440  14.715 -2.1869 -0.2794 -0.7509
 8814TIP3   OH247932   2.585   1.352   3.825  0.2966 -0.4005 -0.2495
 8814TIP3    H147933   2.617   1.378   3.738  0.1302  0.1933 -0.1351
 8814TIP3    H247934   2.615   1.421   3.883  0.9473 -1.1142  0.2838
 8815TIP3   OH247935   1.531   0.838   1.301 -0.6758  0.4982  0.6138
 8815TIP3    H147936   1.601   0.805   1.245  0.1496  0.7366  1.5051
 8815TIP3    H247937   1.523   0.931   1.279 -2.1528  0.0174 -0.9965
 8816TIP3   OH247938   5.210   2.188   3.676 -0.3686  0.4951 -0.2847
 8816TIP3    H147939   5.222   2.112   3.619 -1.7781 -0.2121  0.3315
 8816TIP3    H247940   5.182   2.258   3.617 -0.7913  0.0620 -0.5997
 8817TIP3   OH247941   6.672   2.792   1.014  0.0518  0.5115 -0.0056
 8817TIP3    H147942   6.587   2.751   0.998  0.5172 -0.5239  0.0891
 8817TIP3    H247943   6.735   2.721   0.998  0.9409  1.4654 -0.8138
 8818TIP3   OH247944   2.445   2.960   4.992 -0.2984 -0.5193  0.3752
 8818TIP3    H147945   2.509   2.950   4.922 -0.4687 -1.0698  0.3001
 8818TIP3    H247946   2.367   2.995   4.949 -0.1137 -0.0344  0.4347
 8819TIP3   OH247947   6.067   0.841   0.322 -0.1363  0.2269  0.0736
 8819TIP3    H147948   6.026   0.770   0.372  2.6501 -0.6381  1.2477
 8819TIP3    H247949   6.042   0.921   0.369  1.2070 -0.4555  2.0148
 8820TIP3   OH247950   2.483   3.012  14.513  1.3343  0.3121 -0.2828
 8820TIP3    H147951   2.401   3.008  14.464 -0.1430  0.7041  2.1109
 8820TIP3    H247952   2.534   2.939  14.480 -0.4441 -0.6513 -0.9793
 8821TIP3   OH247953   6.699   4.619   5.728 -0.7221  0.4169  0.1801
 8821TIP3    H147954   6.755   4.549   5.761 -0.5794  0.4699  0.0524
 8821TIP3    H247955   6.760   4.686   5.697 -0.8375  1.6725  2.5246
 8822TIP3   OH247956   0.024   5.653   4.091  0.4667  0.2637  0.3402
 8822TIP3    H147957   0.108   5.624   4.127 -0.1782 -1.2012  0.6995
 8822TIP3    H247958  -0.041   5.596   4.133 -0.9703  2.9140  1.8892
 8823TIP3   OH247959   5.719   0.301   1.286 -0.6569 -0.2216 -0.0207
 8823TIP3    H147960   5.701   0.302   1.381 -0.1996 -1.1769  0.0779
 8823TIP3    H247961   5.696   0.212   1.258 -0.3777 -0.0728 -0.7295
 8824TIP3   OH247962   1.020   6.816  12.035 -0.7444  0.0889  0.1151
 8824TIP3    H147963   0.937   6.767  12.035  0.1928 -1.5875 -2.1047
 8824TIP3    H247964   1.010   6.879  11.964 -0.1461 -0.1129 -0.1555
 8825TIP3   OH247965   6.801   1.825  14.795  0.1184 -0.0108  0.2029
 8825TIP3    H147966   6.826   1.838  14.704 -2.6218 -1.4076 -0.7783
 8825TIP3    H247967   6.723   1.771  14.792 -1.0233  1.3100  3.3121
 8826TIP3   OH247968   6.201   2.788  14.327  0.2217 -0.5260  0.1642
 8826TIP3    H147969   6.293   2.761  14.329  0.3138 -0.2321 -0.1278
 8826TIP3    H247970   6.204   2.882  14.312 -0.0788 -0.2301  1.9100
 8827TIP3   OH247971   5.311   1.627   6.181  0.1046 -0.0969 -0.4194
 8827TIP3    H147972   5.296   1.715   6.147 -0.9597 -0.4211 -0.8323
 8827TIP3    H247973   5.321   1.572   6.103  1.1467 -0.2841 -0.1630
 8828TIP3   OH247974   4.124   2.313   1.946 -0.0620 -0.4817  0.3912
 8828TIP3    H147975   4.070   2.242   1.980  0.2913 -1.4532 -1.0701
 8828TIP3    H247976   4.079   2.393   1.975 -1.3229 -1.2866  0.6890
 8829TIP3   OH247977   6.102   6.497   6.323 -0.0805 -0.2211 -0.5819
 8829TIP3    H147978   6.187   6.518   6.363  1.2792 -3.6990 -1.4830
 8829TIP3    H247979   6.038   6.518   6.390  1.6881  0.0675  1.0637
 8830TIP3   OH247980   6.010   0.792   1.293  0.8016 -0.4080  0.4699
 8830TIP3    H147981   6.092   0.743   1.293  2.1437  1.7397  1.7426
 8830TIP3    H247982   6.002   0.825   1.383 -0.9810  0.1668  0.1193
 8831TIP3   OH247983   6.120   1.195  13.993 -0.2070  0.6529  0.2404
 8831TIP3    H147984   6.103   1.105  14.020  0.5012  0.7905  1.1465
 8831TIP3    H247985   6.076   1.203  13.908 -0.2529 -0.5523  0.1411
 8832TIP3   OH247986   0.919   6.649  15.280 -0.6004  0.5097 -0.1839
 8832TIP3    H147987   0.952   6.573  15.233  0.0358  1.1763 -0.8137
 8832TIP3    H247988   0.860   6.692  15.218 -1.3654  0.2410  0.3552
 8833TIP3   OH247989   5.294   1.024   3.746  0.6052 -0.3318  0.0358
 8833TIP3    H147990   5.222   1.083   3.724  0.2268 -0.1374  1.7286
 8833TIP3    H247991   5.343   1.070   3.815 -0.0858 -2.2422  1.8687
 8834TIP3   OH247992   0.485   0.466  13.197 -0.3028  0.5330 -0.3084
 8834TIP3    H147993   0.436   0.481  13.278  0.1592  0.2802  0.0200
 8834TIP3    H247994   0.443   0.523  13.133  1.5472  3.4809  0.9702
 8835TIP3   OH247995   4.613   5.166   3.452 -0.0563 -0.2220 -0.9831
 8835TIP3    H147996   4.609   5.113   3.373 -1.6221 -0.7011 -0.6085
 8835TIP3    H247997   4.552   5.238   3.436 -0.7888 -0.6129 -0.0178
 8836TIP3   OH247998   5.773   4.996  15.797 -0.0829 -0.0367  0.1500
 8836TIP3    H147999   5.708   4.927  15.809 -1.6241  1.5155  0.9744
 8836TIP3    H248000   5.730   5.058  15.737  0.7893  0.8156  0.4063
 8837TIP3   OH248001   0.968   2.376  13.567  0.5157 -0.6595 -0.4042
 8837TIP3    H148002   0.892   2.390  13.624  0.2827  0.1303 -0.8891
 8837TIP3    H248003   1.001   2.290  13.592 -0.7603 -1.1836 -0.4350
 8838TIP3   OH248004   6.346   5.892   4.996  0.0959 -0.1467  0.4104
 8838TIP3    H148005   6.305   5.915   4.913 -0.1426 -0.9688  0.2919
 8838TIP3    H248006   6.437   5.875   4.974  0.1053 -0.0468  0.3715
 8839TIP3   OH248007   6.790   1.310  12.049  0.1759  0.1669  0.2746
 8839TIP3    H148008   6.751   1.330  12.134 -1.0909  1.3852 -0.5642
 8839TIP3    H248009   6.715   1.301  11.990  1.0455 -0.4886 -0.7656
 8840TIP3   OH248010   0.462   0.775  13.805 -0.3386  0.4062  0.0293
 8840TIP3    H148011   0.375   0.801  13.775 -0.6549  1.3617  1.7193
 8840TIP3    H248012   0.520   0.844  13.771 -0.6502  1.3038  1.2707
 8841TIP3   OH248013   2.483   5.329   3.694 -0.5399 -0.7126 -0.1564
 8841TIP3    H148014   2.443   5.325   3.780  1.0545  0.3110  0.6501
 8841TIP3    H248015   2.458   5.246   3.652  0.3699 -2.1567  2.0668
 8842TIP3   OH248016   2.700   5.214  11.374  0.2017 -0.2383  0.1040
 8842TIP3    H148017   2.642   5.141  11.396  1.5752 -1.1172  0.8623
 8842TIP3    H248018   2.717   5.202  11.280 -1.2115  0.3028 -0.2312
 8843TIP3   OH248019   5.966   5.243  13.429  0.0887 -0.1401  0.3369
 8843TIP3    H148020   5.948   5.161  13.382  3.2285 -1.8880  2.0538
 8843TIP3    H248021   6.061   5.252  13.428 -0.1341  3.0537  1.0082
 8844TIP3   OH248022   6.562   4.952   1.269 -0.3815  0.0156  0.4079
 8844TIP3    H148023   6.578   4.859   1.288  1.9847 -0.1410 -2.0102
 8844TIP3    H248024   6.467   4.962   1.275 -0.5170 -2.1133  2.5838
 8845TIP3   OH248025   0.383   2.512  14.828 -0.0493  0.1984  0.1833
 8845TIP3    H148026   0.434   2.593  14.831  0.6633 -0.2040 -0.8192
 8845TIP3    H248027   0.328   2.520  14.750  1.0625 -0.8733 -0.7379
 8846TIP3   OH248028   5.240   6.295  12.662 -0.2076  0.3496 -0.2817
 8846TIP3    H148029   5.243   6.200  12.650  0.9539  0.2457  0.7753
 8846TIP3    H248030   5.234   6.307  12.756 -1.7830  1.3143 -0.4995
 8847TIP3   OH248031   2.913   3.886   2.744 -0.1497  0.3290 -0.2839
 8847TIP3    H148032   2.877   3.934   2.819 -0.5977  0.2674 -0.4603
 8847TIP3    H248033   3.007   3.906   2.746 -0.3208  1.1486 -0.3110
 8848TIP3   OH248034   1.715   4.856  13.689 -0.5563  0.4203 -0.0850
 8848TIP3    H148035   1.725   4.853  13.784 -0.5488  0.9694 -0.0699
 8848TIP3    H248036   1.734   4.767  13.660 -2.3603 -0.2102  0.5954
 8849TIP3   OH248037   3.578   4.374  15.349  0.5028  0.7278 -0.0690
 8849TIP3    H148038   3.517   4.381  15.275  2.5142 -1.8257 -2.0281
 8849TIP3    H248039   3.655   4.424  15.321  1.9320 -1.6356 -0.4214
 8850TIP3   OH248040   0.553   4.166   1.349  0.0754  0.2261  0.5423
 8850TIP3    H148041   0.613   4.092   1.357  0.4075  0.5098  0.6582
 8850TIP3    H248042   0.577   4.207   1.266  0.5028  0.7537  0.9260
 8851TIP3   OH248043   5.730   5.506  12.399  0.3855 -0.6600 -0.2244
 8851TIP3    H148044   5.779   5.427  12.376  1.2908 -0.6178  1.4288
 8851TIP3    H248045   5.779   5.577  12.357  0.6293 -0.8092 -0.1919
 8852TIP3   OH248046   2.957   5.350   4.204 -0.0483  0.5350  0.2806
 8852TIP3    H148047   3.041   5.394   4.188 -0.3491  0.9435 -0.2010
 8852TIP3    H248048   2.952   5.343   4.300  0.9533 -0.3290  0.2747
 8853TIP3   OH248049   4.326   3.588  13.890 -0.0391 -0.3372  0.3010
 8853TIP3    H148050   4.368   3.610  13.808 -1.4395 -1.5697 -0.7737
 8853TIP3    H248051   4.398   3.578  13.952  0.9468  1.9003 -0.4266
 8854TIP3   OH248052   5.718   0.562  17.245  0.0527  0.3243 -0.2758
 8854TIP3    H148053   5.649   0.621  17.216 -0.4293  0.9934  2.1029
 8854TIP3    H248054   5.800   0.605  17.218 -0.3670  0.9864 -0.5017
 8855TIP3   OH248055   6.592   3.097   5.764 -0.3342 -0.0283 -0.0895
 8855TIP3    H148056   6.670   3.147   5.788  0.3370 -0.9034 -0.3754
 8855TIP3    H248057   6.555   3.068   5.847  0.1203 -0.3037  0.0184
 8856TIP3   OH248058   5.525   3.355  14.378 -0.0149 -0.3597 -0.3166
 8856TIP3    H148059   5.619   3.345  14.360  0.2746  1.6227  0.0295
 8856TIP3    H248060   5.484   3.291  14.319  1.5765 -1.8593  0.1349
 8857TIP3   OH248061   5.364   3.208   2.325  0.1237 -0.1041  0.2296
 8857TIP3    H148062   5.413   3.225   2.245  0.4173  1.3154  0.7088
 8857TIP3    H248063   5.340   3.115   2.319 -1.1200  0.3389 -2.1831
 8858TIP3   OH248064   6.182   0.692   1.091 -0.1423  1.0869  0.0729
 8858TIP3    H148065   6.091   0.664   1.091 -0.4930  2.2072  0.2422
 8858TIP3    H248066   6.232   0.611   1.093 -1.1397  0.4811  0.7799
 8859TIP3   OH248067   1.189   6.327  16.628  0.1765 -0.7790  0.7517
 8859TIP3    H148068   1.179   6.238  16.662 -0.4823 -1.3673 -0.9012
 8859TIP3    H248069   1.248   6.318  16.554 -0.9659 -0.0727 -0.2684
 8860TIP3   OH248070   2.625   0.409  12.674 -0.2037 -0.0473  0.2975
 8860TIP3    H148071   2.693   0.419  12.607 -0.5569 -0.2370 -0.0976
 8860TIP3    H248072   2.643   0.477  12.738  0.0556  0.2284 -0.0688
 8861TIP3   OH248073   2.498   3.133   1.708  0.4117  0.4398 -0.1750
 8861TIP3    H148074   2.560   3.066   1.737  0.4607  1.6881  2.7552
 8861TIP3    H248075   2.412   3.090   1.715  0.5945  0.0761 -0.1197
 8862TIP3   OH248076   3.766   5.290  13.887  0.1914  0.5712 -0.0804
 8862TIP3    H148077   3.774   5.229  13.814  0.3938  1.2940 -0.6635
 8862TIP3    H248078   3.793   5.239  13.964  1.4739  0.2778 -0.7250
 8863TIP3   OH248079   0.403   5.239  14.710  0.0355  0.8661 -0.2094
 8863TIP3    H148080   0.477   5.278  14.756  0.1425 -1.4223  1.6292
 8863TIP3    H248081   0.325   5.269  14.757 -0.1925  2.5320 -1.5897
 8864TIP3   OH248082   2.486   5.533   4.149  0.0903 -0.0507  0.5502
 8864TIP3    H148083   2.417   5.555   4.086  2.5115  4.5532 -0.7616
 8864TIP3    H248084   2.529   5.456   4.112  0.3457  1.5137 -2.5721
 8865TIP3   OH248085   0.498   6.189  16.118  0.0706  0.7110  0.0990
 8865TIP3    H148086   0.402   6.187  16.117  0.0597  1.5760 -0.4725
 8865TIP3    H248087   0.520   6.281  16.135  0.7998  0.5010  0.2973
 8866TIP3   OH248088   4.910   0.878   0.836 -0.5589 -0.7886 -0.9112
 8866TIP3    H148089   4.971   0.809   0.808 -0.8015 -1.0542 -0.7850
 8866TIP3    H248090   4.824   0.836   0.837 -0.6568 -0.5848 -0.4772
 8867TIP3   OH248091   4.659   3.579  15.418 -0.6284  0.4280  0.0648
 8867TIP3    H148092   4.629   3.499  15.462 -0.6094  0.2102 -0.3223
 8867TIP3    H248093   4.737   3.551  15.370  1.7272  1.4988  3.0606
 8868TIP3   OH248094   3.156   0.826   1.695  0.1340  0.3962 -0.2305
 8868TIP3    H148095   3.116   0.869   1.620 -1.1250 -0.1820  0.0962
 8868TIP3    H248096   3.188   0.898   1.750 -1.9764  0.9448  0.3236
 8869TIP3   OH248097   6.738   6.426   4.661  0.3277 -0.0184 -0.2012
 8869TIP3    H148098   6.649   6.403   4.689  0.8115 -0.8808  0.6536
 8869TIP3    H248099   6.754   6.370   4.585  0.3034 -0.1600 -0.1008
 8870TIP3   OH248100   6.190   0.019  16.764  0.1798  0.5574  0.3826
 8870TIP3    H148101   6.244   0.081  16.714  0.3839  0.5086  0.5411
 8870TIP3    H248102   6.247  -0.057  16.776 -0.5007 -0.1592 -0.8655
 8871TIP3   OH248103   1.762   0.473   4.780 -0.2454 -0.2693  0.2364
 8871TIP3    H148104   1.706   0.525   4.837  0.8696 -0.0547  1.1738
 8871TIP3    H248105   1.845   0.467   4.828  0.8986  0.4022 -1.6195
 8872TIP3   OH248106   0.034   2.609   6.045  0.2564  0.3506  0.4025
 8872TIP3    H148107   0.106   2.624   6.106 -0.4445  0.6084  1.1705
 8872TIP3    H248108   0.046   2.676   5.977  1.6153 -0.5742 -0.2796
 8873TIP3   OH248109   1.365   1.866  15.497 -0.0873 -0.3198 -0.1743
 8873TIP3    H148110   1.285   1.886  15.545 -0.4128 -1.1038 -0.3748
 8873TIP3    H248111   1.366   1.929  15.425 -0.9247 -0.7783 -0.6048
 8874TIP3   OH248112   4.045   3.291   3.280 -0.5408 -0.3383  0.5833
 8874TIP3    H148113   4.057   3.373   3.328 -0.0748 -0.5550  0.8514
 8874TIP3    H248114   3.987   3.313   3.208  1.5287  0.8106 -0.7927
 8875TIP3   OH248115   5.322   4.025   5.894  0.3783  0.0078  0.5175
 8875TIP3    H148116   5.412   4.017   5.926  0.3256 -0.0102  0.6617
 8875TIP3    H248117   5.296   4.114   5.918  0.3554  0.0107  0.4814
 8876TIP3   OH248118   5.790   5.483  16.377  0.0557 -0.2047 -0.5936
 8876TIP3    H148119   5.745   5.485  16.462 -0.9760 -0.4580 -1.1285
 8876TIP3    H248120   5.864   5.424  16.390  0.6057  0.6883  0.4714
 8877TIP3   OH248121   4.434   1.979   1.376  1.0463 -0.3986 -0.3233
 8877TIP3    H148122   4.446   1.967   1.470 -4.6167 -0.4673  0.6142
 8877TIP3    H248123   4.437   2.074   1.363 -2.5649 -0.0620  0.8101
 8878TIP3   OH248124   0.672   6.392   2.379  0.6522 -0.5384  0.2135
 8878TIP3    H148125   0.691   6.375   2.471  1.4993  2.4995  0.6578
 8878TIP3    H248126   0.743   6.449   2.350 -2.4244  2.9479 -0.8285
 8879TIP3   OH248127   4.783   4.634  15.786 -0.1415 -0.5276  0.1222
 8879TIP3    H148128   4.784   4.538  15.775  1.7246 -0.7609  2.0636
 8879TIP3    H248129   4.849   4.651  15.853 -0.0738  2.1979 -0.5899
 8880TIP3   OH248130   3.645   2.463  17.165 -0.1377  0.4294  0.0526
 8880TIP3    H148131   3.584   2.451  17.092  0.5158  0.9996 -0.6043
 8880TIP3    H248132   3.708   2.528  17.133  0.8237 -0.1622  0.7072
 8881TIP3   OH248133   2.306   1.646   0.226  0.3459 -0.2309 -0.3642
 8881TIP3    H148134   2.217   1.663   0.195  0.7588 -0.0897 -1.4902
 8881TIP3    H248135   2.297   1.571   0.286 -0.9857  1.7810  2.0111
 8882TIP3   OH248136   1.116   5.079   4.046 -0.1052 -0.0109 -0.6324
 8882TIP3    H148137   1.140   5.076   4.139  0.3352 -2.5807 -0.7890
 8882TIP3    H248138   1.199   5.072   3.999 -0.3433  1.0630 -1.2277
 8883TIP3   OH248139   3.155   1.362   0.585  0.0473 -0.0190  0.0648
 8883TIP3    H148140   3.130   1.280   0.543 -2.3576  0.2512  0.8694
 8883TIP3    H248141   3.131   1.351   0.677 -0.4353  1.6090  0.1603
 8884TIP3   OH248142   6.413   2.266   1.565 -0.7317 -0.2745  0.1112
 8884TIP3    H148143   6.334   2.319   1.573 -0.3553  0.2620  0.2766
 8884TIP3    H248144   6.425   2.254   1.471 -0.1672  0.9118  0.0270
 8885TIP3   OH248145   1.062   0.341  14.284  0.0975  0.0906  0.1350
 8885TIP3    H148146   1.065   0.249  14.309 -2.1975  0.3364  1.4156
 8885TIP3    H248147   1.043   0.340  14.190 -2.5851 -0.7460  0.6500
 8886TIP3   OH248148   3.104   2.360  13.489 -0.5780  0.1720  0.6427
 8886TIP3    H148149   3.153   2.292  13.535  1.4693  0.0363 -1.6439
 8886TIP3    H248150   3.075   2.419  13.559  0.0831 -1.4835  2.3749
 8887TIP3   OH248151   4.498   6.462   0.705  0.6767  0.2083  0.3115
 8887TIP3    H148152   4.472   6.518   0.778 -0.8115 -0.2345  0.1283
 8887TIP3    H248153   4.420   6.456   0.650  1.0899 -1.3200 -0.1321
 8888TIP3   OH248154   4.536   0.041  16.245 -0.0655 -0.0428  0.0653
 8888TIP3    H148155   4.482   0.083  16.312 -1.1478  0.3327 -1.0242
 8888TIP3    H248156   4.614   0.096  16.239  0.8751 -1.0776  2.2718
 8889TIP3   OH248157   2.908   4.747  13.454  0.4803  0.9352  0.4339
 8889TIP3    H148158   2.939   4.700  13.377 -1.6834 -0.9321  0.6563
 8889TIP3    H248159   2.959   4.710  13.526  1.1209  1.2986  0.1744
 8890TIP3   OH248160   0.141   0.388   3.347 -0.5291 -0.4857 -0.3104
 8890TIP3    H148161   0.123   0.323   3.415  2.1023  0.4005  1.3250
 8890TIP3    H248162   0.127   0.473   3.390  1.6499  0.0950 -0.6584
 8891TIP3   OH248163   0.389   1.600   0.833 -0.2919 -0.5192 -0.1302
 8891TIP3    H148164   0.346   1.525   0.873  0.7652 -1.1611 -0.1675
 8891TIP3    H248165   0.363   1.675   0.886  0.2447 -1.2096  1.1172
 8892TIP3   OH248166   5.671   0.181   3.525  0.1244  0.8079 -0.4366
 8892TIP3    H148167   5.704   0.121   3.592 -0.2116 -0.2505 -1.2002
 8892TIP3    H248168   5.663   0.265   3.570 -1.3354 -0.1687  1.2263
 8893TIP3   OH248169   4.179   2.876  15.058  0.0780  0.1470 -0.7092
 8893TIP3    H148170   4.151   2.802  15.004  0.1088 -0.5294  0.1813
 8893TIP3    H248171   4.198   2.946  14.996  1.0608 -0.9207 -1.6414
 8894TIP3   OH248172   6.761   1.081  12.987 -0.0396  0.3877 -0.3427
 8894TIP3    H148173   6.755   1.164  12.939  1.9848  0.8883  0.2256
 8894TIP3    H248174   6.788   1.107  13.075 -0.3023 -0.8149  0.0944
 8895TIP3   OH248175   3.825   2.066   1.993  0.4427 -0.1602 -0.5295
 8895TIP3    H148176   3.874   1.993   1.957 -0.7019 -0.8219 -0.7569
 8895TIP3    H248177   3.789   2.032   2.076 -0.1189  0.1258 -0.6536
 8896TIP3   OH248178   3.543   3.552   4.953  0.1088  0.3799  0.3271
 8896TIP3    H148179   3.474   3.610   4.985  2.1440  2.5904  0.8080
 8896TIP3    H248180   3.552   3.486   5.021  1.8315  2.8982  2.6549
 8897TIP3   OH248181   0.508   5.859  12.871  0.0663  0.1887  0.0599
 8897TIP3    H148182   0.550   5.774  12.875 -3.3780 -1.6354 -0.2829
 8897TIP3    H248183   0.466   5.870  12.956  0.7994  1.7129  0.2388
 8898TIP3   OH248184   5.763   1.450   0.739 -0.3526 -0.3330 -0.2988
 8898TIP3    H148185   5.719   1.422   0.658  0.9168 -0.5581 -0.9140
 8898TIP3    H248186   5.694   1.444   0.806 -1.1938 -0.9611 -1.1961
 8899TIP3   OH248187   4.854   4.248   4.515 -0.0196 -0.2632  0.4948
 8899TIP3    H148188   4.871   4.283   4.427  1.2227 -1.3105  0.2937
 8899TIP3    H248189   4.822   4.160   4.499 -0.6622 -0.1299  1.0687
 8900TIP3   OH248190   4.724   4.504  11.987  0.4201  0.3625  0.4179
 8900TIP3    H148191   4.753   4.413  11.977 -0.5055 -0.0981  1.8238
 8900TIP3    H248192   4.778   4.538  12.058 -0.7334  0.2443  1.3676
 8901TIP3   OH248193   4.957   3.345   2.795 -0.7130  0.0130 -0.2883
 8901TIP3    H148194   4.863   3.328   2.806 -0.7081  1.7782  3.1039
 8901TIP3    H248195   4.999   3.277   2.847 -0.2283  1.1126  0.7716
 8902TIP3   OH248196   5.740   0.466  13.778  0.6503  0.6656  0.5844
 8902TIP3    H148197   5.657   0.449  13.823  1.9972 -0.3811  2.7656
 8902TIP3    H248198   5.722   0.542  13.722 -1.2659  1.6683  2.4732
 8903TIP3   OH248199   1.012   6.725  12.629  0.7225  0.0810 -0.1672
 8903TIP3    H148200   1.092   6.673  12.622  0.4548 -0.6408  1.8685
 8903TIP3    H248201   0.951   6.670  12.677 -0.8029  0.8840 -1.1285
 8904TIP3   OH248202   0.193   5.526  11.208  0.0751  0.0738  0.0066
 8904TIP3    H148203   0.141   5.594  11.167  0.9249  0.1282 -0.9921
 8904TIP3    H248204   0.193   5.454  11.146  2.1721  0.5216 -0.5477
 8905TIP3   OH248205   1.879   1.433  13.533  0.5060 -0.2765  0.1058
 8905TIP3    H148206   1.940   1.502  13.559  0.7860 -0.3502 -0.3613
 8905TIP3    H248207   1.935   1.357  13.516  0.2213 -0.5434  0.3582
 8906TIP3   OH248208   2.160   2.869   4.822 -0.1368  0.4134 -0.2162
 8906TIP3    H148209   2.073   2.883   4.858  0.9887  1.6361  2.1215
 8906TIP3    H248210   2.190   2.787   4.860  0.5413  1.0528  0.6561
 8907TIP3   OH248211   5.204   6.171  15.914  0.8798 -0.0676  0.5745
 8907TIP3    H148212   5.266   6.221  15.861  0.2974 -0.4488 -0.4803
 8907TIP3    H248213   5.133   6.148  15.854 -0.6961  1.0384  1.9688
 8908TIP3   OH248214   4.948   0.967  16.311 -0.3821  0.6724  0.2278
 8908TIP3    H148215   4.928   0.974  16.218 -1.1370 -1.4243  0.1987
 8908TIP3    H248216   4.892   0.895  16.342 -0.7165  1.8431  2.4640
 8909TIP3   OH248217   6.249   1.498  14.349 -0.0675  0.7743  0.3402
 8909TIP3    H148218   6.173   1.513  14.293  0.0919 -1.0172 -0.3745
 8909TIP3    H248219   6.244   1.406  14.372  0.4064  1.2580  2.5079
 8910TIP3   OH248220   5.538   5.055  14.264 -0.6957 -0.1696 -0.0173
 8910TIP3    H148221   5.450   5.080  14.236 -0.8165 -0.4341  0.1189
 8910TIP3    H248222   5.585   5.137  14.273 -0.9578 -0.0210  0.0004
 8911TIP3   OH248223   5.102   4.063  15.686  0.0221  0.3739 -0.5085
 8911TIP3    H148224   5.119   4.149  15.723 -1.7788  1.5604 -2.2926
 8911TIP3    H248225   5.008   4.050  15.699  0.3799 -1.6186  0.2931
 8912TIP3   OH248226   0.270   1.046  11.933  0.2005 -0.5095 -0.4282
 8912TIP3    H148227   0.324   1.114  11.893 -1.9355  1.1706 -0.5239
 8912TIP3    H248228   0.304   0.964  11.895  3.8420  0.2904  0.8883
 8913TIP3   OH248229   0.954   1.672  16.088 -0.2339  0.0506 -0.4117
 8913TIP3    H148230   0.998   1.756  16.098  0.7324 -0.3346 -1.3299
 8913TIP3    H248231   1.006   1.611  16.140  0.9289 -0.6088 -2.2989
 8914TIP3   OH248232   4.969   4.167   5.108 -0.0844 -1.0431  0.3637
 8914TIP3    H148233   5.031   4.161   5.036 -2.0299  1.5548 -1.6228
 8914TIP3    H248234   4.889   4.127   5.075 -1.2958  1.0484  0.6623
 8915TIP3   OH248235   1.250   0.308   2.383 -0.4911 -0.2717 -0.3191
 8915TIP3    H148236   1.303   0.382   2.354 -1.0600 -0.5217 -2.0856
 8915TIP3    H248237   1.268   0.300   2.477  0.8816  1.0240 -0.4566
 8916TIP3   OH248238   0.818   3.873  16.798  0.5204  0.3948  0.0779
 8916TIP3    H148239   0.799   3.886  16.705 -1.1033  0.2659  0.3793
 8916TIP3    H248240   0.859   3.787  16.803  2.1310  1.0981 -0.7102
 8917TIP3   OH248241   5.717   0.154   5.001 -0.4352  0.0788 -0.0314
 8917TIP3    H148242   5.621   0.155   5.007 -0.4708 -1.3519 -0.1221
 8917TIP3    H248243   5.745   0.234   5.044 -1.7341  1.1241 -1.0930
 8918TIP3   OH248244   2.898   2.541   5.998  0.2639  0.5284 -0.1152
 8918TIP3    H148245   2.843   2.584   6.064  0.7822  0.8890  0.0870
 8918TIP3    H248246   2.956   2.611   5.966  0.7294  0.1105 -0.1944
 8919TIP3   OH248247   5.642   4.757  13.693 -0.4191 -0.3824  0.1717
 8919TIP3    H148248   5.663   4.705  13.771  0.1960  0.5301  0.6324
 8919TIP3    H248249   5.550   4.739  13.676 -0.9938  0.6229  2.0588
 8920TIP3   OH248250   5.512   6.353   5.225  0.0361 -0.4987 -0.2746
 8920TIP3    H148251   5.605   6.337   5.242 -0.3642 -0.9400  1.5642
 8920TIP3    H248252   5.499   6.445   5.246 -0.2246 -0.7702  0.7652
 8921TIP3   OH248253   3.917   2.965  11.408  0.2683 -0.5867  0.0947
 8921TIP3    H148254   3.875   2.887  11.444  0.2435 -0.5858  0.0678
 8921TIP3    H248255   4.010   2.954  11.428  0.2324 -0.5075  0.3067
 8922TIP3   OH248256   6.451   6.200   5.025  0.7926 -0.4459  0.8622
 8922TIP3    H148257   6.420   6.161   4.944 -3.2214  0.6131  1.7725
 8922TIP3    H248258   6.434   6.132   5.091 -1.5358  0.8458  1.6605
 8923TIP3   OH248259   6.282   4.515   3.825  0.2265 -0.1860  0.3325
 8923TIP3    H148260   6.229   4.442   3.791 -1.3222  0.8237  0.5140
 8923TIP3    H248261   6.233   4.547   3.900  0.9967  0.9131  0.3751
 8924TIP3   OH248262   4.669   5.485  11.584  0.4250  0.2382  0.0620
 8924TIP3    H148263   4.763   5.503  11.583  0.0477  3.1703  4.1564
 8924TIP3    H248264   4.660   5.410  11.644  0.2016 -0.6190 -1.0274
 8925TIP3   OH248265   2.540   4.086   0.091 -0.1252  0.1406  0.2304
 8925TIP3    H148266   2.474   4.152   0.110 -0.4743  0.2257 -1.2050
 8925TIP3    H248267   2.502   4.004   0.121 -0.8937  0.1936 -0.5809
 8926TIP3   OH248268   6.534   0.902   4.310  0.4749 -1.4808  0.8415
 8926TIP3    H148269   6.484   0.975   4.346  3.0660  0.8044  0.0101
 8926TIP3    H248270   6.533   0.916   4.215  3.2919 -0.8887  0.8472
 8927TIP3   OH248271   2.224   4.734   2.762  0.1635 -0.4851  0.5914
 8927TIP3    H148272   2.134   4.766   2.754 -0.3334 -1.6850  1.2875
 8927TIP3    H248273   2.248   4.705   2.674  0.5034  1.4761  0.0229
 8928TIP3   OH248274   0.485   0.249   0.954  0.5788 -0.2170 -0.1559
 8928TIP3    H148275   0.442   0.334   0.954  1.6169  0.3151 -0.3121
 8928TIP3    H248276   0.454   0.206   0.874 -0.4145 -0.2325  0.2349
 8929TIP3   OH248277   1.969   4.796   2.679 -0.3509 -0.0081  0.8828
 8929TIP3    H148278   1.903   4.752   2.732 -1.5079  0.3546 -0.2348
 8929TIP3    H248279   1.978   4.740   2.602  0.6201 -0.0331  1.0136
 8930TIP3   OH248280   4.542   4.722   4.165 -0.3630 -0.0909 -0.0997
 8930TIP3    H148281   4.565   4.723   4.258 -0.5911  1.7299 -0.0393
 8930TIP3    H248282   4.477   4.792   4.156  0.6390  0.6391 -1.8540
 8931TIP3   OH248283   3.633   1.163   1.711  0.0608 -0.0231  0.3841
 8931TIP3    H148284   3.673   1.076   1.707 -1.6522 -0.8734  1.5420
 8931TIP3    H248285   3.670   1.203   1.790  0.3337  0.0673  0.2143
 8932TIP3   OH248286   3.238   1.760   4.891  0.2541  0.1513 -0.3305
 8932TIP3    H148287   3.260   1.849   4.863  0.1611  0.1317 -0.4630
 8932TIP3    H248288   3.190   1.723   4.818 -0.5204  0.3081  0.0913
 8933TIP3   OH248289   5.553   5.577  15.084 -0.2042 -0.2943  0.5516
 8933TIP3    H148290   5.556   5.641  15.154 -0.6039 -0.5001  0.7587
 8933TIP3    H248291   5.623   5.603  15.024 -2.3228  2.1529 -0.9510
 8934TIP3   OH248292   1.758   5.069  16.362 -0.2688  0.5319  0.9562
 8934TIP3    H148293   1.696   5.131  16.400 -1.7268  0.1151 -0.6412
 8934TIP3    H248294   1.833   5.122  16.337 -1.2026  1.5476  0.2697
 8935TIP3   OH248295   2.677   2.063  12.067 -0.3788  0.2185 -0.0778
 8935TIP3    H148296   2.756   2.036  12.113 -0.7400  1.2534  1.1445
 8935TIP3    H248297   2.610   2.069  12.134 -1.7408 -1.4988 -1.2256
 8936TIP3   OH248298   0.070   1.391  10.879 -0.0711 -0.0770 -0.2056
 8936TIP3    H148299   0.077   1.318  10.817  1.4783  1.1748 -1.5505
 8936TIP3    H248300   0.018   1.457  10.832 -3.0320 -0.9789  1.6835
 8937TIP3   OH248301   3.946   6.695  15.608  0.3348  0.7204 -0.4867
 8937TIP3    H148302   4.018   6.676  15.668  0.4756  0.1888 -0.8191
 8937TIP3    H248303   3.982   6.679  15.521  0.1794  1.6402 -0.7270
 8938TIP3   OH248304   3.028   6.595  11.542 -0.3692  0.1381 -0.6225
 8938TIP3    H148305   3.085   6.654  11.492  1.0084 -0.9800 -0.4101
 8938TIP3    H248306   3.078   6.513  11.548 -1.9874 -0.8475 -0.3724
 8939TIP3   OH248307   6.288   2.150   1.068  0.0464 -0.3172 -0.1520
 8939TIP3    H148308   6.242   2.198   1.137 -1.2369 -0.1501 -1.1171
 8939TIP3    H248309   6.234   2.074   1.051 -0.5086  0.4990 -2.1316
 8940TIP3   OH248310   2.330   4.462   5.399  0.0216  0.4848 -0.3911
 8940TIP3    H148311   2.378   4.540   5.372 -0.9902  0.8692 -1.0912
 8940TIP3    H248312   2.292   4.428   5.318 -2.1363  1.0353  0.3635
 8941TIP3   OH248313   6.008   1.714  13.325 -0.0164  0.1095  0.1035
 8941TIP3    H148314   6.028   1.800  13.288 -1.7896  0.4721 -0.0575
 8941TIP3    H248315   6.017   1.653  13.251 -1.5118  0.5468 -0.4455
 8942TIP3   OH248316   3.513   3.231  10.351 -0.3322 -0.6188  0.5755
 8942TIP3    H148317   3.437   3.247  10.295 -0.8756 -0.9270  1.2240
 8942TIP3    H248318   3.546   3.319  10.372 -1.4905 -0.4258  1.6378
 8943TIP3   OH248319   0.820   0.806  15.854  0.4309 -0.1875 -0.5286
 8943TIP3    H148320   0.753   0.837  15.793  1.0842 -1.0328 -1.6884
 8943TIP3    H248321   0.772   0.788  15.935 -0.5931  0.0613 -1.0653
 8944TIP3   OH248322   0.059   1.534   2.092  0.6282  0.2819 -0.2545
 8944TIP3    H148323   0.085   1.626   2.096  0.7505  0.2226  0.4699
 8944TIP3    H248324   0.017   1.517   2.177 -0.9348  0.1224 -1.0407
 8945TIP3   OH248325   4.536   0.048   5.249 -0.0226 -0.0999  0.0956
 8945TIP3    H148326   4.623   0.061   5.211  0.2852  0.9569  1.1522
 8945TIP3    H248327   4.547  -0.026   5.309  0.1963  0.1564  0.3737
 8946TIP3   OH248328   3.004   4.357  13.491 -0.0971  0.0912 -0.1305
 8946TIP3    H148329   3.028   4.328  13.403 -0.5523  0.0438 -0.2420
 8946TIP3    H248330   2.913   4.328  13.501  0.3096 -0.8932  0.7795
 8947TIP3   OH248331   6.163   0.456   5.574 -0.0221 -0.2429 -0.8395
 8947TIP3    H148332   6.142   0.487   5.662 -0.6382 -1.1664 -0.6591
 8947TIP3    H248333   6.094   0.493   5.518 -1.0764 -1.7323 -0.5382
 8948TIP3   OH248334   2.118   0.618  11.005 -0.0194 -0.0629 -0.4874
 8948TIP3    H148335   2.061   0.612  11.082  0.2629  0.6956 -0.2086
 8948TIP3    H248336   2.206   0.608  11.041  0.1679  1.1386 -0.5987
 8949TIP3   OH248337   3.748   0.743  12.633 -0.0913  0.2399 -0.1513
 8949TIP3    H148338   3.659   0.778  12.640  0.0604  1.1565 -2.2947
 8949TIP3    H248339   3.786   0.756  12.719 -1.7540  0.6200  0.5473
 8950TIP3   OH248340   3.673   2.953   2.509 -0.5537 -0.0620 -0.7746
 8950TIP3    H148341   3.619   2.933   2.433  0.2410 -1.8739 -0.9052
 8950TIP3    H248342   3.639   2.896   2.579  0.2564 -0.1654 -0.4583
 8951TIP3   OH248343   6.712   0.410   0.344 -0.2619 -0.3074 -0.0311
 8951TIP3    H148344   6.650   0.469   0.301 -0.9184 -0.9951 -0.0347
 8951TIP3    H248345   6.661   0.332   0.366  0.4416 -0.6091  0.5768
 8952TIP3   OH248346   6.715   1.104   2.348  0.3355 -0.0665 -0.0582
 8952TIP3    H148347   6.811   1.103   2.351  0.3382  0.8600  0.4917
 8952TIP3    H248348   6.692   1.196   2.331 -0.4833  0.1268  1.9068
 8953TIP3   OH248349   4.669   0.073  11.656  0.2563  0.0137 -0.5794
 8953TIP3    H148350   4.583   0.058  11.696  1.2465  0.3925  1.8063
 8953TIP3    H248351   4.680   0.168  11.660  1.3530 -0.1406  0.4125
 8954TIP3   OH248352   0.777   5.210   0.504 -0.3804 -0.0049 -0.6610
 8954TIP3    H148353   0.703   5.180   0.451  0.1721  0.0748 -1.4884
 8954TIP3    H248354   0.737   5.263   0.574 -1.3597 -2.4247  0.6824
 8955TIP3   OH248355   3.904   4.592   5.372 -0.1336 -0.1388  0.0186
 8955TIP3    H148356   3.962   4.570   5.445 -0.7296 -2.3756 -0.1521
 8955TIP3    H248357   3.821   4.618   5.414 -0.0894 -0.2277  0.1587
 8956TIP3   OH248358   1.549   4.738  12.024  0.9208  0.7236  0.4563
 8956TIP3    H148359   1.460   4.715  12.051  1.0697 -2.4470 -1.5194
 8956TIP3    H248360   1.559   4.829  12.049 -1.5203  0.0521  4.2519
 8957TIP3   OH248361   1.084   0.735   2.236  0.8590 -0.0502  0.5298
 8957TIP3    H148362   0.999   0.730   2.279 -0.8361  0.9408 -2.5641
 8957TIP3    H248363   1.105   0.829   2.235  1.7830 -0.2449  0.8426
 8958TIP3   OH248364   1.300   0.742   6.430  0.1377  0.2112  0.0520
 8958TIP3    H148365   1.354   0.802   6.378  2.0744 -0.3610  1.3418
 8958TIP3    H248366   1.276   0.791   6.508 -0.7431  0.2648 -0.2431
 8959TIP3   OH248367   2.023   0.584   5.303  0.5417  0.3768  0.2539
 8959TIP3    H148368   1.972   0.593   5.383  0.1192 -1.1527  0.1711
 8959TIP3    H248369   2.096   0.527   5.327 -1.2957 -2.7085 -1.1783
 8960TIP3   OH248370   2.372   3.521   5.414  0.0721 -0.6841 -0.8400
 8960TIP3    H148371   2.466   3.505   5.413  0.1799 -0.1779  0.1886
 8960TIP3    H248372   2.361   3.596   5.473 -0.8327  0.2089 -2.1293
 8961TIP3   OH248373   2.557   6.232   4.346 -0.5468  0.7320  0.3510
 8961TIP3    H148374   2.490   6.166   4.327  1.0134 -0.6764 -0.3772
 8961TIP3    H248375   2.557   6.289   4.270 -0.8201  0.6747  0.3041
 8962TIP3   OH248376   1.222   5.843  11.993  0.6208 -0.0263 -0.1457
 8962TIP3    H148377   1.289   5.887  11.939 -0.2743  1.7293  0.1398
 8962TIP3    H248378   1.154   5.909  12.006 -0.4913 -1.3218  0.8178
 8963TIP3   OH248379   2.275   1.243  14.919  0.0481  0.3005  0.2352
 8963TIP3    H148380   2.300   1.297  14.844 -1.7735  1.7074  0.5896
 8963TIP3    H248381   2.180   1.231  14.909  0.0320 -0.7943  1.4838
 8964TIP3   OH248382   0.034   4.676  14.828  0.0464 -0.0005 -0.6744
 8964TIP3    H148383   0.129   4.685  14.840 -0.0309  0.6495 -0.5394
 8964TIP3    H248384   0.007   4.759  14.791 -0.4005 -0.3664 -1.1768
 8965TIP3   OH248385   6.536   3.994  11.682  0.2108  0.9293  0.1834
 8965TIP3    H148386   6.452   3.983  11.639  0.8006 -0.3369 -0.6759
 8965TIP3    H248387   6.515   3.994  11.776 -0.6310 -0.3517 -0.0005
 8966TIP3   OH248388   0.681   5.921   3.263  0.2922  0.2273  0.1494
 8966TIP3    H148389   0.682   5.921   3.359  1.3949  0.2462  0.1374
 8966TIP3    H248390   0.588   5.920   3.241  0.0335 -0.4342  1.2170
 8967TIP3   OH248391   1.570   6.570   0.511 -0.2678  0.7015  0.1584
 8967TIP3    H148392   1.604   6.657   0.529 -0.7605  0.9302 -0.0070
 8967TIP3    H248393   1.513   6.581   0.435 -0.3311  0.2384  0.1335
 8968TIP3   OH248394   0.252   1.126   1.625  0.0130 -0.4060  0.3122
 8968TIP3    H148395   0.228   1.055   1.685 -2.1508  1.1660  1.3952
 8968TIP3    H248396   0.184   1.192   1.639  0.9827  1.1192 -1.9696
 8969TIP3   OH248397   5.529   2.286  14.112  0.6767  0.5077  0.7156
 8969TIP3    H148398   5.440   2.312  14.135  0.6228 -0.2138  1.3713
 8969TIP3    H248399   5.537   2.304  14.018  0.3172  1.8965  0.9417
 8970TIP3   OH248400   6.671   5.432  11.920 -0.4309 -0.5503 -0.2629
 8970TIP3    H148401   6.725   5.511  11.925  0.3628 -1.0827 -0.3476
 8970TIP3    H248402   6.621   5.442  11.839  0.1831 -0.4560 -0.6361
 8971TIP3   OH248403   1.233   6.355   5.662 -0.0257 -0.2001  0.5507
 8971TIP3    H148404   1.256   6.434   5.711  1.1324 -0.7009  0.8527
 8971TIP3    H248405   1.188   6.300   5.726 -3.7784  1.4949 -0.4932
 8972TIP3   OH248406   0.300   6.030  13.115 -0.6830 -0.0127 -0.0249
 8972TIP3    H148407   0.240   5.964  13.080 -0.3817 -0.4200  0.2110
 8972TIP3    H248408   0.270   6.113  13.078 -0.2412 -0.4644 -1.3988
 8973TIP3   OH248409   2.151   6.106  16.166  0.4851  0.1182  0.2800
 8973TIP3    H148410   2.244   6.126  16.151  0.0127  1.2847 -1.2906
 8973TIP3    H248411   2.121   6.175  16.224  0.0312  1.1888 -1.1952
 8974TIP3   OH248412   5.150   2.294   1.293 -0.1025 -0.4044 -0.4797
 8974TIP3    H148413   5.164   2.362   1.359  0.2559 -2.5210  1.6549
 8974TIP3    H248414   5.056   2.301   1.273 -0.0624  0.7515 -0.3394
 8975TIP3   OH248415   4.568   5.495  16.824 -0.4326 -0.2161 -0.5780
 8975TIP3    H148416   4.620   5.517  16.746 -0.2850 -1.2375 -0.7662
 8975TIP3    H248417   4.594   5.406  16.846 -1.7270 -0.5444 -0.3538
 8976TIP3   OH248418   2.759   6.627   4.075  0.8230 -0.2052  0.7915
 8976TIP3    H148419   2.773   6.629   3.981 -0.7825  0.6172  0.5502
 8976TIP3    H248420   2.764   6.534   4.099 -0.9711 -0.6572 -0.4762
 8977TIP3   OH248421   0.156   5.401   4.872  0.2720  0.5789 -0.0693
 8977TIP3    H148422   0.198   5.410   4.957  3.1593 -1.2645 -1.2171
 8977TIP3    H248423   0.228   5.412   4.809 -1.5833  0.6606 -2.2177
 8978TIP3   OH248424   1.257   1.175  12.231 -0.6860 -0.1377  0.0026
 8978TIP3    H148425   1.236   1.112  12.299  0.4793 -0.3873  0.1468
 8978TIP3    H248426   1.272   1.121  12.153 -1.4604  0.1020 -0.3124
 8979TIP3   OH248427   4.469   2.949   3.890 -0.0394 -0.7003  0.2037
 8979TIP3    H148428   4.437   2.884   3.828 -0.5008 -0.4749  0.2039
 8979TIP3    H248429   4.545   2.908   3.931  0.3206 -0.8172 -0.5727
 8980TIP3   OH248430   3.251   5.392  16.132  0.7953  0.5294 -0.2210
 8980TIP3    H148431   3.265   5.297  16.137 -1.0615  0.1063 -2.4031
 8980TIP3    H248432   3.222   5.417  16.219  4.4204 -0.3362  1.3257
 8981TIP3   OH248433   5.865   3.642   4.238 -0.1232 -0.0153  0.4134
 8981TIP3    H148434   5.770   3.647   4.223  0.0306 -1.7360 -1.3024
 8981TIP3    H248435   5.902   3.704   4.175  0.0397 -1.3564 -0.8309
 8982TIP3   OH248436   0.134   6.092   3.293 -0.0121  0.2566 -0.4364
 8982TIP3    H148437   0.215   6.095   3.242  1.4683 -0.1140  1.8724
 8982TIP3    H248438   0.108   6.184   3.301  1.3527  0.5722  0.6217
 8983TIP3   OH248439   1.155   6.520  17.115 -0.4705  0.2487  0.0581
 8983TIP3    H148440   1.189   6.478  17.036  2.2244  0.7749  0.8673
 8983TIP3    H248441   1.163   6.453  17.183 -3.1410 -0.3323 -0.1653
 8984TIP3   OH248442   6.169   6.431  13.262  0.3885  0.3696 -0.0881
 8984TIP3    H148443   6.126   6.346  13.261 -2.0927  1.5833  0.0540
 8984TIP3    H248444   6.195   6.443  13.354  2.5649 -1.0770 -0.4761
 8985TIP3   OH248445   1.203   0.919   6.614 -0.0838 -0.0743 -0.3562
 8985TIP3    H148446   1.115   0.901   6.647  0.1661  0.3412  0.5498
 8985TIP3    H248447   1.240   0.981   6.677  0.1703  1.2326 -1.7449
 8986TIP3   OH248448   1.407   3.704   4.378  0.0488 -0.7196  0.0800
 8986TIP3    H148449   1.473   3.638   4.400 -0.8738 -1.5770  0.3651
 8986TIP3    H248450   1.333   3.684   4.437 -0.9395 -0.5792 -1.0953
 8987TIP3   OH248451   4.494   1.308  16.466  0.6869 -0.3208 -0.5336
 8987TIP3    H148452   4.504   1.215  16.447  0.8897 -0.8586  2.0709
 8987TIP3    H248453   4.554   1.326  16.538 -1.5148  1.1238  1.0382
 8988TIP3   OH248454   0.909   0.704  17.146  0.0134 -0.2446  0.2152
 8988TIP3    H148455   0.987   0.654  17.170  1.5787  1.2148 -1.6761
 8988TIP3    H248456   0.931   0.795  17.166 -0.5969  0.3641 -1.7706
 8989TIP3   OH248457   4.813   6.810  13.963  0.3970  0.3331 -0.6453
 8989TIP3    H148458   4.823   6.905  13.974 -2.9515  0.6081  0.6403
 8989TIP3    H248459   4.839   6.793  13.873 -1.7157  2.9429 -1.8034
 8990TIP3   OH248460   3.252   3.070  11.250 -0.5449  0.5237 -0.4841
 8990TIP3    H148461   3.205   3.149  11.276 -0.4942  0.1910  0.6405
 8990TIP3    H248462   3.335   3.101  11.213 -0.2128  0.9575  0.6285
 8991TIP3   OH248463   4.944   0.990   4.348 -0.0966 -0.2624 -0.0473
 8991TIP3    H148464   4.985   1.063   4.300  0.4722 -0.8392 -0.4473
 8991TIP3    H248465   4.853   0.992   4.320  0.1744 -0.4302 -0.9617
 8992TIP3   OH248466   5.597   4.948   6.542 -0.0417  0.2880 -0.2338
 8992TIP3    H148467   5.669   4.886   6.532 -0.3298 -0.2143  0.8118
 8992TIP3    H248468   5.537   4.926   6.470  0.2310 -0.1224 -0.3381
 8993TIP3   OH248469   2.139   6.515  13.374 -0.1792  0.4540 -0.0871
 8993TIP3    H148470   2.134   6.434  13.325  0.7172  0.1192  0.3636
 8993TIP3    H248471   2.228   6.547  13.360  0.6632 -0.5399  2.6781
 8994TIP3   OH248472   2.798   5.281   2.927 -0.2511 -0.1536 -0.1488
 8994TIP3    H148473   2.817   5.374   2.939 -0.2550 -0.0738 -0.7780
 8994TIP3    H248474   2.715   5.268   2.973  0.2919 -0.0788  0.8748
 8995TIP3   OH248475   0.398   3.088  11.448 -0.0077  0.2481 -0.5250
 8995TIP3    H148476   0.467   3.026  11.471 -0.6939  0.6475  2.9526
 8995TIP3    H248477   0.444   3.167  11.421  0.9790  0.5486  1.8711
 8996TIP3   OH248478   0.811   3.587   0.167 -0.0503  0.3439 -0.2106
 8996TIP3    H148479   0.826   3.525   0.095  0.3622  0.7153 -0.4491
 8996TIP3    H248480   0.837   3.672   0.131  0.9324  0.4179  0.6320
 8997TIP3   OH248481   0.861   4.162   2.187 -0.0614 -0.0150 -0.0797
 8997TIP3    H148482   0.878   4.168   2.281 -0.4604 -1.0201  0.0615
 8997TIP3    H248483   0.931   4.214   2.147  0.1492  0.3604  0.7678
 8998TIP3   OH248484   0.195   1.146   1.004  0.1420  0.3193  0.8551
 8998TIP3    H148485   0.100   1.139   0.997  0.4147 -0.7498 -2.1774
 8998TIP3    H248486   0.225   1.058   1.024  0.5665  0.5457  1.2401
 8999TIP3   OH248487   0.350   3.305  14.131  0.2009  0.0368 -0.5747
 8999TIP3    H148488   0.390   3.220  14.150  0.2411  0.5322  1.7498
 8999TIP3    H248489   0.281   3.314  14.196 -3.2613 -0.4337 -4.0052
 9000TIP3   OH248490   4.310   2.492  12.322  0.6686  0.0187  0.3325
 9000TIP3    H148491   4.263   2.419  12.283  0.3805 -0.0846  0.8678
 9000TIP3    H248492   4.378   2.451  12.376 -0.6761  0.0832  2.1341
 9001TIP3   OH248493   1.248   6.130  15.374 -0.0411  0.0789 -0.1207
 9001TIP3    H148494   1.323   6.151  15.430 -0.0715 -1.0996  0.3674
 9001TIP3    H248495   1.260   6.038  15.350 -1.3729 -0.1569  0.0440
 9002TIP3   OH248496   5.451   1.740  11.698 -0.3047  0.7566  0.3433
 9002TIP3    H148497   5.410   1.755  11.783 -1.6218  1.5662 -0.4255
 9002TIP3    H248498   5.477   1.648  11.700 -2.7352  0.0435  0.6071
 9003TIP3   OH248499   2.555   0.362   3.885 -0.0291  0.2146  0.3601
 9003TIP3    H148500   2.634   0.385   3.933 -0.3640  0.7333  0.6723
 9003TIP3    H248501   2.568   0.400   3.798  0.3797 -0.3302  0.1810
 9004TIP3   OH248502   1.823   3.222  13.844 -0.5263 -0.0572  0.7129
 9004TIP3    H148503   1.869   3.139  13.854  0.7069  0.5377  0.1494
 9004TIP3    H248504   1.733   3.203  13.868 -0.8125 -2.1709 -1.7708
 9005TIP3   OH248505   4.126   1.292   3.772  0.9636  0.0004 -0.1869
 9005TIP3    H148506   4.175   1.330   3.699 -1.2370  0.2774 -1.5711
 9005TIP3    H248507   4.120   1.199   3.750 -0.6126  0.2616 -0.9250
 9006TIP3   OH248508   5.271   4.548   3.178 -0.5243  0.1006 -0.3533
 9006TIP3    H148509   5.215   4.475   3.151 -0.5839  0.1938 -0.4841
 9006TIP3    H248510   5.354   4.507   3.204 -0.8782 -0.0963  0.4746
 9007TIP3   OH248511   2.577   1.788  16.292 -0.1264  0.3013  0.2448
 9007TIP3    H148512   2.596   1.776  16.385  3.8211  2.5131 -0.1691
 9007TIP3    H248513   2.598   1.704  16.251 -0.4936 -0.2262  1.1284
 9008TIP3   OH248514   1.104   2.204   4.514  0.3603 -0.0028 -0.0840
 9008TIP3    H148515   1.047   2.243   4.447 -0.6818  1.1175  1.4369
 9008TIP3    H248516   1.171   2.270   4.530  0.0940  0.0875  0.6357
 9009TIP3   OH248517   6.745   6.187   2.037 -0.3083 -0.0056 -0.2489
 9009TIP3    H148518   6.767   6.099   2.066  0.1079  0.2620  0.2799
 9009TIP3    H248519   6.820   6.240   2.064 -0.2421  0.3895 -1.1832
 9010TIP3   OH248520   0.584   4.211  13.010 -0.5651 -0.1423  0.1936
 9010TIP3    H148521   0.604   4.304  12.999 -1.9059 -0.0761 -2.2267
 9010TIP3    H248522   0.644   4.181  13.078  0.4240  2.3175  0.4650
 9011TIP3   OH248523   4.212   1.938   5.097  0.4565  0.1439  0.1833
 9011TIP3    H148524   4.300   1.969   5.075  0.2329  0.6728  0.0217
 9011TIP3    H248525   4.153   2.003   5.059 -0.0504 -0.8305 -0.7298
 9012TIP3   OH248526   0.350   3.583   3.780  0.2827  0.3481 -0.2341
 9012TIP3    H148527   0.386   3.496   3.763  1.1453  0.8649 -1.0413
 9012TIP3    H248528   0.285   3.596   3.711 -2.6454 -1.2294  2.1139
 9013TIP3   OH248529   3.519   6.048  16.346  0.3789 -0.0261  0.3478
 9013TIP3    H148530   3.446   6.087  16.395  0.5953 -2.7215  2.9494
 9013TIP3    H248531   3.590   6.112  16.354 -1.3319  2.1976 -1.4135
 9014TIP3   OH248532   5.404   0.840  15.123  0.4229  0.4260 -0.4516
 9014TIP3    H148533   5.364   0.845  15.210  0.3601 -1.9530 -0.3012
 9014TIP3    H248534   5.391   0.927  15.085 -1.4739  0.8430  1.0909
 9015TIP3   OH248535   1.654   3.254   6.479 -0.2273  0.2587  0.1029
 9015TIP3    H148536   1.725   3.192   6.460 -0.6154 -0.7383  1.8563
 9015TIP3    H248537   1.698   3.339   6.485  0.7841 -0.3192  0.9816
 9016TIP3   OH248538   0.668   0.407   2.302  0.2223  0.2930  0.2633
 9016TIP3    H148539   0.620   0.385   2.382  0.7922 -1.1678  0.2093
 9016TIP3    H248540   0.754   0.435   2.333  1.0026 -1.8467  0.0842
 9017TIP3   OH248541   4.980   3.371   1.870 -0.1028 -0.5367 -0.0054
 9017TIP3    H148542   4.891   3.359   1.835 -0.3071 -0.5197  0.5012
 9017TIP3    H248543   5.032   3.400   1.795 -0.8426  0.8823  0.0320
 9018TIP3   OH248544   0.508   5.839  13.153 -0.1517 -0.2979 -0.0617
 9018TIP3    H148545   0.514   5.785  13.232  2.6402  2.1394  1.4679
 9018TIP3    H248546   0.436   5.900  13.171 -0.6287 -0.8358 -0.1230
 9019TIP3   OH248547   6.317   6.318  15.271  0.0425 -0.3068  0.3730
 9019TIP3    H148548   6.284   6.337  15.183 -1.4366  0.3246  1.0335
 9019TIP3    H248549   6.301   6.224  15.282  1.1509 -0.5940 -0.3928
 9020TIP3   OH248550   3.736   3.645   6.651 -0.1715 -0.4404 -0.4747
 9020TIP3    H148551   3.641   3.651   6.663  0.1623  1.9326  1.3259
 9020TIP3    H248552   3.769   3.613   6.735  0.7683  0.4946 -0.4741
 9021TIP3   OH248553   1.480   5.796  13.624  0.8970 -0.4615  0.1105
 9021TIP3    H148554   1.531   5.877  13.625 -0.9042  0.7071  2.2943
 9021TIP3    H248555   1.410   5.813  13.561 -0.1634  0.1548  1.4300
 9022TIP3   OH248556   4.821   4.470  11.042 -0.4649 -0.1664 -0.3456
 9022TIP3    H148557   4.858   4.382  11.031 -2.0627 -0.7365 -1.3348
 9022TIP3    H248558   4.792   4.473  11.133  1.2507 -0.0088  0.2029
 9023TIP3   OH248559   2.433   2.745   0.566 -0.1373  0.6223 -0.5176
 9023TIP3    H148560   2.419   2.771   0.657 -1.1607 -0.5352 -0.3306
 9023TIP3    H248561   2.388   2.811   0.514 -0.2887  0.8003 -0.1596
 9024TIP3   OH248562   2.596   2.899  13.697  0.1263 -0.0267 -0.5826
 9024TIP3    H148563   2.634   2.823  13.653  2.9180  0.5953  0.6152
 9024TIP3    H248564   2.637   2.899  13.784 -0.2921  2.4864 -0.3486
 9025TIP3   OH248565   5.277   1.441  13.257 -0.0561  0.2720 -0.2083
 9025TIP3    H148566   5.346   1.485  13.208 -0.0204  1.0290  0.5142
 9025TIP3    H248567   5.295   1.462  13.349  0.2244 -1.6321  0.1895
 9026TIP3   OH248568   4.396   3.211  14.634 -0.4596  0.4062  0.0774
 9026TIP3    H148569   4.491   3.203  14.646 -0.6539 -0.2194  1.2870
 9026TIP3    H248570   4.386   3.273  14.562  0.8844 -0.1113 -0.5761
 9027TIP3   OH248571   3.876   3.986  15.563  0.1296 -0.2980 -0.5264
 9027TIP3    H148572   3.897   4.076  15.587  1.1767 -0.7275  0.2257
 9027TIP3    H248573   3.934   3.967  15.488 -0.0102 -0.3791 -0.6149
 9028TIP3   OH248574   1.399   2.664   1.465 -0.6849  0.9691 -0.0142
 9028TIP3    H148575   1.409   2.582   1.514 -1.2054  1.7653  1.4240
 9028TIP3    H248576   1.316   2.654   1.418 -0.4467  0.4315 -0.3329
 9029TIP3   OH248577   5.972   3.191  15.032  0.4052  0.1400  0.0365
 9029TIP3    H148578   5.892   3.212  14.985  1.0252  0.7000 -0.7881
 9029TIP3    H248579   6.037   3.174  14.963  1.2542  0.7018  0.6847
 9030TIP3   OH248580   3.245   1.805  14.037  0.1149  0.1906 -0.6450
 9030TIP3    H148581   3.303   1.878  14.060 -0.3775 -0.3460  2.4124
 9030TIP3    H248582   3.164   1.847  14.008  0.8632  0.8867 -1.7650
 9031TIP3   OH248583   0.755   5.483   5.102 -0.4865  0.2110  0.5180
 9031TIP3    H148584   0.768   5.554   5.039  0.9412  0.3643  0.9898
 9031TIP3    H248585   0.832   5.427   5.091 -1.4627 -1.1248  0.3471
 9032TIP3   OH248586   0.329   6.781   1.073 -0.2798 -0.0431 -0.1218
 9032TIP3    H148587   0.269   6.850   1.041  0.0692  0.1841 -0.2892
 9032TIP3    H248588   0.416   6.814   1.052 -0.1575 -1.1167 -1.3880
 9033TIP3   OH248589   5.461   3.980  12.501  0.1140  0.1300  0.4153
 9033TIP3    H148590   5.442   4.029  12.420  1.3532 -1.3645 -0.8190
 9033TIP3    H248591   5.554   3.997  12.517  1.1409 -3.5479 -1.2708
 9034TIP3   OH248592   2.443   1.291  12.558 -0.2496 -0.1522  0.6070
 9034TIP3    H148593   2.425   1.233  12.484  0.2005  0.1131  0.2814
 9034TIP3    H248594   2.532   1.268  12.585  0.0390  0.5732  0.2939
 9035TIP3   OH248595   1.394   5.292   4.532  0.8838  0.4178 -0.8173
 9035TIP3    H148596   1.365   5.202   4.519  1.8421 -0.0884  0.4807
 9035TIP3    H248597   1.393   5.304   4.627 -2.2859  2.8022 -1.0446
 9036TIP3   OH248598   6.583   5.684   3.648 -0.2964  0.3010 -0.5251
 9036TIP3    H148599   6.573   5.744   3.721 -1.5210  1.2305 -1.4468
 9036TIP3    H248600   6.567   5.737   3.570  0.8485 -0.6999 -1.4772
 9037TIP3   OH248601   0.302   2.942  14.030  0.1876 -0.4278  0.0580
 9037TIP3    H148602   0.227   2.937  14.089  1.2878 -0.9448  1.4441
 9037TIP3    H248603   0.264   2.941  13.942 -1.4478 -0.1495  0.7431
 9038TIP3   OH248604   4.653   5.414   0.736 -0.0673 -0.5060 -0.0743
 9038TIP3    H148605   4.735   5.406   0.786  0.4048 -0.2324 -0.7903
 9038TIP3    H248606   4.682   5.441   0.649 -0.9006 -0.7818 -0.4326
 9039TIP3   OH248607   4.620   6.013  14.166 -0.9223 -0.3744 -0.5752
 9039TIP3    H148608   4.597   5.980  14.253  0.6806  3.3620  1.3721
 9039TIP3    H248609   4.712   5.992  14.155 -0.7087  0.5877 -0.6689
 9040TIP3   OH248610   4.894   5.762   5.400 -0.2094 -0.0888  0.8622
 9040TIP3    H148611   4.932   5.674   5.393 -0.2875 -0.1244  0.8790
 9040TIP3    H248612   4.897   5.781   5.494  0.2887  0.1428  0.8030
 9041TIP3   OH248613   3.541   1.223   4.077  0.0888 -0.2043 -0.2974
 9041TIP3    H148614   3.455   1.251   4.045 -0.8516 -1.1634  1.3502
 9041TIP3    H248615   3.602   1.290   4.045 -1.5879  1.6926  0.4103
 9042TIP3   OH248616   5.523   1.732   1.064 -0.0781  0.9236 -0.4620
 9042TIP3    H148617   5.438   1.736   1.020 -0.0817  1.8212 -0.3805
 9042TIP3    H248618   5.553   1.823   1.068 -0.2928  0.9393  1.7713
 9043TIP3   OH248619   6.710   5.548   2.581 -0.1133  0.1273  0.0098
 9043TIP3    H148620   6.698   5.624   2.638  1.3244 -0.9582  1.8254
 9043TIP3    H248621   6.670   5.475   2.629  0.2956 -0.6366 -0.7928
 9044TIP3   OH248622   5.651   5.622   0.537 -0.4319 -0.4387 -0.0030
 9044TIP3    H148623   5.692   5.690   0.590  0.4582 -1.0659  0.1190
 9044TIP3    H248624   5.634   5.550   0.598  1.3537 -1.4910 -0.7042
 9045TIP3   OH248625   3.899   1.689  14.117  0.3320  0.0490  0.0316
 9045TIP3    H148626   3.922   1.670  14.208  1.0465 -0.3435 -0.2244
 9045TIP3    H248627   3.864   1.606  14.084 -1.5388  0.6541  0.4336
 9046TIP3   OH248628   1.626   5.988  13.511  0.2038 -0.0669  0.3612
 9046TIP3    H148629   1.579   5.986  13.427 -1.8343  1.7157  1.4342
 9046TIP3    H248630   1.717   6.005  13.486 -0.1974 -0.5846 -1.5619
 9047TIP3   OH248631   2.073   6.090   6.087  0.2702  1.1636  0.0974
 9047TIP3    H148632   1.992   6.051   6.120 -0.9004  1.5462 -2.2256
 9047TIP3    H248633   2.051   6.182   6.073  0.9610  1.1806 -0.9458
 9048TIP3   OH248634   6.190   4.088  15.078 -0.2879 -0.1142  0.3929
 9048TIP3    H148635   6.276   4.083  15.035 -0.6919 -1.4416 -0.2925
 9048TIP3    H248636   6.209   4.071  15.170  0.1779 -0.5364  0.2263
 9049TIP3   OH248637   4.882   3.051   1.895  0.6167 -0.0421  0.0085
 9049TIP3    H148638   4.958   3.086   1.941  1.4364  0.0750 -1.4109
 9049TIP3    H248639   4.881   3.097   1.811 -1.0208 -0.0403 -0.0008
 9050TIP3   OH248640   3.829   5.219   0.345 -0.2054 -0.2323 -0.2844
 9050TIP3    H148641   3.762   5.287   0.339  0.5455  0.5954  0.5622
 9050TIP3    H248642   3.790   5.152   0.402 -0.7685 -0.3021 -0.7481
 9051TIP3   OH248643   0.807   4.242  12.517 -0.1594  0.7448  0.0741
 9051TIP3    H148644   0.791   4.186  12.593  1.3807 -1.5085 -1.2040
 9051TIP3    H248645   0.900   4.265  12.524  0.3367 -0.5693 -1.7904
 9052TIP3   OH248646   2.978   1.948   5.452  0.2626 -0.0609  1.0981
 9052TIP3    H148647   2.899   1.897   5.436  1.0087 -0.7525 -0.5111
 9052TIP3    H248648   2.998   1.989   5.368  0.5102  1.6962  1.9905
 9053TIP3   OH248649   6.639   4.851   5.366 -0.0984 -0.5847 -0.0304
 9053TIP3    H148650   6.711   4.915   5.358  1.1486 -1.9479  0.0822
 9053TIP3    H248651   6.577   4.893   5.426  0.0769  1.0732 -0.9604
 9054TIP3   OH248652   5.690   6.221  13.017 -0.3382  0.5657 -0.0002
 9054TIP3    H148653   5.622   6.248  13.079  1.2614  1.0052  1.5884
 9054TIP3    H248654   5.748   6.165  13.067  1.4081  1.5313 -0.8921
 9055TIP3   OH248655   5.635   6.464  13.788 -0.2375  0.1851 -0.2266
 9055TIP3    H148656   5.730   6.449  13.791 -0.6811 -3.3097 -1.8356
 9055TIP3    H248657   5.608   6.464  13.880  1.3827  2.1283  0.3111
 9056TIP3   OH248658   6.614   5.242  15.769 -0.0575 -0.2147  0.5152
 9056TIP3    H148659   6.593   5.335  15.768 -0.9757 -0.3729  2.3226
 9056TIP3    H248660   6.534   5.198  15.743  0.1885 -0.5210  0.2696
 9057TIP3   OH248661   6.050   0.976   2.072 -0.0893  0.6583 -0.1645
 9057TIP3    H148662   6.063   0.910   2.003 -1.2646 -1.3236  1.4604
 9057TIP3    H248663   6.042   1.059   2.025  0.4939 -0.4717 -2.3229
 9058TIP3   OH248664   1.732   1.096   0.433 -0.7990  0.1391 -0.3314
 9058TIP3    H148665   1.754   1.162   0.368 -0.6024  1.6728  1.2366
 9058TIP3    H248666   1.700   1.147   0.508 -2.7100 -1.6692  0.1165
 9059TIP3   OH248667   4.732   2.651   1.361  0.1187 -0.5797  0.0533
 9059TIP3    H148668   4.679   2.709   1.307  1.0141  0.1562 -0.0631
 9059TIP3    H248669   4.687   2.648   1.446  1.7424  2.8924  1.1220
 9060TIP3   OH248670   6.116   5.067   2.474 -0.0094 -0.2329 -0.1768
 9060TIP3    H148671   6.067   5.064   2.556  1.7195 -2.2079  0.8162
 9060TIP3    H248672   6.113   5.159   2.448 -2.6702 -0.0020  0.7831
 9061TIP3   OH248673   0.150   2.492   4.055 -0.1085  0.0574  0.1288
 9061TIP3    H148674   0.207   2.423   4.091  1.0248  0.2624 -1.2329
 9061TIP3    H248675   0.153   2.478   3.960  0.1987  2.0126 -0.1722
 9062TIP3   OH248676   3.731   6.263   3.666  0.1274  0.4681  0.2314
 9062TIP3    H148677   3.708   6.208   3.592  0.1890  2.1463 -1.0748
 9062TIP3    H248678   3.670   6.237   3.736  0.5871 -1.6592 -0.1298
 9063TIP3   OH248679   5.322   4.193  17.182  0.3117  0.4663  0.2955
 9063TIP3    H148680   5.301   4.273  17.230 -0.9605  0.2379  0.1407
 9063TIP3    H248681   5.332   4.126  17.250 -1.4071  0.1607  0.2848
 9064TIP3   OH248682   0.576   2.911  11.560 -0.3888  0.3604  0.6944
 9064TIP3    H148683   0.645   2.961  11.604  0.2098 -0.0228  0.2035
 9064TIP3    H248684   0.600   2.820  11.576 -1.7519  0.2260  2.0163
 9065TIP3   OH248685   5.459   3.461   0.783 -0.6214 -0.3721  0.3449
 9065TIP3    H148686   5.483   3.551   0.763 -1.6974 -0.3097 -0.7086
 9065TIP3    H248687   5.524   3.432   0.847  1.0024  0.4512 -0.9069
 9066TIP3   OH248688   1.191   1.106  15.944  0.6390 -0.3219 -0.4771
 9066TIP3    H148689   1.237   1.186  15.970  0.6572  0.3969 -2.5685
 9066TIP3    H248690   1.259   1.052  15.903  0.2093 -0.4790 -0.9868
 9067TIP3   OH248691   3.112   0.799  13.005 -0.0382  0.0103  0.0980
 9067TIP3    H148692   3.105   0.836  12.918 -0.3406 -0.8909 -0.2671
 9067TIP3    H248693   3.023   0.773  13.028  0.0779  0.0134  0.5777
 9068TIP3   OH248694   2.900   2.156  12.370  0.1914  0.3551  0.3857
 9068TIP3    H148695   2.970   2.102  12.406 -0.2101 -0.0267  0.6112
 9068TIP3    H248696   2.910   2.150  12.275  0.7165  0.6432  0.4234
 9069TIP3   OH248697   6.105   4.400  15.504 -0.8618  0.3879  0.0443
 9069TIP3    H148698   6.178   4.432  15.451 -1.1080  1.0935  0.1370
 9069TIP3    H248699   6.046   4.359  15.441 -0.5192  0.0570 -0.0641
 9070TIP3   OH248700   1.278   0.419   6.104  0.4575  0.3055  0.3435
 9070TIP3    H148701   1.338   0.358   6.147 -2.5368 -1.5357  2.0675
 9070TIP3    H248702   1.236   0.466   6.176 -1.4947  0.2561 -0.7319
 9071TIP3   OH248703   1.578   5.589  14.472  0.3447  0.4665 -0.0067
 9071TIP3    H148704   1.618   5.673  14.496 -0.1539  0.2737  1.5883
 9071TIP3    H248705   1.484   5.603  14.484  0.0476  0.3695 -1.9904
 9072TIP3   OH248706   2.687   5.246   0.558 -0.0125 -0.1962  0.7334
 9072TIP3    H148707   2.768   5.206   0.525 -0.7095  0.4839 -1.9789
 9072TIP3    H248708   2.623   5.229   0.489 -1.0208  3.0819  0.7609
 9073TIP3   OH248709   1.917   5.072   6.288  0.4741  0.6136 -0.4459
 9073TIP3    H148710   1.849   5.116   6.237  0.4031  0.1707 -0.7423
 9073TIP3    H248711   1.940   5.134   6.357 -1.9572 -0.1877  1.1441
 9074TIP3   OH248712   0.615   0.829   3.441  0.0777 -0.0941  0.1332
 9074TIP3    H148713   0.625   0.735   3.455 -1.4344 -0.3862 -0.5385
 9074TIP3    H248714   0.670   0.870   3.507  0.9738 -1.4539  0.2477
 9075TIP3   OH248715   1.639   4.316   3.215 -0.5326  0.2323 -0.9746
 9075TIP3    H148716   1.704   4.376   3.251 -0.7377 -0.3322  0.3592
 9075TIP3    H248717   1.675   4.229   3.230 -2.4196 -0.1692  1.4505
 9076TIP3   OH248718   0.042   4.654   4.984  0.3923  0.0493  0.2126
 9076TIP3    H148719  -0.018   4.720   4.950  1.0666 -0.5262 -2.1866
 9076TIP3    H248720   0.073   4.608   4.907  2.1063 -1.2205  1.6178
 9077TIP3   OH248721   3.047   5.818  12.428 -0.7181 -0.1537  0.1927
 9077TIP3    H148722   3.062   5.912  12.421  1.3359 -0.5597 -1.4753
 9077TIP3    H248723   3.079   5.795  12.515 -0.1423  0.5051  0.1626
 9078TIP3   OH248724   3.613   1.861  16.737  0.3229 -0.0938  0.3352
 9078TIP3    H148725   3.521   1.835  16.740  0.5095 -0.9111 -0.5875
 9078TIP3    H248726   3.628   1.907  16.819 -0.7576 -0.4658  0.7509
 9079TIP3   OH248727   4.210   0.788  16.119 -0.1752 -0.2317  0.3480
 9079TIP3    H148728   4.200   0.876  16.084  0.0235 -0.0456  0.7605
 9079TIP3    H248729   4.213   0.732  16.041 -2.4277 -0.1093  0.1476
 9080TIP3   OH248730   6.762   4.443   2.340 -0.6196 -0.5610 -0.2785
 9080TIP3    H148731   6.683   4.467   2.292 -0.4193 -0.2622 -0.4635
 9080TIP3    H248732   6.749   4.478   2.428 -1.2727 -1.6866  0.0829
 9081TIP3   OH248733   5.514   4.858  14.484 -0.2518  0.4718 -0.4950
 9081TIP3    H148734   5.482   4.785  14.431  0.5761  0.0743 -0.4638
 9081TIP3    H248735   5.513   4.933  14.424  1.9935 -0.2679 -1.5240
 9082TIP3   OH248736   5.480   1.444   5.321 -0.0263 -0.4814  0.2940
 9082TIP3    H148737   5.410   1.473   5.379  0.9099  2.4614  0.0389
 9082TIP3    H248738   5.451   1.468   5.233  1.4414  1.1695  0.2290
 9083TIP3   OH248739   6.728   4.954   3.777  0.2841  0.4702 -0.7685
 9083TIP3    H148740   6.652   4.968   3.834  0.7007  1.1959 -0.3845
 9083TIP3    H248741   6.803   4.955   3.837  0.4795 -1.9789 -0.8993
 9084TIP3   OH248742   4.979   1.351  14.385 -0.1687  0.0360  0.3672
 9084TIP3    H148743   4.923   1.301  14.444 -0.8328  1.4723  0.9988
 9084TIP3    H248744   5.057   1.371  14.438 -1.1485  2.0859  1.1064
 9085TIP3   OH248745   4.447   0.426  11.802  0.7525 -0.0497  0.0265
 9085TIP3    H148746   4.368   0.388  11.764  0.9381 -0.6466  0.2322
 9085TIP3    H248747   4.425   0.518  11.816  0.6800  0.1816 -1.5200
 9086TIP3   OH248748   3.599   1.143  12.374 -0.2127  0.6464  0.0055
 9086TIP3    H148749   3.612   1.233  12.402  1.5069  0.5828 -0.5308
 9086TIP3    H248750   3.683   1.118  12.334 -0.3666 -1.4639  0.9474
 9087TIP3   OH248751   1.034   3.599   0.425  0.3299  0.1116  0.4918
 9087TIP3    H148752   1.093   3.528   0.452  1.2027  0.4188 -0.5441
 9087TIP3    H248753   1.090   3.676   0.423 -0.1617  0.4472 -0.3109
 9088TIP3   OH248754   1.762   3.536  11.967 -0.0136 -0.5475 -0.0920
 9088TIP3    H148755   1.766   3.484  12.047 -0.5608  0.5780  0.6940
 9088TIP3    H248756   1.683   3.506  11.923 -0.0406 -0.7498  0.0935
 9089TIP3   OH248757   5.476   3.995   1.202 -0.3614 -0.0152 -0.5842
 9089TIP3    H148758   5.396   3.985   1.151 -0.7158  0.8986 -0.2147
 9089TIP3    H248759   5.529   4.056   1.150 -0.5241  0.5409 -0.0999
 9090TIP3   OH248760   0.316   0.274   1.581  0.5885  0.5167  0.0902
 9090TIP3    H148761   0.223   0.259   1.599 -0.0045  4.2758  0.6495
 9090TIP3    H248762   0.318   0.305   1.490  1.4242 -0.4535 -0.2347
 9091TIP3   OH248763   4.171   0.542  12.269  0.3970  0.0378  0.1848
 9091TIP3    H148764   4.128   0.481  12.208  1.6147 -0.8571  0.2182
 9091TIP3    H248765   4.228   0.595  12.214  1.3561 -0.6444  0.5113
 9092TIP3   OH248766   5.649   5.411   2.716  0.1056 -0.0887  0.4553
 9092TIP3    H148767   5.622   5.336   2.663 -2.3726  0.0198  1.4647
 9092TIP3    H248768   5.692   5.374   2.792  1.5057 -0.3356 -0.4323
 9093TIP3   OH248769   2.847   5.621  11.177 -0.2906  0.1364 -0.9701
 9093TIP3    H148770   2.913   5.639  11.110  2.4188 -0.6092  1.3862
 9093TIP3    H248771   2.806   5.538  11.149  0.9235 -0.2502 -1.6261
 9094TIP3   OH248772   0.736   6.005  13.223  0.0932 -0.4064  0.3924
 9094TIP3    H148773   0.679   5.958  13.162 -0.0476 -0.7240  0.7658
 9094TIP3    H248774   0.678   6.034  13.294  0.3418 -0.4834  0.6317
 9095TIP3   OH248775   3.814   2.595   2.519 -0.4831 -0.4156  0.2458
 9095TIP3    H148776   3.893   2.603   2.465 -1.0031 -0.0941 -0.4775
 9095TIP3    H248777   3.834   2.645   2.598 -1.3011  2.8418 -1.5099
 9096TIP3   OH248778   1.933   0.791   1.344 -0.3979 -0.4827 -0.1792
 9096TIP3    H148779   1.919   0.739   1.265 -0.4130  1.7595 -1.7062
 9096TIP3    H248780   2.027   0.782   1.362  0.1294  1.0271 -1.9777
 9097TIP3   OH248781   0.233   5.204   0.221  0.0316  0.1170 -0.0970
 9097TIP3    H148782   0.216   5.121   0.266  1.2724 -0.8908 -1.4253
 9097TIP3    H248783   0.321   5.228   0.248  0.7249 -0.4158 -1.8165
 9098TIP3   OH248784   1.828   2.340   1.863 -0.3673  0.3875 -0.6453
 9098TIP3    H148785   1.913   2.301   1.843 -1.3546 -1.4586 -1.3517
 9098TIP3    H248786   1.776   2.326   1.783 -1.2843  1.6497 -0.2924
 9099TIP3   OH248787   6.806   4.727   3.991 -0.1703 -0.0076 -0.4761
 9099TIP3    H148788   6.731   4.697   4.042  0.0612  1.8583  1.0156
 9099TIP3    H248789   6.870   4.754   4.056  1.5111 -0.8384 -1.7460
 9100TIP3   OH248790   3.336   2.271   2.306 -0.3129  0.3080 -0.5780
 9100TIP3    H148791   3.289   2.199   2.349  1.6406 -1.0047 -0.5780
 9100TIP3    H248792   3.332   2.249   2.213  0.7854 -0.1190 -0.5293
 9101TIP3   OH248793   5.923   1.723  16.946 -0.1117 -0.5885 -0.7927
 9101TIP3    H148794   5.956   1.668  16.876  0.6823 -3.4313  1.6934
 9101TIP3    H248795   5.863   1.666  16.995  0.8327  0.6650  1.9291
 9102TIP3   OH248796   4.548   0.365  13.700 -0.2716  0.3376  0.3108
 9102TIP3    H148797   4.622   0.341  13.645 -0.0473  1.9292 -0.1026
 9102TIP3    H248798   4.494   0.286  13.704  0.8837 -0.4918 -0.2849
 9103TIP3   OH248799   4.825   1.285  16.814 -0.9145  0.3297 -0.0048
 9103TIP3    H148800   4.856   1.271  16.903 -1.1096 -1.3981 -0.1791
 9103TIP3    H248801   4.815   1.380  16.806 -2.8552  0.3910  2.4795
 9104TIP3   OH248802   5.406   4.135  12.708  0.2507 -0.0160 -0.2887
 9104TIP3    H148803   5.321   4.143  12.753  1.4093  0.2007  1.9626
 9104TIP3    H248804   5.385   4.093  12.625 -2.0028 -0.5298  0.4856
 9105TIP3   OH248805   6.007   4.613   5.549 -0.2390 -0.8229  0.4740
 9105TIP3    H148806   5.969   4.658   5.624 -1.3710  0.7086 -0.9658
 9105TIP3    H248807   6.062   4.678   5.507 -0.7090 -1.2147 -0.7907
 9106TIP3   OH248808   6.460   6.802   5.878 -0.3728  0.0307  0.3768
 9106TIP3    H148809   6.450   6.780   5.785  1.0469  0.1573  0.1824
 9106TIP3    H248810   6.453   6.898   5.880 -0.5877  0.0138  0.4246
 9107TIP3   OH248811   2.461   6.405   1.984  0.3819  0.3437  0.3545
 9107TIP3    H148812   2.482   6.496   1.963  0.6326  0.3040  0.4365
 9107TIP3    H248813   2.480   6.357   1.903 -2.1135  0.7210 -0.5206
 9108TIP3   OH248814   2.187   4.013   1.481  0.0902  0.8905  0.0705
 9108TIP3    H148815   2.239   3.994   1.559 -1.0247 -0.4516  0.5056
 9108TIP3    H248816   2.251   4.038   1.415  1.5535 -2.7331 -0.0166
 9109TIP3   OH248817   5.003   1.205   4.781 -0.0279  0.4738 -0.1361
 9109TIP3    H148818   4.925   1.150   4.789  0.3333 -0.0725 -0.3269
 9109TIP3    H248819   4.993   1.271   4.849 -0.8284  0.6126 -0.3833
 9110TIP3   OH248820   0.992   3.230   2.166  0.1050  0.3055 -0.1303
 9110TIP3    H148821   1.063   3.181   2.125 -0.6940 -1.0799  0.1180
 9110TIP3    H248822   0.982   3.308   2.111  2.6988  1.2078  0.5890
 9111TIP3   OH248823   1.924   4.045  12.390 -0.3583  0.4823  0.6174
 9111TIP3    H148824   1.854   4.097  12.351 -0.2640 -0.3134 -0.6651
 9111TIP3    H248825   2.004   4.092  12.368 -0.5003  1.5757  2.3815
 9112TIP3   OH248826   0.925   6.107   3.862 -0.0581  0.4805  0.3709
 9112TIP3    H148827   0.899   6.140   3.949 -1.5320 -0.7426  0.4260
 9112TIP3    H248828   0.866   6.152   3.801 -1.1927 -1.0185  0.3249
 9113TIP3   OH248829   5.820   2.956   1.018 -0.0467 -0.1356  0.3093
 9113TIP3    H148830   5.845   2.876   1.064  0.8085  0.2688  0.5683
 9113TIP3    H248831   5.737   2.981   1.057 -0.6200 -1.2244 -0.1970
 9114TIP3   OH248832   0.206   4.448  12.919 -0.0430  0.7431  0.0844
 9114TIP3    H148833   0.126   4.422  12.964 -0.9385 -0.4133 -2.1119
 9114TIP3    H248834   0.236   4.369  12.874  3.4374  0.6226  2.4188
 9115TIP3   OH248835   6.725   3.368   4.234  0.2429  0.0032  0.3872
 9115TIP3    H148836   6.778   3.448   4.242 -0.9107  0.9244 -0.9828
 9115TIP3    H248837   6.643   3.390   4.278  0.0736 -0.5777  0.3568
 9116TIP3   OH248838   1.449   0.594   6.637 -0.7399  0.0394  0.4966
 9116TIP3    H148839   1.409   0.649   6.570 -0.3286  0.8256  0.8916
 9116TIP3    H248840   1.457   0.508   6.596 -2.3531 -0.0021  0.2297
 9117TIP3   OH248841   0.579   3.237   4.589 -0.3870 -0.1680 -0.4956
 9117TIP3    H148842   0.598   3.184   4.511 -0.4103  0.3066 -0.8241
 9117TIP3    H248843   0.562   3.173   4.658  2.1383 -0.6243 -0.2468
 9118TIP3   OH248844   2.453   5.008   5.396 -0.1882 -0.0063  0.4972
 9118TIP3    H148845   2.458   5.064   5.318  0.2984 -0.4066  0.2366
 9118TIP3    H248846   2.506   5.054   5.461 -0.5989  0.3318  0.5974
 9119TIP3   OH248847   1.400   5.911  14.403 -0.2059  0.5724  0.3950
 9119TIP3    H148848   1.460   5.943  14.470  0.6050  0.3549 -0.2319
 9119TIP3    H248849   1.450   5.912  14.322 -0.9768  0.1836 -0.0972
 9120TIP3   OH248850   3.335   4.071   1.371  0.2012  0.3418 -0.8183
 9120TIP3    H148851   3.379   4.056   1.455 -1.6156  1.5300  0.3825
 9120TIP3    H248852   3.404   4.060   1.306  1.4622 -1.4838  0.7586
 9121TIP3   OH248853   5.935   2.220  11.622  0.0944 -0.6125  0.3835
 9121TIP3    H148854   5.980   2.283  11.566  2.1744 -0.6597  1.9698
 9121TIP3    H248855   5.922   2.143  11.567  1.2389 -0.2990 -0.3316
 9122TIP3   OH248856   0.098   4.083  13.145  0.3007  0.8302 -0.0300
 9122TIP3    H148857   0.187   4.090  13.178  0.7152  0.2240 -1.0022
 9122TIP3    H248858   0.051   4.155  13.188  0.6810 -0.2369  2.2642
 9123TIP3   OH248859   5.492   0.847  14.251 -0.1653  0.1374 -0.4705
 9123TIP3    H148860   5.496   0.755  14.224  3.2066 -0.0246  0.3695
 9123TIP3    H248861   5.456   0.844  14.340  0.6801 -0.4275 -0.1483
 9124TIP3   OH248862   2.528   2.243   6.588 -0.1762  0.5499  0.0817
 9124TIP3    H148863   2.518   2.154   6.556 -1.0787  0.6439  0.0907
 9124TIP3    H248864   2.620   2.249   6.615 -0.1398 -0.3970  0.1723
 9125TIP3   OH248865   3.640   1.511  12.703 -0.3775 -0.3794  0.4086
 9125TIP3    H148866   3.591   1.464  12.636  0.5153 -0.8613  0.0923
 9125TIP3    H248867   3.616   1.468  12.785 -0.4175 -0.6724  0.2434
 9126TIP3   OH248868   5.750   6.218   5.529  0.8030 -0.3198 -0.5140
 9126TIP3    H148869   5.782   6.132   5.501 -1.2160 -1.5203  0.6981
 9126TIP3    H248870   5.733   6.208   5.623 -1.1023  0.8456 -0.6968
 9127TIP3   OH248871   0.997   6.432  15.871  0.5335 -0.1104 -0.4269
 9127TIP3    H148872   0.917   6.381  15.881 -0.2746  1.3672  0.7675
 9127TIP3    H248873   0.968   6.523  15.869  2.0279  0.3603 -1.8098
 9128TIP3   OH248874   4.852   2.468  11.610 -0.4566 -0.5627  0.2836
 9128TIP3    H148875   4.927   2.518  11.578 -0.5236 -0.3522  0.4579
 9128TIP3    H248876   4.879   2.377  11.602  0.0119 -0.4759  0.8341
 9129TIP3   OH248877   3.868   0.501  16.812 -0.2136  0.4527 -0.0533
 9129TIP3    H148878   3.818   0.518  16.732  0.9779 -1.3156 -1.2025
 9129TIP3    H248879   3.894   0.409  16.805  0.4271  0.4554  2.0805
 9130TIP3   OH248880   4.667   4.920   1.499 -0.3263 -0.3732  0.2425
 9130TIP3    H148881   4.727   4.991   1.478 -0.0517 -0.8149 -0.5102
 9130TIP3    H248882   4.623   4.900   1.416 -1.6058  0.0331  0.8186
 9131TIP3   OH248883   5.404   0.690  13.645 -0.1858  0.4133 -0.2791
 9131TIP3    H148884   5.402   0.674  13.550  0.3418 -2.7754  0.1823
 9131TIP3    H248885   5.458   0.619  13.680 -1.5823  0.6922  2.5641
 9132TIP3   OH248886   6.459   2.320   6.733 -0.1522 -0.0694 -0.0465
 9132TIP3    H148887   6.422   2.270   6.660  0.4264 -0.0942 -0.3334
 9132TIP3    H248888   6.534   2.268   6.762  0.1475  0.3749 -0.0145
 9133TIP3   OH248889   4.379   5.711   3.593 -0.1530 -0.0423  0.3974
 9133TIP3    H148890   4.336   5.626   3.586  1.1179 -0.6150 -0.5831
 9133TIP3    H248891   4.351   5.759   3.515  1.0640 -0.4592 -0.3047
 9134TIP3   OH248892   2.216   1.535  14.059  0.5653  0.3920  0.5515
 9134TIP3    H148893   2.125   1.564  14.051  0.7410  0.5705 -0.8356
 9134TIP3    H248894   2.253   1.545  13.972  1.8121 -0.0721  1.0091
 9135TIP3   OH248895   0.601   1.911   5.148 -0.0870  0.3098 -0.2717
 9135TIP3    H148896   0.508   1.890   5.152 -0.1344  0.5548 -0.1020
 9135TIP3    H248897   0.640   1.835   5.104 -0.1566 -0.4380  0.9402
 9136TIP3   OH248898   5.172   1.188   1.096 -0.1769 -0.2715 -0.1029
 9136TIP3    H148899   5.187   1.144   1.179 -0.8790 -0.8838 -0.2939
 9136TIP3    H248900   5.179   1.118   1.030  1.2308  0.3570 -0.6374
 9137TIP3   OH248901   3.475   0.206  16.229  0.3714 -0.3360 -0.3656
 9137TIP3    H148902   3.404   0.152  16.195  0.8146 -0.3022 -1.3583
 9137TIP3    H248903   3.514   0.155  16.300 -0.8506 -0.2152  0.4017
 9138TIP3   OH248904   0.378   6.251   3.220  0.1660  0.4655 -0.4091
 9138TIP3    H148905   0.456   6.217   3.177 -0.2299  0.6119 -1.2539
 9138TIP3    H248906   0.381   6.213   3.308  0.6799 -0.3072 -0.7505
 9139TIP3   OH248907   4.625   0.009   0.505 -0.1748 -0.5521  0.4871
 9139TIP3    H148908   4.717   0.035   0.497 -0.2727  0.4256  2.2896
 9139TIP3    H248909   4.592   0.060   0.578 -1.7970 -1.9583  0.7670
 9140TIP3   OH248910   3.591   5.791  14.261 -0.0367 -0.5543  0.4261
 9140TIP3    H148911   3.526   5.768  14.327 -0.4912 -0.3129  0.0615
 9140TIP3    H248912   3.595   5.887  14.265 -0.2956 -0.5198 -0.1189
 9141TIP3   OH248913   4.111   0.136  11.491  0.1433 -0.4041  0.6810
 9141TIP3    H148914   4.091   0.156  11.583 -0.9272 -0.4085  0.4516
 9141TIP3    H248915   4.047   0.069  11.467  0.1911 -0.1402 -0.1832
 9142TIP3   OH248916   3.817   2.650   4.597 -0.1119 -0.4642  0.0042
 9142TIP3    H148917   3.748   2.588   4.571 -0.4061 -1.0050  1.9585
 9142TIP3    H248918   3.884   2.640   4.530 -0.9613 -1.5793 -0.7136
 9143TIP3   OH248919   2.703   5.330   4.056  0.0596  0.1344 -0.2240
 9143TIP3    H148920   2.773   5.331   4.121  0.9117  1.5320 -1.1305
 9143TIP3    H248921   2.674   5.239   4.052  2.9058 -0.7632 -1.0150
 9144TIP3   OH248922   5.942   4.998   5.850  0.5334 -0.5557  0.0968
 9144TIP3    H148923   5.994   5.073   5.878  0.5917  0.3847 -2.4431
 9144TIP3    H248924   6.002   4.923   5.856  0.9761 -0.1311  1.0005
 9145TIP3   OH248925   1.593   5.691   0.449 -0.4412  0.2502 -0.8850
 9145TIP3    H148926   1.543   5.754   0.397 -0.9660  0.5170 -0.0634
 9145TIP3    H248927   1.675   5.738   0.470 -0.2329  0.1445 -1.4579
 9146TIP3   OH248928   5.509   4.238   1.979 -0.0340 -0.1276  0.4547
 9146TIP3    H148929   5.488   4.263   2.070 -0.8651 -0.7481  0.4427
 9146TIP3    H248930   5.467   4.306   1.926 -0.9969 -0.6915  0.4792
 9147TIP3   OH248931   0.565   0.549  14.310 -0.3121  0.1252 -0.2773
 9147TIP3    H148932   0.576   0.557  14.215 -1.1137  0.8920 -0.3183
 9147TIP3    H248933   0.650   0.517  14.341 -0.2178 -0.6546 -1.3091
 9148TIP3   OH248934   4.101   3.485  13.762 -0.2018  0.0151 -0.3937
 9148TIP3    H148935   4.179   3.526  13.799 -0.3148 -0.4352  0.3550
 9148TIP3    H248936   4.135   3.415  13.706 -0.1138 -1.8994  1.9904
 9149TIP3   OH248937   4.604   2.861   4.568 -0.0375 -0.6445  0.3544
 9149TIP3    H148938   4.530   2.842   4.510  1.6492 -2.6140 -1.2237
 9149TIP3    H248939   4.577   2.938   4.618 -2.3942 -0.2261 -1.5279
 9150TIP3   OH248940   0.408   3.911  10.329  0.3297  0.0802  0.3364
 9150TIP3    H148941   0.437   3.952  10.410  1.6017 -1.4956  0.7016
 9150TIP3    H248942   0.317   3.887  10.346 -0.3737  2.5304  0.1769
 9151TIP3   OH248943   2.619   2.157   4.553  0.6636 -0.1976 -0.1976
 9151TIP3    H148944   2.628   2.234   4.608  0.3283  1.4998 -2.4263
 9151TIP3    H248945   2.543   2.111   4.587  0.5082  0.7651  0.7860
 9152TIP3   OH248946   3.862   6.532  14.502  0.6514  0.3990 -0.6027
 9152TIP3    H148947   3.843   6.578  14.420  0.9840  0.8316 -0.4377
 9152TIP3    H248948   3.949   6.496  14.489  1.7027  2.4730  0.4463
 9153TIP3   OH248949   3.774   0.106  11.251 -0.7647  0.2597 -0.3458
 9153TIP3    H148950   3.760   0.163  11.175 -0.5014 -1.0044 -1.3643
 9153TIP3    H248951   3.863   0.074  11.240 -0.5461  0.4455  0.7816
 9154TIP3   OH248952   3.871   6.367   3.451  0.2076  0.4647  0.6144
 9154TIP3    H148953   3.814   6.349   3.526  0.1008  2.6726  1.0842
 9154TIP3    H248954   3.943   6.305   3.461 -0.1113  0.3375  2.2262
 9155TIP3   OH248955   0.903   4.076  15.861 -0.1777 -0.2293 -0.3144
 9155TIP3    H148956   0.935   4.041  15.778  0.2132 -1.0458  0.1695
 9155TIP3    H248957   0.808   4.068  15.856 -0.2448  1.1129 -1.2840
 9156TIP3   OH248958   3.621   5.127   1.081  0.4671 -1.1826 -1.0523
 9156TIP3    H148959   3.620   5.196   1.015  0.1344  0.4239  0.6017
 9156TIP3    H248960   3.652   5.170   1.161 -1.6385 -2.4410  0.5124
 9157TIP3   OH248961   0.245   1.621   0.573  0.4242  0.2522  0.2034
 9157TIP3    H148962   0.177   1.669   0.620  2.0505  1.3687  1.4765
 9157TIP3    H248963   0.261   1.543   0.626 -0.1612 -0.2199 -0.3164
 9158TIP3   OH248964   1.852   6.534   1.679  0.7934 -0.1534 -0.1728
 9158TIP3    H148965   1.818   6.499   1.761  0.6187  1.0399  0.2826
 9158TIP3    H248966   1.947   6.535   1.690  0.9557 -2.6873 -1.1136
 9159TIP3   OH248967   0.182   4.565   3.824 -0.0167 -0.3240  0.6740
 9159TIP3    H148968   0.150   4.499   3.885 -0.6941  0.5842  1.3068
 9159TIP3    H248969   0.103   4.610   3.794  0.3370 -0.4918 -0.5787
 9160TIP3   OH248970   5.278   0.624   6.234 -0.2858 -0.4666 -0.8900
 9160TIP3    H148971   5.250   0.548   6.286 -0.6875 -1.1145 -2.0270
 9160TIP3    H248972   5.360   0.651   6.275  0.0361 -1.7150 -0.6629
 9161TIP3   OH248973   0.256   1.693   1.248  0.1115 -0.4574 -0.2129
 9161TIP3    H148974   0.191   1.648   1.302 -0.5097 -0.2715 -0.7903
 9161TIP3    H248975   0.334   1.637   1.252 -0.1833 -0.8465  0.2253
 9162TIP3   OH248976   3.270   4.318   0.869  0.0003  0.1665  0.6200
 9162TIP3    H148977   3.307   4.250   0.924 -0.6251  0.3237  1.2459
 9162TIP3    H248978   3.194   4.350   0.918  0.0504  1.0293  0.1427
 9163TIP3   OH248979   4.424   3.658   0.734  0.1701 -0.0744 -1.1436
 9163TIP3    H148980   4.434   3.645   0.828  1.4115  1.4023 -1.0365
 9163TIP3    H248981   4.481   3.593   0.694 -0.0839 -0.4658 -0.8682
 9164TIP3   OH248982   3.093   5.059  16.012 -0.4774  0.2848 -0.8703
 9164TIP3    H148983   3.174   5.070  16.062 -2.5925 -0.6127  2.9616
 9164TIP3    H248984   3.073   4.966  16.020 -2.8529  0.8298 -0.1414
 9165TIP3   OH248985   4.000   5.798   5.556 -0.2894  0.0742  0.2878
 9165TIP3    H148986   4.035   5.816   5.644 -0.0886  0.2074  0.1818
 9165TIP3    H248987   3.994   5.884   5.514 -3.4508  0.3992  1.2840
 9166TIP3   OH248988   0.079   1.791   4.201  0.1668  0.0746 -0.0917
 9166TIP3    H148989   0.060   1.739   4.279 -0.8669  1.1861  0.4053
 9166TIP3    H248990   0.144   1.739   4.153 -0.4805 -1.4397  0.6373
 9167TIP3   OH248991   6.625   3.514   1.181 -0.2146  0.3037 -0.0812
 9167TIP3    H148992   6.685   3.553   1.245 -1.5632  1.4288  0.4931
 9167TIP3    H248993   6.598   3.587   1.125 -0.1176 -0.4297 -1.1073
 9168TIP3   OH248994   4.906   3.620   5.370 -0.2543  0.7690  0.1837
 9168TIP3    H148995   4.876   3.639   5.459  0.1270  0.5785  0.3528
 9168TIP3    H248996   4.910   3.705   5.327 -2.4964  0.6631 -0.2923
 9169TIP3   OH248997   4.340   5.533  11.732  0.1341  0.0152 -0.3325
 9169TIP3    H148998   4.397   5.577  11.668  0.8623  0.6673  0.7467
 9169TIP3    H248999   4.399   5.507  11.802 -0.2846 -2.7838 -0.9730
 9170TIP3   OH249000   1.803   1.522   3.503  0.3649  0.3180 -0.0837
 9170TIP3    H149001   1.839   1.451   3.556  3.1230  1.7615  0.0253
 9170TIP3    H249002   1.845   1.601   3.536 -0.9041  1.7378 -1.7684
 9171TIP3   OH249003   5.446   1.204  15.954 -0.4095  0.3980 -0.0819
 9171TIP3    H149004   5.464   1.170  16.042  1.0952  2.6717  0.5307
 9171TIP3    H249005   5.360   1.245  15.962 -0.7186 -0.2740  0.0625
 9172TIP3   OH249006   5.191   5.975   5.437 -0.0972  0.3052  0.0203
 9172TIP3    H149007   5.262   5.930   5.482  0.9851  2.1617  0.1934
 9172TIP3    H249008   5.224   6.063   5.422 -0.3587 -0.2419 -4.4550
 9173TIP3   OH249009   5.113   1.040  15.224  0.3193 -0.7110  0.5450
 9173TIP3    H149010   5.139   1.031  15.316 -0.1934 -0.0008  0.7628
 9173TIP3    H249011   5.176   1.100  15.186 -0.0941 -0.1765  0.6985
 9174TIP3   OH249012   5.584   2.073  16.056 -0.2446  0.2012  0.4696
 9174TIP3    H149013   5.503   2.113  16.089 -1.8973 -3.4008  1.0857
 9174TIP3    H249014   5.567   2.061  15.962  0.7034  1.9420  0.0654
 9175TIP3   OH249015   3.351   0.274   4.172  0.0664  0.4789 -0.3421
 9175TIP3    H149016   3.271   0.325   4.157  0.2205  1.4617  1.9605
 9175TIP3    H249017   3.417   0.319   4.119 -0.6108  0.4607 -1.2169
 9176TIP3   OH249018   0.502   3.202   6.147 -0.3587 -1.0476 -0.1868
 9176TIP3    H149019   0.571   3.144   6.177  1.0288  0.2260 -0.8636
 9176TIP3    H249020   0.436   3.198   6.216  1.3002 -0.7140  1.4574
 9177TIP3   OH249021   4.345   4.331  16.635  0.0033  0.1502  0.2849
 9177TIP3    H149022   4.284   4.300  16.702 -0.5626  1.1995  0.2663
 9177TIP3    H249023   4.432   4.316  16.672 -0.2447 -1.3766  0.3002
 9178TIP3   OH249024   1.341   4.103   4.490  0.2400  0.1938 -0.3442
 9178TIP3    H149025   1.308   4.052   4.564  2.4312 -2.3578 -1.0168
 9178TIP3    H249026   1.295   4.067   4.414 -0.1910  1.0940 -0.5078
 9179TIP3   OH249027   5.382   6.093   3.047  0.1443  0.1456  0.4780
 9179TIP3    H149028   5.465   6.051   3.067  1.5316  2.0813 -0.9762
 9179TIP3    H249029   5.406   6.173   3.001 -2.5593  0.3893 -0.6285
 9180TIP3   OH249030   2.224   2.628   4.927  0.3565  0.4208 -0.0872
 9180TIP3    H149031   2.196   2.540   4.902 -1.2570  1.0023 -0.3940
 9180TIP3    H249032   2.281   2.614   5.003  1.4984 -1.0081 -1.1713
 9181TIP3   OH249033   0.619   3.144   3.490  0.2088  0.0209  0.5625
 9181TIP3    H149034   0.714   3.149   3.494  0.1357  0.8712  1.3792
 9181TIP3    H249035   0.601   3.054   3.463  1.2268 -0.3100  0.9541
 9182TIP3   OH249036   6.239   0.631  14.181  0.1530  0.3456  0.3827
 9182TIP3    H149037   6.280   0.549  14.155  1.8135  1.1541  0.3901
 9182TIP3    H249038   6.230   0.625  14.276 -1.2887 -0.5121  0.2091
 9183TIP3   OH249039   1.282   4.293   5.619 -0.2692 -0.1326 -0.1778
 9183TIP3    H149040   1.204   4.319   5.668 -0.2688  0.9438 -0.7332
 9183TIP3    H249041   1.256   4.298   5.527  0.7680  1.2913 -0.4112
 9184TIP3   OH249042   2.301   2.544  16.303  0.0740  0.0139  0.3890
 9184TIP3    H149043   2.304   2.453  16.276  0.5489  0.5984 -1.5824
 9184TIP3    H249044   2.386   2.560  16.345  0.3733 -0.1859 -0.1384
 9185TIP3   OH249045   2.823   5.653   4.378  0.3055  0.0707  0.2993
 9185TIP3    H149046   2.859   5.739   4.400 -2.3783  1.2441  0.3159
 9185TIP3    H249047   2.792   5.663   4.288 -1.5396 -0.3417  0.8800
 9186TIP3   OH249048   5.968   1.610   3.586  0.1809  0.2114  0.2450
 9186TIP3    H149049   6.060   1.588   3.596 -0.0599 -0.9522 -0.0093
 9186TIP3    H249050   5.960   1.699   3.620  1.8626  1.2516 -1.9928
 9187TIP3   OH249051   2.426   1.608   3.017 -0.1225 -0.1330  0.3942
 9187TIP3    H149052   2.472   1.660   3.082 -1.2114 -0.4579  1.4521
 9187TIP3    H249053   2.400   1.670   2.949  0.1520  0.3795  0.7614
 9188TIP3   OH249054   2.260   0.122  16.275 -0.0571  0.2314 -0.1318
 9188TIP3    H149055   2.275   0.163  16.190  0.8220 -1.5024 -0.8419
 9188TIP3    H249056   2.258   0.028  16.256  0.8543 -0.2191  1.8544
 9189TIP3   OH249057   5.265   2.677   0.356 -0.4464 -0.4708 -1.0096
 9189TIP3    H149058   5.359   2.662   0.362  0.4077  3.9933 -1.8359
 9189TIP3    H249059   5.231   2.650   0.442  2.2041  1.8124  0.8309
 9190TIP3   OH249060   3.738   4.872   4.123 -0.0073  0.4314  0.1189
 9190TIP3    H149061   3.823   4.916   4.129  0.8300 -1.4220  3.0477
 9190TIP3    H249062   3.678   4.931   4.169  0.5935 -0.2203  1.7844
 9191TIP3   OH249063   2.669   5.179  12.336  0.0086  0.0520 -0.1813
 9191TIP3    H149064   2.737   5.117  12.310  1.5361  1.4867  0.3443
 9191TIP3    H249065   2.676   5.250  12.272 -0.4369  0.6136  0.3930
 9192TIP3   OH249066   5.752   4.873  12.816 -0.0418  0.4139  0.1248
 9192TIP3    H149067   5.688   4.850  12.749  1.2629  1.6383 -1.6007
 9192TIP3    H249068   5.799   4.791  12.833 -2.0284 -0.4811  1.3969
 9193TIP3   OH249069   5.509   6.240   2.167  0.6138 -0.1984  0.1255
 9193TIP3    H149070   5.482   6.229   2.075  0.2985  0.1227  0.1796
 9193TIP3    H249071   5.589   6.187   2.175 -0.8608 -2.4665  0.3712
 9194TIP3   OH249072   2.414   0.688  16.148  0.4953 -0.1203  0.0008
 9194TIP3    H149073   2.382   0.778  16.156 -1.0352 -0.7336  0.9470
 9194TIP3    H249074   2.341   0.640  16.108  1.0533 -1.0820  0.1302
 9195TIP3   OH249075   4.600   4.879  12.258  0.7761  0.4250  0.0937
 9195TIP3    H149076   4.549   4.835  12.325 -0.2848  1.8282  0.2389
 9195TIP3    H249077   4.605   4.816  12.186 -1.1918  0.2796  0.0706
 9196TIP3   OH249078   3.103   1.442   5.278 -0.0238 -0.3230  0.3201
 9196TIP3    H149079   3.198   1.438   5.263  0.0690  0.0829  0.7799
 9196TIP3    H249080   3.092   1.405   5.366 -0.2537 -0.0272  0.4160
 9197TIP3   OH249081   4.835   5.286   4.121 -0.6062  0.7411 -0.1233
 9197TIP3    H149082   4.789   5.267   4.039 -0.6847  0.4035 -0.0038
 9197TIP3    H249083   4.829   5.204   4.171 -1.8154  1.3966  0.8180
 9198TIP3   OH249084   2.728   6.008   4.109 -0.0854 -0.1149  0.1601
 9198TIP3    H149085   2.757   5.947   4.177 -1.2407 -0.1230  0.6577
 9198TIP3    H249086   2.801   6.011   4.047  0.0147 -1.9808  0.1374
 9199TIP3   OH249087   5.733   1.142  11.888 -0.1543  0.8360 -0.2130
 9199TIP3    H149088   5.778   1.125  11.970 -1.1901  0.0419  0.2060
 9199TIP3    H249089   5.642   1.116  11.904 -0.9288  2.9937 -0.8307
 9200TIP3   OH249090   1.326   3.443   3.734 -0.0285 -0.1601 -0.2239
 9200TIP3    H149091   1.418   3.429   3.713 -0.2085  0.6030 -1.6171
 9200TIP3    H249092   1.324   3.526   3.782  0.3339 -1.6789  2.4518
 9201TIP3   OH249093   3.095   2.085  15.618 -0.2929  0.3726 -0.1079
 9201TIP3    H149094   3.164   2.130  15.570 -0.4027  0.3293 -0.3056
 9201TIP3    H249095   3.091   2.130  15.702  0.8204 -0.4139  0.3830
 9202TIP3   OH249096   4.249   5.548  11.338  0.0313 -0.1172  0.2067
 9202TIP3    H149097   4.314   5.604  11.380 -2.1443  1.5054  1.5631
 9202TIP3    H249098   4.217   5.601  11.265 -1.1016 -0.1139  0.6946
 9203TIP3   OH249099   2.820   3.304   4.297  0.2920 -0.2421  0.3764
 9203TIP3    H149100   2.903   3.257   4.303  0.6816  0.4110  0.0730
 9203TIP3    H249101   2.810   3.346   4.383 -0.1788 -1.0726  0.7371
 9204TIP3   OH249102   5.470   2.113   0.897  0.3787  0.1237 -0.5083
 9204TIP3    H149103   5.560   2.138   0.919 -0.4333  3.5804 -0.8029
 9204TIP3    H249104   5.464   2.125   0.803 -0.6693  0.9461 -0.3454
 9205TIP3   OH249105   0.912   0.166  12.218  0.5123 -0.0632  0.0430
 9205TIP3    H149106   0.930   0.099  12.151  0.1175 -2.4509  2.2515
 9205TIP3    H249107   0.833   0.134  12.262  1.0130  1.2550  1.9359
 9206TIP3   OH249108   1.673   3.405  15.160  0.2726  0.1368 -0.2535
 9206TIP3    H149109   1.689   3.446  15.075  1.1275 -0.6000 -0.4511
 9206TIP3    H249110   1.591   3.445  15.190  0.6164  1.3321 -0.8481
 9207TIP3   OH249111   3.047   2.286   6.253  0.1559  0.2009 -0.1316
 9207TIP3    H149112   3.131   2.312   6.292  1.2440 -0.4638 -1.9424
 9207TIP3    H249113   2.981   2.320   6.313  1.6969  1.8153  0.7182
 9208TIP3   OH249114   5.940   4.679  14.873 -0.2099 -0.6608  0.0567
 9208TIP3    H149115   5.941   4.748  14.806  0.1089  0.5916  1.3165
 9208TIP3    H249116   5.848   4.664  14.892 -0.3007 -1.0694 -0.7163
 9209TIP3   OH249117   0.575   1.579   5.956 -0.1688 -0.3106 -0.0542
 9209TIP3    H149118   0.633   1.648   5.988 -1.3933  0.7398 -0.0505
 9209TIP3    H249119   0.552   1.529   6.034 -1.1980  0.7607  0.3514
 9210TIP3   OH249120   1.391   0.298  12.104 -0.1052 -0.0518 -0.3047
 9210TIP3    H149121   1.369   0.224  12.047 -0.8785 -0.3234  0.3430
 9210TIP3    H249122   1.356   0.374  12.059  0.1927 -0.1421 -0.6947
 9211TIP3   OH249123   3.142   5.711   5.659 -0.1696  0.1393 -0.2341
 9211TIP3    H149124   3.165   5.796   5.697  1.0132 -0.2405 -0.1096
 9211TIP3    H249125   3.080   5.733   5.589  1.5114  1.2523 -1.4032
 9212TIP3   OH249126   4.883   2.908  13.664  0.3247  0.5241 -0.2404
 9212TIP3    H149127   4.949   2.953  13.611  0.2123 -0.6079 -1.3793
 9212TIP3    H249128   4.928   2.832  13.699 -0.1169  0.2620 -0.2410
 9213TIP3   OH249129   6.294   5.848   1.476 -0.3062  0.0925  0.5632
 9213TIP3    H149130   6.349   5.866   1.400 -2.0618  1.2179 -0.4792
 9213TIP3    H249131   6.308   5.923   1.534 -0.2736  0.0702  0.5846
 9214TIP3   OH249132   1.369   1.238  16.179  0.6707 -0.0652 -0.1469
 9214TIP3    H149133   1.371   1.142  16.175  1.7492 -0.1517  1.8027
 9214TIP3    H249134   1.351   1.257  16.271  0.5011  1.6169 -0.5153
 9215TIP3   OH249135   0.233   0.106  13.477  0.1854  0.4567 -0.9347
 9215TIP3    H149136   0.190   0.189  13.457 -0.1840  0.4051 -0.3879
 9215TIP3    H249137   0.166   0.056  13.524  1.0593  0.6278  0.5210
 9216TIP3   OH249138   2.035   6.173   5.051 -0.6407 -0.2394 -0.3062
 9216TIP3    H149139   2.031   6.165   5.147 -1.1658 -1.2509 -0.4023
 9216TIP3    H249140   2.060   6.264   5.036  1.1529 -0.5187  0.8260
 9217TIP3   OH249141   1.640   1.607  11.772 -0.2148  0.1490  0.5078
 9217TIP3    H149142   1.648   1.512  11.769 -1.8141  0.0255 -0.5679
 9217TIP3    H249143   1.729   1.639  11.755  0.1388 -1.1474 -0.1591
 9218TIP3   OH249144   4.709   2.883  12.896 -0.7158 -0.0326  0.0092
 9218TIP3    H149145   4.627   2.872  12.848 -0.2930 -0.3052 -0.6481
 9218TIP3    H249146   4.767   2.928  12.836 -0.2785 -0.1128  0.3660
 9219TIP3   OH249147   6.751   1.550  15.239 -0.3253 -0.4945 -0.4798
 9219TIP3    H149148   6.688   1.605  15.192 -0.4181 -0.7609 -0.6741
 9219TIP3    H249149   6.754   1.586  15.327  0.3772  0.4381 -0.8885
 9220TIP3   OH249150   2.491   3.128   0.578 -0.4311  0.2573  0.0849
 9220TIP3    H149151   2.567   3.118   0.522  0.3246 -0.4878  1.2217
 9220TIP3    H249152   2.428   3.063   0.546  0.1166 -0.3807  0.2971
 9221TIP3   OH249153   4.248   6.208  12.534  0.3787 -0.4129  0.1198
 9221TIP3    H149154   4.277   6.117  12.543 -0.9526 -1.3433 -3.9545
 9221TIP3    H249155   4.309   6.247  12.472  1.1290  1.6443  2.0669
 9222TIP3   OH249156   2.059   4.536   1.976 -0.2316  0.0781  0.1212
 9222TIP3    H149157   2.015   4.494   2.050  1.0237 -3.1925 -0.9004
 9222TIP3    H249158   2.152   4.513   1.986  0.2100  0.9938 -1.5476
 9223TIP3   OH249159   6.585   2.247   6.101 -0.1397  0.6763 -0.6827
 9223TIP3    H149160   6.629   2.162   6.102 -2.7762 -0.7727 -1.5611
 9223TIP3    H249161   6.630   2.299   6.167  2.1198 -1.0998 -0.7903
 9224TIP3   OH249162   2.424   3.218   1.194 -0.0923  0.1366  0.7442
 9224TIP3    H149163   2.505   3.171   1.212 -0.6254 -0.6148  1.1835
 9224TIP3    H249164   2.355   3.152   1.201 -0.8834  1.0422  1.7356
 9225TIP3   OH249165   3.671   5.953  13.177  0.4064 -0.4683 -0.0396
 9225TIP3    H149166   3.608   5.977  13.109  0.7996  0.3979 -0.1051
 9225TIP3    H249167   3.626   5.971  13.259  0.6813  0.4744 -0.0867
 9226TIP3   OH249168   3.528   2.935   0.202  0.2518  0.1408 -0.1877
 9226TIP3    H149169   3.568   2.853   0.173 -1.0345 -1.2159  1.8038
 9226TIP3    H249170   3.526   2.989   0.123  2.3892 -1.1984 -1.2178
 9227TIP3   OH249171   4.691   3.592  12.390 -0.3739 -0.5535  0.7093
 9227TIP3    H149172   4.639   3.530  12.442 -0.8460 -0.0153  0.8862
 9227TIP3    H249173   4.684   3.675  12.438  0.5830 -0.4542  0.6836
 9228TIP3   OH249174   0.990   3.502   0.784 -0.1186 -0.5157 -0.1153
 9228TIP3    H149175   1.018   3.429   0.839 -0.2175  1.4372  2.6500
 9228TIP3    H249176   1.072   3.544   0.758 -0.1159 -0.7821 -0.5424
 9229TIP3   OH249177   1.096   0.678  16.000 -0.2941 -0.1224 -0.6997
 9229TIP3    H149178   1.102   0.757  16.054  1.3792 -2.0001  1.9779
 9229TIP3    H249179   1.089   0.711  15.910  3.3084  3.0715  0.0533
 9230TIP3   OH249180   2.151   3.495   3.070  0.8027 -0.4413  0.8694
 9230TIP3    H149181   2.165   3.425   3.133 -0.1290 -1.6345 -0.2177
 9230TIP3    H249182   2.148   3.575   3.123  1.9599 -1.1992  2.1068
 9231TIP3   OH249183   0.414   3.608  15.685 -0.1093 -0.7603 -0.4526
 9231TIP3    H149184   0.393   3.695  15.652 -2.7019 -1.5120 -0.8411
 9231TIP3    H249185   0.442   3.559  15.607  1.5190 -0.2629 -0.2062
 9232TIP3   OH249186   2.979   0.660   0.751 -0.1128 -0.2936 -0.1166
 9232TIP3    H149187   3.023   0.737   0.787 -0.4511 -0.1581  0.0073
 9232TIP3    H249188   3.048   0.611   0.708 -0.1232  0.7230 -1.3014
 9233TIP3   OH249189   2.606   2.616   3.480 -0.0495 -0.1970 -0.2252
 9233TIP3    H149190   2.548   2.576   3.414 -1.0990  1.4364 -0.3067
 9233TIP3    H249191   2.550   2.627   3.557  0.4342  0.4162  0.0379
 9234TIP3   OH249192   3.316   4.553  16.645  0.0127  0.4391 -0.0358
 9234TIP3    H149193   3.386   4.619  16.644  1.0321 -0.6286  0.2711
 9234TIP3    H249194   3.236   4.604  16.653  0.8897  1.5724  1.8222
 9235TIP3   OH249195   3.845   6.365   2.055 -0.3570  0.1320 -0.9891
 9235TIP3    H149196   3.899   6.286   2.061 -0.3080  0.0776 -2.1526
 9235TIP3    H249197   3.758   6.332   2.031 -0.8561  0.2484  0.5496
 9236TIP3   OH249198   2.640   6.491   0.059 -0.0103  0.1319 -0.0495
 9236TIP3    H149199   2.726   6.513   0.024 -1.0550  0.6021 -2.3802
 9236TIP3    H249200   2.647   6.510   0.153  1.1001  4.4539 -0.9022
 9237TIP3   OH249201   0.793   5.780   6.019  0.0280 -0.4309 -0.3245
 9237TIP3    H149202   0.775   5.688   5.997  0.8120 -0.7269  0.2630
 9237TIP3    H249203   0.783   5.785   6.114  0.4689 -0.0147 -0.2990
 9238TIP3   OH249204   5.197   3.363  12.433 -0.2384  0.5609 -0.1686
 9238TIP3    H149205   5.247   3.329  12.359 -0.4480 -0.2529  0.0543
 9238TIP3    H249206   5.111   3.321  12.425 -0.1918  0.2881  0.6550
 9239TIP3   OH249207   1.651   6.637  15.510 -0.3378  0.4749 -0.3865
 9239TIP3    H149208   1.707   6.710  15.483 -0.7284  0.2857 -1.7664
 9239TIP3    H249209   1.639   6.650  15.604  1.3865  0.9502 -0.2010
 9240TIP3   OH249210   1.159   6.752  16.832  0.0421 -0.2163  0.4854
 9240TIP3    H149211   1.241   6.746  16.881  1.0021 -1.3331 -1.2453
 9240TIP3    H249212   1.091   6.751  16.900  1.4182  0.0721  1.8962
 9241TIP3   OH249213   2.409   2.603   3.703  0.1635 -0.4053  0.6169
 9241TIP3    H149214   2.401   2.586   3.797 -2.1792 -1.8337  0.2345
 9241TIP3    H249215   2.328   2.650   3.681  0.3327 -0.7731 -0.8078
 9242TIP3   OH249216   1.531   3.096   3.711  0.2908 -0.0499  0.0564
 9242TIP3    H149217   1.462   3.111   3.775 -0.4748 -2.0662 -0.2463
 9242TIP3    H249218   1.610   3.082   3.764  0.2206  1.0058  0.4458
 9243TIP3   OH249219   0.048   0.427   5.647 -0.2320 -0.0962 -0.5193
 9243TIP3    H149220   0.008   0.371   5.713 -1.8834 -0.0530 -1.4471
 9243TIP3    H249221   0.078   0.366   5.579  0.1322 -0.0314 -0.4169
 9244TIP3   OH249222   1.759   1.116   1.986 -0.0033 -0.2710 -0.4200
 9244TIP3    H149223   1.793   1.077   1.905  1.0495 -1.0378  0.3744
 9244TIP3    H249224   1.700   1.050   2.022 -2.5938  1.1437 -1.9056
 9245TIP3   OH249225   6.569   2.077   0.147  0.1401 -0.1234 -0.0484
 9245TIP3    H149226   6.493   2.098   0.094 -0.2409  0.1460  0.5962
 9245TIP3    H249227   6.554   2.122   0.230  1.8258  1.3861 -0.5190
 9246TIP3   OH249228   3.924   1.924   0.560  0.1965  0.6623 -0.5160
 9246TIP3    H149229   4.010   1.942   0.597  0.8833  1.6231 -2.5392
 9246TIP3    H249230   3.871   2.000   0.584 -0.0313  0.1824  0.5209
 9247TIP3   OH249231   3.820   1.754  12.894  0.3543  0.0390 -0.1110
 9247TIP3    H149232   3.762   1.767  12.819  1.6358  0.5387 -1.0257
 9247TIP3    H249233   3.878   1.682  12.868  1.6083  1.0380 -0.1015
 9248TIP3   OH249234   3.547   2.799   2.711  0.3376  0.1682  0.3953
 9248TIP3    H149235   3.530   2.707   2.690  4.5414 -0.7101  0.4469
 9248TIP3    H249236   3.557   2.800   2.806  0.7170  0.5787  0.3515
 9249TIP3   OH249237   5.886   2.306   3.118  0.5484  0.4033 -0.5166
 9249TIP3    H149238   5.882   2.210   3.125  0.4232  0.3387 -1.4000
 9249TIP3    H249239   5.806   2.337   3.160  1.0487  0.1720  0.6310
 9250TIP3   OH249240   0.460   2.536   4.181  0.0051 -0.4209 -0.2124
 9250TIP3    H149241   0.534   2.487   4.145 -0.3203 -0.7551 -0.4379
 9250TIP3    H249242   0.481   2.628   4.165  1.0367 -0.4322  1.0174
 9251TIP3   OH249243   2.878   1.973  16.841 -1.3651  0.0365  0.1727
 9251TIP3    H149244   2.850   2.031  16.771 -0.4047 -0.2411 -0.4444
 9251TIP3    H249245   2.925   2.030  16.902  0.7125 -0.2967 -1.0752
 9252TIP3   OH249246   4.635   0.451  16.705 -0.1594 -0.1366  0.0741
 9252TIP3    H149247   4.552   0.491  16.730  0.6828  1.2593  0.6980
 9252TIP3    H249248   4.635   0.455  16.609 -0.6097  0.2582  0.0875
 9253TIP3   OH249249   3.675   1.710  14.867  0.2833 -0.3771 -0.3180
 9253TIP3    H149250   3.596   1.703  14.922  0.2579  0.1230 -0.2884
 9253TIP3    H249251   3.745   1.674  14.922  0.5723  1.6365  0.7163
 9254TIP3   OH249252   1.755   5.830   1.527  0.5065 -0.5750 -0.0383
 9254TIP3    H149253   1.736   5.781   1.448  1.4551 -0.1521 -0.5373
 9254TIP3    H249254   1.762   5.921   1.498 -1.2685 -0.1033  0.8767
 9255TIP3   OH249255   2.906   3.849  13.384 -0.2624 -0.3510  0.3537
 9255TIP3    H149256   2.856   3.927  13.361  0.2543  0.0535  0.5744
 9255TIP3    H249257   2.898   3.842  13.480  1.5574  0.7431  0.6131
 9256TIP3   OH249258   5.256   3.936   3.943  0.4710 -0.9119 -0.3707
 9256TIP3    H149259   5.298   3.902   4.023  1.1185 -1.2054 -0.8322
 9256TIP3    H249260   5.291   3.881   3.873  0.5681 -0.0880 -0.9644
 9257TIP3   OH249261   0.268   4.715  16.884  0.2839  0.5360  0.6621
 9257TIP3    H149262   0.310   4.798  16.907  0.4043  0.5345  0.4412
 9257TIP3    H249263   0.177   4.725  16.914  1.0947 -0.4965  3.7079
 9258TIP3   OH249264   5.791   6.251   2.431  0.4227  0.0758 -0.3776
 9258TIP3    H149265   5.783   6.336   2.388  0.9694 -0.2040 -1.0357
 9258TIP3    H249266   5.861   6.264   2.495  1.8302 -0.3985 -1.7848
 9259TIP3   OH249267   3.919   6.458  16.101 -0.4956  0.1728 -0.0175
 9259TIP3    H149268   3.830   6.426  16.117 -1.0422  1.2094 -0.9192
 9259TIP3    H249269   3.944   6.418  16.018  0.3644 -1.0742  0.8094
 9260TIP3   OH249270   3.261   2.002  11.951 -1.2996  0.2247  0.6098
 9260TIP3    H149271   3.266   2.090  11.990 -0.6754  0.5602 -0.2050
 9260TIP3    H249272   3.226   2.018  11.863 -0.6045 -0.2783  0.2434
 9261TIP3   OH249273   2.740   0.316  13.288 -0.2216  0.0888 -0.0269
 9261TIP3    H149274   2.687   0.364  13.226  0.2125  1.0752  0.3539
 9261TIP3    H249275   2.680   0.296  13.361 -0.6225 -0.7137 -0.5679
 9262TIP3   OH249276   0.816   4.171   2.809  0.2313  0.0662 -0.2279
 9262TIP3    H149277   0.820   4.208   2.721 -0.4651  0.7856  0.0438
 9262TIP3    H249278   0.906   4.144   2.827 -0.1158 -2.7567 -2.2917
 9263TIP3   OH249279   0.674   0.148   4.172 -0.6556  0.0516  0.4818
 9263TIP3    H149280   0.631   0.202   4.238 -0.6984  1.3805 -0.6146
 9263TIP3    H249281   0.653   0.191   4.089  1.4465 -0.2076 -0.1988
 9264TIP3   OH249282   5.664   3.512   4.916  0.1269  0.1361 -0.1766
 9264TIP3    H149283   5.725   3.482   4.850 -1.3172  2.0207 -2.4433
 9264TIP3    H249284   5.701   3.595   4.948 -0.2295  0.2906 -0.1504
 9265TIP3   OH249285   6.000   4.407   3.202  0.4996  0.3423 -0.3347
 9265TIP3    H149286   5.918   4.424   3.156  0.9799  0.5278 -1.1318
 9265TIP3    H249287   6.068   4.428   3.138  1.1775  0.7277  0.5058
 9266TIP3   OH249288   4.678   2.776   4.073  0.0969  0.4075  0.1343
 9266TIP3    H149289   4.653   2.711   4.139  1.0762 -0.4933 -0.3680
 9266TIP3    H249290   4.720   2.725   4.004 -0.8337  1.3589 -1.1487
 9267TIP3   OH249291   4.727   2.736  14.803  0.0242 -0.1956  0.3877
 9267TIP3    H149292   4.815   2.747  14.768 -0.2540  0.8404  0.0134
 9267TIP3    H249293   4.741   2.710  14.895  0.7134 -0.2938  0.2555
 9268TIP3   OH249294   5.220   1.357   2.427  0.0962  0.4591 -1.3577
 9268TIP3    H149295   5.165   1.392   2.498  2.2849 -0.1226  0.7102
 9268TIP3    H249296   5.195   1.265   2.420  0.8118  0.1787 -0.3752
 9269TIP3   OH249297   1.467   5.000  14.645 -0.0959 -0.3786 -0.0288
 9269TIP3    H149298   1.405   4.937  14.682 -0.0436 -0.6202 -0.3482
 9269TIP3    H249299   1.519   4.948  14.583  0.1011 -0.0717 -0.1187
 9270TIP3   OH249300   2.543   4.206   0.674 -0.5511 -0.3931 -0.5142
 9270TIP3    H149301   2.604   4.138   0.648 -0.6375 -0.3362 -0.8649
 9270TIP3    H249302   2.460   4.161   0.687 -0.4806 -0.4409 -0.2135
 9271TIP3   OH249303   4.293   3.121  13.782 -0.0252 -0.4661 -0.4106
 9271TIP3    H149304   4.316   3.028  13.787  2.5364  0.1526 -0.3609
 9271TIP3    H249305   4.243   3.137  13.862  3.5629 -0.7516  1.9807
 9272TIP3   OH249306   6.329   5.309   3.596  0.0150  0.3335 -0.5571
 9272TIP3    H149307   6.405   5.339   3.545 -0.1026 -0.9892 -1.5381
 9272TIP3    H249308   6.325   5.215   3.579 -0.9430  0.1390  0.7085
 9273TIP3   OH249309   5.262   3.395  17.167  0.2444 -0.1293 -0.0935
 9273TIP3    H149310   5.184   3.435  17.205  0.8194  1.7164 -0.8005
 9273TIP3    H249311   5.233   3.359  17.083 -0.0570 -0.3255  0.0966
 9274TIP3   OH249312   2.553   4.531  10.983 -0.9741  0.0701  0.6197
 9274TIP3    H149313   2.517   4.613  11.018 -0.4787  0.7521 -0.4094
 9274TIP3    H249314   2.483   4.495  10.929  0.2326  2.0578 -2.4327
 9275TIP3   OH249315   1.294   2.793   1.141 -0.0428 -0.3029 -0.3282
 9275TIP3    H149316   1.358   2.804   1.211  0.4197  0.9831 -0.9420
 9275TIP3    H249317   1.258   2.706   1.156  1.0111 -0.5811  0.7173
 9276TIP3   OH249318   1.682   0.502   0.135 -0.0998 -0.0663  0.2587
 9276TIP3    H149319   1.655   0.570   0.073 -0.8550  0.0620  0.7299
 9276TIP3    H249320   1.677   0.421   0.084  0.0694  0.1367 -0.0851
 9277TIP3   OH249321   3.162   1.832  14.416 -1.1484 -0.5911 -0.2927
 9277TIP3    H149322   3.183   1.832  14.323 -1.5711 -2.8539 -0.4222
 9277TIP3    H249323   3.201   1.751  14.450 -0.0925  0.7123  1.7244
 9278TIP3   OH249324   4.946   1.233   1.676 -0.1376  0.1178 -0.3319
 9278TIP3    H149325   4.892   1.177   1.620 -0.2065  1.0358 -1.1961
 9278TIP3    H249326   4.988   1.172   1.737 -1.6956 -0.6606 -0.0161
 9279TIP3   OH249327   5.387   3.215  16.178  0.1958 -0.1531 -0.3858
 9279TIP3    H149328   5.311   3.176  16.222  0.1066 -2.1226 -2.1690
 9279TIP3    H249329   5.353   3.243  16.093  0.7553  1.9364  0.0574
 9280TIP3   OH249330   1.506   0.342  11.481 -0.2847 -0.0948  0.4159
 9280TIP3    H149331   1.586   0.390  11.461 -1.3490  1.6483  0.2859
 9280TIP3    H249332   1.514   0.321  11.575  0.4057 -0.1415  0.3551
 9281TIP3   OH249333   0.899   1.448   1.013  0.1157 -0.4067 -0.1349
 9281TIP3    H149334   0.804   1.438   1.017  0.1781 -0.9509  0.0002
 9281TIP3    H249335   0.924   1.482   1.099  0.1438 -1.1031  0.1314
 9282TIP3   OH249336   6.416   4.609  15.662  0.6281 -0.1418  0.2777
 9282TIP3    H149337   6.413   4.650  15.576  1.4877 -1.1980 -0.2593
 9282TIP3    H249338   6.341   4.647  15.709  0.0261  0.2657 -0.9995
 9283TIP3   OH249339   6.017   5.598   3.192  0.3107 -0.3566 -0.1582
 9283TIP3    H149340   6.027   5.581   3.285 -1.0380  1.3966  0.3348
 9283TIP3    H249341   6.072   5.675   3.175 -0.4012  0.0701 -0.5518
 9284TIP3   OH249342   0.642   2.169   1.123  0.4019 -0.1680  0.3440
 9284TIP3    H149343   0.557   2.186   1.082  0.8232 -2.9744 -1.8337
 9284TIP3    H249344   0.633   2.082   1.161  2.1767 -0.3328  0.4329
 9285TIP3   OH249345   1.180   2.703  11.531  0.2639  0.2021  0.5236
 9285TIP3    H149346   1.131   2.649  11.594  1.0493  1.4657  2.2664
 9285TIP3    H249347   1.198   2.644  11.458 -1.3574 -1.0850  1.1202
 9286TIP3   OH249348   4.467   3.473   1.676  0.0277 -0.0090 -0.2605
 9286TIP3    H149349   4.461   3.469   1.772  0.9609  1.2960 -0.1234
 9286TIP3    H249350   4.385   3.436   1.645 -1.7494  2.5831  1.1397
 9287TIP3   OH249351   6.755   1.000   0.403  0.3833 -0.1204 -0.1231
 9287TIP3    H149352   6.664   0.993   0.430  0.0652 -1.7573 -1.5713
 9287TIP3    H249353   6.796   0.919   0.433  0.9683 -0.1525 -0.9890
 9288TIP3   OH249354   2.574   3.279   3.388 -0.1412  0.1547 -0.7896
 9288TIP3    H149355   2.589   3.364   3.347 -1.2911  1.3457  1.1581
 9288TIP3    H249356   2.659   3.254   3.425  0.6589 -0.4678 -2.9621
 9289TIP3   OH249357   2.772   0.181  15.819 -0.6283  0.1609  0.2045
 9289TIP3    H149358   2.721   0.244  15.871 -0.6693 -0.0612  0.4351
 9289TIP3    H249359   2.761   0.210  15.729 -0.2441  0.7783  0.3553
 9290TIP3   OH249360   2.606   5.303  14.941  0.3114  0.2823 -0.2738
 9290TIP3    H149361   2.659   5.290  15.020  1.9602  0.2624 -1.3588
 9290TIP3    H249362   2.542   5.369  14.966  0.2405 -0.3863  1.3531
 9291TIP3   OH249363   5.211   6.343   0.261  0.6212  0.7573  0.3672
 9291TIP3    H149364   5.185   6.353   0.352  0.2258 -0.4966  0.4075
 9291TIP3    H249365   5.261   6.261   0.259  0.0320  0.4016 -0.6540
 9292TIP3   OH249366   1.675   2.800  10.755 -0.2019  0.0903  0.0289
 9292TIP3    H149367   1.674   2.869  10.689  3.3228 -1.3898 -1.7194
 9292TIP3    H249368   1.657   2.719  10.706  1.3261 -0.8922  1.0487
 9293TIP3   OH249369   3.797   0.298  16.147  0.0793 -0.0779  0.0225
 9293TIP3    H149370   3.703   0.290  16.163  0.4786 -2.2844  1.6667
 9293TIP3    H249371   3.833   0.329  16.230  1.0372 -1.3956  0.1233
 9294TIP3   OH249372   0.148   1.029   6.448  0.2374 -0.5779 -0.6131
 9294TIP3    H149373   0.132   1.117   6.414 -1.1964 -0.2825  0.7329
 9294TIP3    H249374   0.061   0.990   6.455  0.8454 -2.0000 -0.9162
 9295TIP3   OH249375   0.792   2.469  14.553  0.4552  0.4279  0.2667
 9295TIP3    H149376   0.701   2.500  14.548  0.5694  0.9842  1.4696
 9295TIP3    H249377   0.832   2.501  14.473 -0.5416 -0.2816 -0.5416
 9296TIP3   OH249378   0.476   4.979   2.991 -0.2522  0.0262 -0.2088
 9296TIP3    H149379   0.568   5.006   2.981 -1.0023  2.3451 -1.2186
 9296TIP3    H249380   0.444   4.969   2.902 -1.3570  0.6402  0.1044
 9297TIP3   OH249381   1.264   0.105  11.496  0.2103  0.0453  0.2612
 9297TIP3    H149382   1.311   0.115  11.413  0.1796 -0.1357  0.2214
 9297TIP3    H249383   1.333   0.100  11.563  0.2180  0.9707  0.3286
 9298TIP3   OH249384   0.735   1.925  14.932  0.7452 -0.2947 -0.4815
 9298TIP3    H149385   0.823   1.937  14.967  0.0557  1.8661  0.6438
 9298TIP3    H249386   0.678   1.967  14.997 -1.0696 -1.3365 -1.3703
 9299TIP3   OH249387   1.071   1.648   0.872  0.0856 -0.8604  0.1965
 9299TIP3    H149388   0.988   1.666   0.916 -0.4478  2.4491 -1.9800
 9299TIP3    H249389   1.049   1.586   0.802 -0.3909 -0.5967  0.1155
 9300TIP3   OH249390   5.142   5.707  15.229 -0.4659  0.0903  0.5374
 9300TIP3    H149391   5.222   5.679  15.183 -1.5422 -1.4884 -0.4301
 9300TIP3    H249392   5.079   5.721  15.158 -2.1096 -2.2142  1.4874
 9301TIP3   OH249393   6.398   2.970   3.282 -0.5022 -0.0162 -0.0320
 9301TIP3    H149394   6.368   2.900   3.223  0.4386 -0.1385 -0.3783
 9301TIP3    H249395   6.450   3.028   3.226 -0.0075  0.1323  0.5742
 9302TIP3   OH249396   1.886   5.707   5.824  0.4931  0.1572 -0.4913
 9302TIP3    H149397   1.967   5.736   5.864  0.3209  0.1928 -0.1629
 9302TIP3    H249398   1.825   5.698   5.897  0.2657 -0.0833 -0.7075
 9303TIP3   OH249399   5.658   0.762  15.388 -0.0503 -0.0879 -0.1983
 9303TIP3    H149400   5.660   0.784  15.481  1.5974 -0.7629 -0.0493
 9303TIP3    H249401   5.588   0.698  15.380 -1.4313  1.3474  0.2432
 9304TIP3   OH249402   3.167   3.957   5.570 -0.1889 -0.2403  0.0998
 9304TIP3    H149403   3.127   4.044   5.574 -0.1697 -0.2854  1.6016
 9304TIP3    H249404   3.210   3.947   5.654  1.2791 -1.0248 -0.7244
 9305TIP3   OH249405   2.985   5.578   1.201  0.2491  0.1247  0.1073
 9305TIP3    H149406   2.958   5.491   1.172  1.2354 -0.1144 -0.1107
 9305TIP3    H249407   2.905   5.630   1.200 -0.5827 -1.0984  1.4415
 9306TIP3   OH249408   4.455   4.324   5.474 -0.1690  0.6845  0.5941
 9306TIP3    H149409   4.486   4.306   5.386 -2.3806  0.0141 -0.0759
 9306TIP3    H249410   4.451   4.238   5.517 -1.5595  0.6786  0.4879
 9307TIP3   OH249411   4.945   2.827   4.977  0.5616  0.6388 -0.2034
 9307TIP3    H149412   5.006   2.814   5.050 -1.8539 -1.1327  1.5987
 9307TIP3    H249413   4.934   2.922   4.971  1.0611  0.8244  1.5628
 9308TIP3   OH249414   0.353   1.749   6.429 -0.3514  0.8193 -0.0499
 9308TIP3    H149415   0.387   1.660   6.419 -1.2238  0.5099 -0.3162
 9308TIP3    H249416   0.431   1.804   6.439  0.2267  0.1216 -0.6736
 9309TIP3   OH249417   1.310   5.826  11.435 -0.1273  0.3028 -0.3917
 9309TIP3    H149418   1.226   5.809  11.478 -0.7524  1.6285 -1.0701
 9309TIP3    H249419   1.315   5.763  11.364 -0.7973  0.5760 -0.6798
 9310TIP3   OH249420   4.748   3.782   1.402 -0.0845  0.3505 -0.1000
 9310TIP3    H149421   4.703   3.722   1.462  2.6093 -1.0366  0.6179
 9310TIP3    H249422   4.678   3.818   1.347 -1.9482 -2.4098  0.3450
 9311TIP3   OH249423   2.214   1.734  11.630  0.2187 -0.3228 -0.3422
 9311TIP3    H149424   2.304   1.722  11.598  0.0005  0.5519 -1.3164
 9311TIP3    H249425   2.164   1.760  11.552 -0.3151  1.9582  0.7063
 9312TIP3   OH249426   0.082   2.300  16.498  0.2303  0.4021 -0.1105
 9312TIP3    H149427   0.047   2.218  16.533  3.6285 -1.3418 -0.5569
 9312TIP3    H249428   0.101   2.353  16.576  0.8634 -0.4806  0.3486
 9313TIP3   OH249429   2.965   4.784   3.555 -0.0704  0.4001  0.6071
 9313TIP3    H149430   2.935   4.705   3.511  1.4631 -0.3619  0.8942
 9313TIP3    H249431   2.997   4.754   3.640 -0.2002  1.4336  1.0291
 9314TIP3   OH249432   3.030   2.496  11.671  0.0865  0.4866  0.5577
 9314TIP3    H149433   3.012   2.470  11.762  0.5060 -1.3540  0.1414
 9314TIP3    H249434   3.023   2.591  11.671 -0.3391  0.4692  2.4363
 9315TIP3   OH249435   6.012   4.902   1.230  0.0617  0.1478 -0.0733
 9315TIP3    H149436   5.933   4.927   1.182 -1.0655  1.4149  2.3605
 9315TIP3    H249437   5.983   4.834   1.291  1.1442 -0.3722 -0.1295
 9316TIP3   OH249438   5.423   5.243  12.460 -0.1541  0.1859  0.1402
 9316TIP3    H149439   5.335   5.234  12.494  0.0571  1.3938  1.0025
 9316TIP3    H249440   5.460   5.319  12.504  0.9421  0.3645 -1.0207
 9317TIP3   OH249441   4.414   2.985   1.873 -0.3177  0.0694 -0.1382
 9317TIP3    H149442   4.410   2.917   1.806  1.3316  0.5607 -0.7528
 9317TIP3    H249443   4.461   2.945   1.946  2.1019  1.0270 -1.1226
 9318TIP3   OH249444   2.100   0.000  15.026  0.6079 -0.3500  0.2248
 9318TIP3    H149445   2.127   0.079  15.073  0.3809 -0.7778  1.1050
 9318TIP3    H249446   2.031  -0.037  15.081 -0.3610 -0.3364 -0.9660
 9319TIP3   OH249447   3.633   2.929  15.860  0.5840 -0.0934 -0.6938
 9319TIP3    H149448   3.590   2.936  15.775 -1.8054 -0.1128  0.4638
 9319TIP3    H249449   3.639   3.020  15.891  1.7229 -0.0587 -1.0039
 9320TIP3   OH249450   6.799   1.029  13.937 -0.0908 -0.1910  0.2062
 9320TIP3    H149451   6.792   1.117  13.899  3.0765 -0.4955 -1.2558
 9320TIP3    H249452   6.789   1.043  14.031  0.3371  1.7489 -0.0078
 9321TIP3   OH249453   0.335   3.895   4.517 -0.6076 -0.8550 -0.4230
 9321TIP3    H149454   0.254   3.884   4.469 -0.1322 -1.2783 -1.1314
 9321TIP3    H249455   0.308   3.897   4.609 -1.5755  0.5519 -0.7143
 9322TIP3   OH249456   1.275   6.682  14.407 -0.9512  0.0140 -0.4352
 9322TIP3    H149457   1.204   6.618  14.413 -0.8772  0.0546  0.8800
 9322TIP3    H249458   1.351   6.638  14.444 -0.7181  0.6108 -0.1956
 9323TIP3   OH249459   1.714   1.294   2.499 -0.0980  0.8467 -0.2248
 9323TIP3    H149460   1.809   1.284   2.492 -0.1303  0.6111 -0.3378
 9323TIP3    H249461   1.691   1.247   2.579 -0.2203  0.2162 -0.6276
 9324TIP3   OH249462   4.076   2.555  14.669  0.1927  0.0255 -0.2258
 9324TIP3    H149463   4.042   2.540  14.581  1.1654  2.9667 -1.1621
 9324TIP3    H249464   4.154   2.500  14.675 -0.5693 -1.1128 -0.7549
 9325TIP3   OH249465   1.609   1.822  10.952 -0.5247 -0.3486 -0.5785
 9325TIP3    H149466   1.687   1.769  10.935 -0.8846 -1.1429  0.2283
 9325TIP3    H249467   1.606   1.884  10.879  2.0968  1.1480  0.5066
 9326TIP3   OH249468   4.716   0.236  16.227  0.2639 -0.2895 -0.6094
 9326TIP3    H149469   4.807   0.235  16.257  0.1169 -0.9027 -0.1655
 9326TIP3    H249470   4.669   0.284  16.296  0.1266 -0.6455 -0.4541
 9327TIP3   OH249471   0.557   2.111   0.599 -0.5090  0.5448  0.2879
 9327TIP3    H149472   0.555   2.149   0.511 -0.9234 -0.8453 -0.3209
 9327TIP3    H249473   0.591   2.022   0.586 -1.2335  0.0836  1.4352
 9328TIP3   OH249474   1.640   4.114   4.209  0.3562  0.5896 -0.4213
 9328TIP3    H149475   1.636   4.051   4.281  0.8187 -0.1014 -0.9910
 9328TIP3    H249476   1.612   4.197   4.248 -1.6204 -0.2487  0.0109
 9329TIP3   OH249477   4.621   2.434   0.742 -0.0478 -0.2122  0.3043
 9329TIP3    H149478   4.622   2.529   0.757 -0.0865  0.1659 -1.8865
 9329TIP3    H249479   4.529   2.410   0.746 -0.2022  0.1556 -0.8462
 9330TIP3   OH249480   4.672   0.963   5.168  0.6613  0.1044 -0.3694
 9330TIP3    H149481   4.673   0.893   5.233 -1.5255  0.3025 -0.0755
 9330TIP3    H249482   4.581   0.966   5.137  1.1926  1.4249 -1.8885
 9331TIP3   OH249483   5.927   0.888   1.538  0.2147  0.1671 -0.3929
 9331TIP3    H149484   5.979   0.966   1.516  2.0007  0.0554  3.0687
 9331TIP3    H249485   5.860   0.921   1.598  0.5792 -0.8302  0.5769
 9332TIP3   OH249486   1.254   2.379   6.134 -0.1148  0.0491  0.1287
 9332TIP3    H149487   1.289   2.305   6.183  0.9078  0.9224  0.7329
 9332TIP3    H249488   1.204   2.430   6.198 -0.4439  0.1242 -0.1840
 9333TIP3   OH249489   1.720   4.038  15.814 -0.1822  0.1511 -0.2347
 9333TIP3    H149490   1.815   4.043  15.807 -0.2424  0.0586 -1.1993
 9333TIP3    H249491   1.701   3.945  15.809 -0.2406  0.0674  1.2522
 9334TIP3   OH249492   2.910   0.503  15.220 -0.4137 -0.5785 -0.0373
 9334TIP3    H149493   2.961   0.572  15.177 -1.0398 -0.4908 -0.6569
 9334TIP3    H249494   2.827   0.546  15.244 -0.6918 -1.0398 -0.1701
 9335TIP3   OH249495   1.580   6.502   5.416 -0.3276 -0.7283 -0.4968
 9335TIP3    H149496   1.640   6.545   5.354 -0.8349  0.5385 -0.1210
 9335TIP3    H249497   1.494   6.511   5.376 -0.4605 -1.2389 -0.3215
 9336TIP3   OH249498   5.895   6.505   6.520  0.1324 -0.7020  0.1624
 9336TIP3    H149499   5.929   6.419   6.544  1.0797 -0.1304  0.9539
 9336TIP3    H249500   5.801   6.492   6.507  0.5493 -2.2063 -1.5058
 9337TIP3   OH249501   3.586   3.948   2.773  0.0606  0.3347 -0.2570
 9337TIP3    H149502   3.572   4.022   2.833  1.3030  0.8079 -0.5425
 9337TIP3    H249503   3.574   3.870   2.827 -0.9037  0.7376  0.1271
 9338TIP3   OH249504   1.983   3.871   3.076  0.3758 -0.2223  0.9613
 9338TIP3    H149505   1.897   3.842   3.042  0.7819 -0.3243 -0.0134
 9338TIP3    H249506   1.985   3.965   3.057 -0.4890  0.2555  3.1335
 9339TIP3   OH249507   4.531   4.748  13.876 -0.3056 -0.4738 -0.2321
 9339TIP3    H149508   4.615   4.703  13.881  0.5854  1.3006  1.2614
 9339TIP3    H249509   4.483   4.717  13.953  0.2477  0.9678  0.7080
 9340TIP3   OH249510   6.804   0.501   4.698  0.3487 -0.6337  0.0064
 9340TIP3    H149511   6.879   0.441   4.695  0.1778 -0.9551  1.4940
 9340TIP3    H249512   6.842   0.585   4.725  0.0779 -1.0103  1.6384
 9341TIP3   OH249513   0.291   1.296  15.944  0.2611  0.1447 -0.4264
 9341TIP3    H149514   0.355   1.272  16.011 -0.2656 -0.1585 -0.0298
 9341TIP3    H249515   0.263   1.212  15.907 -0.7165  0.2063  0.1525
 9342TIP3   OH249516   3.697   2.919   5.883  0.4131 -0.2889  0.1035
 9342TIP3    H149517   3.693   2.966   5.966  0.3722 -1.4678  0.7703
 9342TIP3    H249518   3.790   2.899   5.871  1.1247  3.8242 -2.3808
 9343TIP3   OH249519   0.255   6.189  15.562 -0.3482  0.5252 -0.0668
 9343TIP3    H149520   0.274   6.277  15.529 -1.4560  0.7936 -0.0127
 9343TIP3    H249521   0.259   6.133  15.484 -0.8962  0.8292 -0.3170
 9344TIP3   OH249522   3.730   6.369  14.798 -0.3466  0.4853 -0.3827
 9344TIP3    H149523   3.731   6.329  14.885 -1.8582 -1.6047 -1.2941
 9344TIP3    H249524   3.819   6.403  14.786  0.7076 -1.7220  0.8371
 9345TIP3   OH249525   3.950   6.179   4.595  0.3670 -0.1762 -0.0273
 9345TIP3    H149526   3.945   6.256   4.539  1.2764  0.9593  1.4044
 9345TIP3    H249527   4.042   6.172   4.618 -0.1553  0.1358  2.3082
 9346TIP3   OH249528   3.705   0.886   1.417 -0.7084  0.0602 -0.2986
 9346TIP3    H149529   3.789   0.904   1.459 -0.7041 -1.7630  0.5397
 9346TIP3    H249530   3.643   0.880   1.489 -0.8991 -2.0271 -0.5833
 9347TIP3   OH249531   6.546   3.474   3.805  0.7300 -0.6502 -0.5165
 9347TIP3    H149532   6.621   3.435   3.761  0.7224 -0.3981 -0.7514
 9347TIP3    H249533   6.584   3.519   3.881  0.7586 -0.9569 -0.3480
 9348TIP3   OH249534   4.010   2.663   2.342 -0.3087 -0.1544 -0.0192
 9348TIP3    H149535   4.000   2.653   2.248  2.1654 -1.4712 -0.1973
 9348TIP3    H249536   4.103   2.683   2.354 -0.1475 -2.0114  2.2598
 9349TIP3   OH249537   2.635   6.178  15.274  0.2895 -0.3763  0.5440
 9349TIP3    H149538   2.690   6.174  15.195  1.7029 -0.8623  1.5432
 9349TIP3    H249539   2.692   6.150  15.345 -0.7172  0.9075  1.8956
 9350TIP3   OH249540   4.321   6.630  15.032 -0.2565 -0.4435 -0.3607
 9350TIP3    H149541   4.280   6.699  14.980 -0.5727  0.0319  0.5153
 9350TIP3    H249542   4.412   6.629  15.003 -0.0781  0.8514  0.1679
 9351TIP3   OH249543   3.764   2.177  14.923 -0.0300 -0.3157  0.2418
 9351TIP3    H149544   3.848   2.143  14.953  0.2235  0.5301  0.4832
 9351TIP3    H249545   3.759   2.266  14.958 -0.1243  0.3670 -1.4774
 9352TIP3   OH249546   4.108   2.814   3.331 -0.1375 -0.2423  0.0672
 9352TIP3    H149547   4.050   2.754   3.378  0.5333 -0.6130  0.4207
 9352TIP3    H249548   4.096   2.792   3.239  0.4554 -1.2352  0.2261
 9353TIP3   OH249549   1.458   5.874  17.275 -0.2263  1.3470  0.2922
 9353TIP3    H149550   1.387   5.841  17.219 -0.4305  2.9868 -0.4413
 9353TIP3    H249551   1.413   5.908  17.352  0.1215 -1.8308  1.9906
 9354TIP3   OH249552   6.474   1.902  15.367  0.5982  0.1103 -0.5183
 9354TIP3    H149553   6.418   1.825  15.375  0.7416 -0.0705 -1.1877
 9354TIP3    H249554   6.469   1.945  15.452 -0.1393 -0.1902 -0.4083
 9355TIP3   OH249555   1.797   4.537   4.661 -0.4418 -0.6377 -0.2165
 9355TIP3    H149556   1.805   4.622   4.704 -0.3429 -0.5905 -0.3276
 9355TIP3    H249557   1.731   4.491   4.712  1.0208 -1.2910  1.1590
 9356TIP3   OH249558   3.331   0.898   0.006  0.1671  0.6798  0.0002
 9356TIP3    H149559   3.355   0.990   0.009  1.4308  0.3993 -1.3112
 9356TIP3    H249560   3.411   0.851   0.031  1.2519 -0.2743 -4.7596
 9357TIP3   OH249561   5.749   1.029   5.761  0.3770 -0.8722 -0.2047
 9357TIP3    H149562   5.702   1.021   5.678 -0.4744 -0.2125  0.2109
 9357TIP3    H249563   5.708   0.964   5.819 -0.3844  0.0536  0.3144
 9358TIP3   OH249564   3.103   4.375   3.132  0.0682 -0.1465 -0.3879
 9358TIP3    H149565   3.029   4.399   3.076  0.7623  1.6272 -0.5753
 9358TIP3    H249566   3.065   4.319   3.199 -1.2063 -0.3211 -1.2382
 9359TIP3   OH249567   6.663   1.776  17.075  0.4927  0.0792 -0.2592
 9359TIP3    H149568   6.599   1.819  17.018  2.5222 -0.0958 -2.7454
 9359TIP3    H249569   6.683   1.842  17.142 -2.7412 -0.1086  0.9679
 9360TIP3   OH249570   3.153   3.971   2.843  0.4037 -0.2987 -0.7392
 9360TIP3    H149571   3.218   4.039   2.826  1.2048 -0.8792 -0.0267
 9360TIP3    H249572   3.141   3.971   2.937  0.0328 -0.7874 -0.7826
 9361TIP3   OH249573   0.881   1.166   5.370  0.5649 -0.4163 -0.1266
 9361TIP3    H149574   0.838   1.154   5.454  0.7611 -0.4745 -0.0343
 9361TIP3    H249575   0.811   1.159   5.305  0.4805 -0.7701  0.0070
 9362TIP3   OH249576   0.646   3.489  12.759 -0.3605  0.5066 -0.7019
 9362TIP3    H149577   0.560   3.455  12.785 -0.3584 -1.1909 -2.7425
 9362TIP3    H249578   0.625   3.568  12.707 -0.6330  0.6410 -0.3934
 9363TIP3   OH249579   6.772   2.393  11.511 -0.3215 -0.3635  0.2145
 9363TIP3    H149580   6.842   2.456  11.524 -1.3797  0.7658  0.5893
 9363TIP3    H249581   6.813   2.307  11.521  1.2460  0.2471 -0.8497
 9364TIP3   OH249582   3.622   1.408  16.685 -0.0779 -0.9653 -0.3089
 9364TIP3    H149583   3.589   1.376  16.600  0.5133  2.4792 -1.9148
 9364TIP3    H249584   3.717   1.403  16.677 -0.0066  0.1108 -0.1592
 9365TIP3   OH249585   4.776   2.593  12.941  0.2225  0.1216 -0.0663
 9365TIP3    H149586   4.777   2.687  12.928 -1.2035  0.4011  1.8397
 9365TIP3    H249587   4.735   2.558  12.861  3.1264  0.8525 -1.9898
 9366TIP3   OH249588   1.717   6.695  14.285  0.1343 -0.7349  0.2292
 9366TIP3    H149589   1.626   6.707  14.260  0.2140  0.3168  0.4219
 9366TIP3    H249590   1.721   6.606  14.320 -1.1933 -0.1712  1.8578
 9367TIP3   OH249591   3.485   1.904  13.127 -0.0239  0.4080  0.1816
 9367TIP3    H149592   3.562   1.850  13.112 -0.3734 -0.0518  0.0577
 9367TIP3    H249593   3.421   1.845  13.164 -0.4364  0.7206 -0.0300
 9368TIP3   OH249594   5.291   4.869  16.087  0.2758  0.0366 -0.6584
 9368TIP3    H149595   5.300   4.865  15.992  1.4419 -1.5736 -0.4934
 9368TIP3    H249596   5.379   4.891  16.118 -0.3103  1.5067  0.0080
 9369TIP3   OH249597   6.304   0.804  14.772  0.9477  0.8140 -0.1373
 9369TIP3    H149598   6.359   0.855  14.832  0.8246 -0.0750  0.7399
 9369TIP3    H249599   6.291   0.720  14.816  1.5077 -0.1553 -1.7526
 9370TIP3   OH249600   1.772   6.194   4.909  0.4409 -0.0454  0.2410
 9370TIP3    H149601   1.743   6.284   4.893 -1.7323 -0.4864  1.5215
 9370TIP3    H249602   1.865   6.202   4.930  0.5141  1.7876 -0.7150
 9371TIP3   OH249603   1.631   4.612  12.882 -0.1277 -0.4093  0.1276
 9371TIP3    H149604   1.611   4.705  12.873 -0.0424 -0.4726 -0.7282
 9371TIP3    H249605   1.568   4.580  12.948 -0.9884 -0.0139 -0.4922
 9372TIP3   OH249606   6.232   5.803  11.450 -0.2971 -0.2666 -0.5983
 9372TIP3    H149607   6.178   5.767  11.380  0.3817  0.3567 -1.4579
 9372TIP3    H249608   6.222   5.898  11.441  0.4140 -0.1642 -0.3539
 9373TIP3   OH249609   5.451   4.928   2.716  0.6451  0.0304 -0.6705
 9373TIP3    H149610   5.495   4.870   2.779 -0.1597  0.4543  0.2874
 9373TIP3    H249611   5.470   4.888   2.630  0.6354 -1.3004 -0.0741
 9374TIP3   OH249612   4.916   4.209  10.968  0.0564  0.3071 -0.0174
 9374TIP3    H149613   5.006   4.197  10.936  0.2899 -0.5390  0.9532
 9374TIP3    H249614   4.863   4.213  10.888  0.7884 -0.4965 -0.5572
 9375TIP3   OH249615   5.969   0.540  15.709  0.2062  0.1944  0.1000
 9375TIP3    H149616   5.932   0.616  15.665  0.0651 -0.0349 -0.1827
 9375TIP3    H249617   5.929   0.465  15.665  0.5098 -0.0469  0.2298
 9376TIP3   OH249618   4.053   6.495  11.352  0.4256 -0.2308  0.3349
 9376TIP3    H149619   4.073   6.540  11.270 -1.6442  0.0896 -0.0348
 9376TIP3    H249620   4.043   6.403  11.328 -0.6079 -0.0748  0.1253
 9377TIP3   OH249621   4.872   1.632  15.727 -0.3086  0.1017 -0.6462
 9377TIP3    H149622   4.955   1.667  15.760 -0.6661 -0.2918  0.6920
 9377TIP3    H249623   4.897   1.578  15.652  0.9175 -2.0069  1.2341
 9378TIP3   OH249624   1.785   1.071  14.229  0.2210 -0.1162 -0.1481
 9378TIP3    H149625   1.699   1.068  14.187  0.8409  1.7125 -1.6229
 9378TIP3    H249626   1.774   1.136  14.299 -0.0844 -1.2342  0.8596
 9379TIP3   OH249627   5.960   3.734   1.603  0.1355  0.2029 -0.8201
 9379TIP3    H149628   5.912   3.781   1.534 -0.9029 -0.5140 -0.6071
 9379TIP3    H249629   5.894   3.675   1.641  0.3245  1.5617  1.7056
 9380TIP3   OH249630   1.591   1.087   4.300  0.0359 -0.0806  0.2788
 9380TIP3    H149631   1.638   1.110   4.380 -1.0143 -2.2266  1.5605
 9380TIP3    H249632   1.590   1.167   4.248  0.1940  1.5218  2.7057
 9381TIP3   OH249633   2.391   3.023  13.999 -0.3545 -0.2203 -0.1261
 9381TIP3    H149634   2.455   2.965  14.041  1.3064  0.6870 -1.3065
 9381TIP3    H249635   2.418   3.111  14.026 -1.2545  0.1686 -0.4719
 9382TIP3   OH249636   3.910   0.497  17.273 -0.3221  0.1658  0.3690
 9382TIP3    H149637   3.875   0.563  17.213  0.2394  0.6741  0.5865
 9382TIP3    H249638   3.983   0.458  17.226 -2.3016 -2.2018 -0.8201
 9383TIP3   OH249639   5.841   4.248   3.011  0.2577 -0.2326 -0.1215
 9383TIP3    H149640   5.925   4.218   3.047 -0.0586 -1.1499 -0.1454
 9383TIP3    H249641   5.803   4.170   2.970 -0.7851  0.0956  0.2141
 9384TIP3   OH249642   6.352   3.202  14.096  0.5861 -0.5091  0.0220
 9384TIP3    H149643   6.383   3.279  14.144  1.8838 -1.1005  0.1569
 9384TIP3    H249644   6.419   3.135  14.113  1.2326 -0.6629 -2.8097
 9385TIP3   OH249645   2.186   1.665  13.741 -0.2238  0.2864 -0.2403
 9385TIP3    H149646   2.241   1.626  13.673 -1.0155 -0.2072 -0.6036
 9385TIP3    H249647   2.134   1.592  13.774  0.0115  0.5704  0.7517
 9386TIP3   OH249648   4.399   3.784  15.718  0.1445  0.5039  0.0253
 9386TIP3    H149649   4.342   3.715  15.753 -0.2727  1.3285  1.0072
 9386TIP3    H249650   4.375   3.862  15.768  0.9515  1.2506 -0.7423
 9387TIP3   OH249651   4.528   1.334  13.166 -0.2791 -0.0868 -0.3847
 9387TIP3    H149652   4.530   1.319  13.071 -0.8593  2.4653 -0.8581
 9387TIP3    H249653   4.491   1.422  13.175  0.5986  0.0625  2.1777
 9388TIP3   OH249654   4.636   0.533   0.529 -0.1519 -0.3222  0.6294
 9388TIP3    H149655   4.593   0.484   0.459 -0.6287 -0.1979  0.8304
 9388TIP3    H249656   4.588   0.615   0.534  0.4797  0.0583  0.4694
 9389TIP3   OH249657   0.440   3.655   2.621 -0.0004  0.0062 -0.6954
 9389TIP3    H149658   0.355   3.615   2.601  0.8116 -1.2555 -1.7265
 9389TIP3    H249659   0.456   3.715   2.548 -0.0744  0.3554 -0.4253
 9390TIP3   OH249660   0.535   5.226   2.775  0.7017 -0.0876 -0.1706
 9390TIP3    H149661   0.543   5.137   2.740 -2.1085 -0.6066  0.3586
 9390TIP3    H249662   0.546   5.282   2.698  0.5077 -0.9760 -0.8605
 9391TIP3   OH249663   0.324   6.747   4.150 -0.4884 -0.3730 -0.2261
 9391TIP3    H149664   0.312   6.841   4.136  0.9422  0.0663  1.3684
 9391TIP3    H249665   0.407   6.727   4.108 -1.9890 -1.4731 -2.7950
 9392TIP3   OH249666   6.439   3.957   2.456  0.1683 -0.3236 -0.0550
 9392TIP3    H149667   6.485   3.877   2.481  0.2559 -1.4662 -3.6255
 9392TIP3    H249668   6.363   3.959   2.514  1.7052 -1.4080  2.0805
 9393TIP3   OH249669   1.650   5.636   5.595 -0.4777 -0.2841  0.0277
 9393TIP3    H149670   1.692   5.583   5.662  2.8290  0.4050 -1.3863
 9393TIP3    H249671   1.636   5.721   5.636  2.9622  0.6181 -0.5511
 9394TIP3   OH249672   4.270   3.765  14.345  0.0489  0.3469  0.1277
 9394TIP3    H149673   4.200   3.816  14.385  1.4256  1.4044  1.2718
 9394TIP3    H249674   4.271   3.682  14.393 -1.2265 -0.1808 -0.7406
 9395TIP3   OH249675   6.566   1.004   4.911 -0.1853 -0.5186  0.4479
 9395TIP3    H149676   6.591   0.924   4.866 -0.1653 -0.5988  0.5991
 9395TIP3    H249677   6.630   1.069   4.882 -0.0089 -0.6376  0.5684
 9396TIP3   OH249678   3.696   2.431   1.597  0.6645 -0.0699  0.1466
 9396TIP3    H149679   3.729   2.507   1.645  3.3021 -0.0660 -1.5767
 9396TIP3    H249680   3.774   2.390   1.561 -0.9201 -2.3850 -0.7475
 9397TIP3   OH249681   1.112   0.204  12.389  0.1357  0.2016  0.1809
 9397TIP3    H149682   1.076   0.186  12.475 -1.7142 -1.2600 -0.8715
 9397TIP3    H249683   1.042   0.183  12.328  1.9979 -0.4858 -1.7957
 9398TIP3   OH249684   3.612   0.826  11.712  0.1593  0.2808 -0.1912
 9398TIP3    H149685   3.578   0.779  11.788  2.2033 -0.3362  0.3781
 9398TIP3    H249686   3.647   0.908  11.748  0.8466  0.1284 -0.4983
 9399TIP3   OH249687   1.667   0.369  13.916 -0.1226  0.0831  0.0644
 9399TIP3    H149688   1.754   0.332  13.901  0.1643  0.5227  0.6251
 9399TIP3    H249689   1.674   0.413  14.000 -0.6873  0.7541 -0.2365
 9400TIP3   OH249690   2.487   1.804   5.575 -0.3352 -0.2510 -0.0478
 9400TIP3    H149691   2.410   1.785   5.522 -0.1149 -0.2582 -0.3719
 9400TIP3    H249692   2.551   1.739   5.547  0.4099  0.9153 -1.1306
 9401TIP3   OH249693   2.005   3.271  13.377  0.0517 -0.0497 -0.1858
 9401TIP3    H149694   2.010   3.210  13.451 -1.2044 -0.1645 -0.1874
 9401TIP3    H249695   1.918   3.311  13.384  0.7206  1.4961 -0.3894
 9402TIP3   OH249696   5.999   1.464   0.388 -0.0851  0.0122  0.1066
 9402TIP3    H149697   6.049   1.504   0.317  0.4096 -0.7491  0.0218
 9402TIP3    H249698   6.010   1.370   0.375 -0.5377 -0.1422  0.8094
 9403TIP3   OH249699   6.119   4.297   1.019  0.1849 -0.2185  0.3673
 9403TIP3    H149700   6.175   4.356   1.070  0.5367  0.7576 -1.1209
 9403TIP3    H249701   6.079   4.353   0.953  0.5872 -1.6449 -1.1291
 9404TIP3   OH249702   5.387   5.501  12.734  0.1901  0.7005 -0.0724
 9404TIP3    H149703   5.322   5.433  12.722  0.1157  0.8058 -0.2703
 9404TIP3    H249704   5.471   5.457  12.720  0.3519 -0.1287  3.1696
 9405TIP3   OH249705   1.178   6.779   0.855 -0.0023 -0.2193  0.0930
 9405TIP3    H149706   1.135   6.846   0.907 -2.1975 -1.0261 -0.6148
 9405TIP3    H249707   1.187   6.818   0.768 -0.1938 -0.3984 -0.0083
 9406TIP3   OH249708   6.536   1.199   3.888 -0.3197 -0.2253  0.1534
 9406TIP3    H149709   6.503   1.116   3.924 -0.5756 -0.0859  0.2412
 9406TIP3    H249710   6.459   1.241   3.850 -0.4317  0.5789  1.2647
 9407TIP3   OH249711   3.282   4.742  13.946  0.2605 -0.4096 -0.0624
 9407TIP3    H149712   3.333   4.806  13.995 -0.5344  0.8566 -0.8737
 9407TIP3    H249713   3.252   4.680  14.013 -0.8982  1.3399  1.0803
 9408TIP3   OH249714   2.894   2.239  14.167  0.3314 -0.2671 -0.0561
 9408TIP3    H149715   2.958   2.197  14.224  0.3509 -0.3654 -0.1490
 9408TIP3    H249716   2.820   2.178  14.164  0.1708 -0.0825  0.1720
 9409TIP3   OH249717   3.619   2.728  13.074  0.1314 -0.0469 -0.3357
 9409TIP3    H149718   3.669   2.711  12.994  2.3088 -2.0881  1.3734
 9409TIP3    H249719   3.666   2.800  13.117 -0.0181 -0.1016 -0.0827
 9410TIP3   OH249720   3.495   6.405   0.593  0.3070  0.0919  0.2807
 9410TIP3    H149721   3.419   6.434   0.542  0.6669  2.3197  0.9614
 9410TIP3    H249722   3.472   6.318   0.623 -1.6364  0.3964 -0.2484
 9411TIP3   OH249723   2.692   1.929   3.004  0.1370 -0.0665 -0.0718
 9411TIP3    H149724   2.694   1.911   3.098  0.1547  2.0089  0.3543
 9411TIP3    H249725   2.605   1.965   2.989  0.2179 -0.1850 -0.8114
 9412TIP3   OH249726   3.240   3.952   3.407  0.4660 -0.1747 -0.3102
 9412TIP3    H149727   3.285   3.957   3.492  0.3465  0.0290 -0.2575
 9412TIP3    H249728   3.300   3.903   3.351  1.1604  0.8785 -0.5089
 9413TIP3   OH249729   3.122   2.080   6.106 -0.4173  0.2568  0.5973
 9413TIP3    H149730   3.180   2.045   6.173 -0.8229  0.6138  1.1409
 9413TIP3    H249731   3.080   2.156   6.147  0.2298  1.2077 -0.4613
 9414TIP3   OH249732   6.225   6.113   0.216 -0.3228 -0.4758 -0.4872
 9414TIP3    H149733   6.217   6.023   0.184 -1.9910 -0.9979  1.3012
 9414TIP3    H249734   6.285   6.155   0.154  0.0674 -2.6622 -1.6481
 9415TIP3   OH249735   2.309   6.554   4.723  0.5158  0.6658 -0.0259
 9415TIP3    H149736   2.309   6.517   4.635  0.0690  0.2462  0.1567
 9415TIP3    H249737   2.387   6.516   4.765 -0.0908 -0.2726  0.2526
 9416TIP3   OH249738   0.054   3.783   2.475 -0.1149  0.1351  0.1391
 9416TIP3    H149739   0.127   3.721   2.473  1.2695  1.7229  0.3824
 9416TIP3    H249740   0.015   3.776   2.388  0.4358 -0.5927 -0.0613
 9417TIP3   OH249741   0.587   1.030  11.746 -0.0287 -0.0300 -0.1032
 9417TIP3    H149742   0.531   0.953  11.752  2.5281 -2.0481 -0.8821
 9417TIP3    H249743   0.537   1.101  11.785 -1.6570 -2.5503  2.4763
 9418TIP3   OH249744   6.664   4.624  12.544  0.0827  0.3924 -0.2950
 9418TIP3    H149745   6.676   4.546  12.598 -1.0289 -1.0240 -2.0159
 9418TIP3    H249746   6.735   4.683  12.571 -0.8719  0.0537  3.1593
 9419TIP3   OH249747   5.510   1.482  12.254  0.2467 -0.6304  0.1121
 9419TIP3    H149748   5.501   1.413  12.189 -0.9316  0.9340 -1.4377
 9419TIP3    H249749   5.581   1.537  12.222 -0.5247  0.3091 -0.0309
 9420TIP3   OH249750   2.803   2.437   5.126  0.6298  0.1759  0.1756
 9420TIP3    H149751   2.708   2.435   5.138  0.7347  0.6821  1.1230
 9420TIP3    H249752   2.826   2.347   5.100 -0.0755 -0.0066  0.1914
 9421TIP3   OH249753   1.254   4.775   4.087 -0.0530 -0.3433  0.5699
 9421TIP3    H149754   1.286   4.828   4.160 -0.5394 -3.3599  3.1360
 9421TIP3    H249755   1.322   4.709   4.074 -0.4056 -0.3921 -1.0895
 9422TIP3   OH249756   1.215   0.179   4.139  0.0453 -0.8368 -0.5950
 9422TIP3    H149757   1.140   0.170   4.081 -0.3851  1.0816 -0.3737
 9422TIP3    H249758   1.274   0.108   4.113 -2.0658 -2.7309 -0.3702
 9423TIP3   OH249759   4.451   3.785  11.951 -0.4815  0.5081  0.3828
 9423TIP3    H149760   4.357   3.764  11.947 -0.3897  0.0952  0.3722
 9423TIP3    H249761   4.494   3.711  11.908 -0.2751  1.6462 -1.4222
 9424TIP3   OH249762   4.012   4.680  16.303  0.1871 -0.2363 -0.1467
 9424TIP3    H149763   4.061   4.715  16.377  0.7138 -0.2607 -0.4840
 9424TIP3    H249764   4.010   4.586  16.318  0.4273 -0.2568 -0.2472
 9425TIP3   OH249765   0.286   2.390  12.951  0.1994  0.0892 -0.1328
 9425TIP3    H149766   0.316   2.423  12.867 -0.1461 -0.7298 -0.5885
 9425TIP3    H249767   0.304   2.296  12.948  1.5484  0.2892  1.3029
 9426TIP3   OH249768   6.306   2.433   3.734  0.2120  0.0387 -0.5270
 9426TIP3    H149769   6.338   2.496   3.799 -0.8195 -0.2462  0.2714
 9426TIP3    H249770   6.212   2.429   3.749  0.2549 -1.6445 -0.6018
 9427TIP3   OH249771   4.613   1.620  16.245  0.1518 -0.8942  0.1542
 9427TIP3    H149772   4.703   1.606  16.275 -0.2696 -0.6336  1.5729
 9427TIP3    H249773   4.622   1.683  16.173  1.1928 -1.6513 -0.3987
 9428TIP3   OH249774   1.127   5.928  17.247 -0.3961  0.1123 -0.7378
 9428TIP3    H149775   1.170   6.014  17.253  1.0159 -0.5449 -1.0747
 9428TIP3    H249776   1.095   5.924  17.157 -1.1772  0.6145 -0.4830
 9429TIP3   OH249777   5.200   3.264  15.990 -0.3961  0.2516  0.3698
 9429TIP3    H149778   5.112   3.248  15.956  0.2337 -3.7869  0.4533
 9429TIP3    H249779   5.245   3.310  15.919 -2.5159  2.3202  0.3187
 9430TIP3   OH249780   6.276   0.155  16.553  0.2834 -0.6238  0.8173
 9430TIP3    H149781   6.208   0.172  16.488 -0.0020  0.9874  1.5016
 9430TIP3    H249782   6.358   0.166  16.506  0.0864 -1.7674  0.1830
 9431TIP3   OH249783   3.793   4.398   4.618  0.0694  0.4640  0.0983
 9431TIP3    H149784   3.833   4.485   4.621 -0.1689  0.6254 -1.1443
 9431TIP3    H249785   3.702   4.415   4.591  0.3115 -0.2461 -1.2129
 9432TIP3   OH249786   5.107   3.983   5.673 -0.0369  0.1199 -0.0690
 9432TIP3    H149787   5.178   3.992   5.736 -0.5685 -0.5334  0.6265
 9432TIP3    H249788   5.092   4.072   5.641  0.9557  0.2932 -0.0765
 9433TIP3   OH249789   2.362   1.038   6.139  0.0562  0.3033  0.5745
 9433TIP3    H149790   2.430   0.973   6.157 -1.3254 -1.6640 -1.1407
 9433TIP3    H249791   2.328   1.062   6.226  1.3760 -0.3499  1.2863
 9434TIP3   OH249792   1.515   2.824   0.710  0.7084  0.2051  0.0498
 9434TIP3    H149793   1.574   2.797   0.780  0.8123 -0.0765 -0.1462
 9434TIP3    H249794   1.472   2.903   0.743 -1.2289 -1.4199  1.4993
 9435TIP3   OH249795   4.756   2.584   3.524  0.2253 -0.1798 -0.3119
 9435TIP3    H149796   4.749   2.676   3.502 -1.2788  0.0181  0.9286
 9435TIP3    H249797   4.740   2.580   3.618  1.6676 -1.5495 -0.0944
 9436TIP3   OH249798   5.570   6.529  11.190 -0.0891 -0.1821  0.0387
 9436TIP3    H149799   5.598   6.615  11.222 -1.1791  0.0282  0.4438
 9436TIP3    H249800   5.641   6.500  11.133  1.2598  0.0573  1.5680
 9437TIP3   OH249801   0.083   6.373   4.876  0.1275 -0.2989 -0.3859
 9437TIP3    H149802   0.171   6.391   4.843 -0.3968 -1.4591 -2.5259
 9437TIP3    H249803   0.028   6.376   4.798 -1.4591 -1.3169  0.6804
 9438TIP3   OH249804   3.525   5.917  12.431 -0.5246  0.0838  0.2047
 9438TIP3    H149805   3.530   5.882  12.342 -0.1636  0.0924  0.2220
 9438TIP3    H249806   3.475   5.998  12.422  1.6310  1.4018 -0.3960
 9439TIP3   OH249807   2.251   4.811  15.665 -0.1638 -0.4328 -0.1954
 9439TIP3    H149808   2.341   4.794  15.638 -0.3598 -0.1059 -1.0940
 9439TIP3    H249809   2.206   4.727  15.649 -0.4637 -0.0028 -1.7364
 9440TIP3   OH249810   0.838   2.273  14.269  0.2862  0.3123 -0.0485
 9440TIP3    H149811   0.889   2.217  14.328 -1.3031  0.0845  1.1253
 9440TIP3    H249812   0.884   2.357  14.271 -0.1605  0.5313  2.1206
 9441TIP3   OH249813   6.404   5.690  10.824 -0.7444  0.5137  0.1380
 9441TIP3    H149814   6.327   5.700  10.879 -2.0687 -1.1151 -1.3804
 9441TIP3    H249815   6.459   5.627  10.870  0.4861  2.8442  2.0135
 9442TIP3   OH249816   4.196   1.865  16.353 -0.3827  0.1172 -0.2016
 9442TIP3    H149817   4.263   1.901  16.296 -0.5600  0.5863 -0.1139
 9442TIP3    H249818   4.165   1.940  16.405 -0.9837 -0.0875 -0.2579
 9443TIP3   OH249819   2.427   4.260   5.560  0.0952  0.4193  0.2581
 9443TIP3    H149820   2.504   4.225   5.515  0.2452  0.8762  0.1548
 9443TIP3    H249821   2.398   4.332   5.504  0.1004  0.7930  0.7329
 9444TIP3   OH249822   1.319   4.370   2.177  0.1089 -0.1518  0.3610
 9444TIP3    H149823   1.255   4.431   2.213  1.6162  0.3838  2.2215
 9444TIP3    H249824   1.378   4.426   2.125  0.9015 -0.1664  1.2394
 9445TIP3   OH249825   1.528   4.240  14.020  0.1536  0.4788  0.3620
 9445TIP3    H149826   1.509   4.326  14.058  0.9582  1.0426 -0.4910
 9445TIP3    H249827   1.616   4.219  14.052  0.1489  0.1910  0.1811
 9446TIP3   OH249828   6.148   6.515  12.305 -0.1111 -0.0493  0.0022
 9446TIP3    H149829   6.226   6.479  12.347 -0.2523 -0.5087 -0.1214
 9446TIP3    H249830   6.136   6.461  12.227 -0.9096 -0.3917  0.3550
 9447TIP3   OH249831   4.994   6.771  16.316 -0.1184 -0.6943 -0.2661
 9447TIP3    H149832   5.012   6.799  16.226 -1.2466  1.3640  0.1196
 9447TIP3    H249833   5.080   6.769  16.358  0.4310 -1.7759 -1.3976
 9448TIP3   OH249834   6.637   5.255   5.095  0.3199 -0.5939  0.4052
 9448TIP3    H149835   6.711   5.194   5.089  1.9998  1.4381  0.0708
 9448TIP3    H249836   6.642   5.289   5.185  0.7093  0.6827 -0.0971
 9449TIP3   OH249837   0.044   2.184   0.682  0.3674  0.2292  0.2117
 9449TIP3    H149838   0.139   2.174   0.692  0.0975 -2.0310  0.6182
 9449TIP3    H249839   0.029   2.184   0.587  0.4570 -2.7413  0.1668
 9450TIP3   OH249840   1.760   5.263  11.237 -0.4501 -0.4113 -0.5413
 9450TIP3    H149841   1.814   5.254  11.159  0.2309  1.9585 -0.3807
 9450TIP3    H249842   1.699   5.333  11.217 -2.0037 -1.5452  0.1182
 9451TIP3   OH249843   2.426   3.137  14.963 -0.0936 -0.3591 -0.2089
 9451TIP3    H149844   2.470   3.165  15.043  0.1929  0.6753 -0.7131
 9451TIP3    H249845   2.489   3.157  14.893 -0.6755 -0.4627 -0.7708
 9452TIP3   OH249846   5.098   5.032  16.583  0.0798  0.4793 -0.3934
 9452TIP3    H149847   5.031   5.046  16.517 -1.1959 -0.7640  0.6284
 9452TIP3    H249848   5.178   5.070  16.545 -1.1518  1.8327 -1.6663
 9453TIP3   OH249849   6.389   2.595   4.321  0.1641  0.0167 -0.2355
 9453TIP3    H149850   6.341   2.672   4.352 -0.2435 -0.2559 -0.1801
 9453TIP3    H249851   6.400   2.610   4.227  0.3844  0.3030 -0.1637
 9454TIP3   OH249852   4.380   5.171   4.094  0.4433  0.2350 -0.1438
 9454TIP3    H149853   4.378   5.207   4.006 -0.9248  1.5035  0.3768
 9454TIP3    H249854   4.456   5.213   4.135 -0.1525  1.2834 -0.0754
 9455TIP3   OH249855   6.351   2.613  16.414  0.1807 -0.8193 -0.2147
 9455TIP3    H149856   6.352   2.544  16.348 -1.2605  0.3844 -1.5344
 9455TIP3    H249857   6.262   2.613  16.447 -0.4848  1.9215 -1.8929
 9456TIP3   OH249858   2.675   5.093  17.243 -0.3877 -0.0983  0.0894
 9456TIP3    H149859   2.658   5.015  17.191 -1.3770  0.1231  0.0572
 9456TIP3    H249860   2.757   5.128  17.208 -1.1580  0.1754 -1.4941
 9457TIP3   OH249861   1.576   5.135  11.585 -0.0680 -0.4901  0.4345
 9457TIP3    H149862   1.566   5.079  11.508 -2.2067 -1.3611  1.3016
 9457TIP3    H249863   1.597   5.075  11.656  2.3394  0.3566  0.4850
 9458TIP3   OH249864   0.613   5.284  16.074  0.2581 -0.6112  0.2473
 9458TIP3    H149865   0.600   5.194  16.047  4.8244 -0.9196 -1.4111
 9458TIP3    H249866   0.581   5.337  16.000 -0.1765 -0.9621  0.1867
 9459TIP3   OH249867   4.919   2.592   1.932  0.1381 -0.1168  0.6656
 9459TIP3    H149868   4.924   2.520   1.869  1.3469 -0.2664  0.9214
 9459TIP3    H249869   4.859   2.655   1.891 -0.8516 -1.2123  0.3994
 9460TIP3   OH249870   4.425   2.688  13.218 -0.3913 -0.1661 -0.0374
 9460TIP3    H149871   4.425   2.618  13.153 -2.2239  0.3582 -0.6164
 9460TIP3    H249872   4.518   2.702  13.237  0.1620 -0.5190 -2.3368
 9461TIP3   OH249873   2.657   4.370  13.841 -0.1202 -0.1198 -0.7422
 9461TIP3    H149874   2.688   4.389  13.752  0.1054 -1.0720 -0.8666
 9461TIP3    H249875   2.609   4.449  13.866 -0.3572  0.0791 -1.7832
 9462TIP3   OH249876   5.271   3.964   5.315  0.4209  0.6923  0.7567
 9462TIP3    H149877   5.225   3.880   5.316  0.7303  0.5187  0.8499
 9462TIP3    H249878   5.255   3.999   5.228  1.8410 -0.3560  0.0516
 9463TIP3   OH249879   6.562   5.063  13.456 -0.0703  0.2934 -0.1805
 9463TIP3    H149880   6.495   5.127  13.433  0.0027  0.1722 -0.7346
 9463TIP3    H249881   6.584   5.020  13.374  1.1881  0.8212 -0.1434
 9464TIP3   OH249882   5.988   0.207   1.803 -0.5849 -0.5319  0.0160
 9464TIP3    H149883   6.022   0.181   1.717 -1.3592 -1.5602  0.0160
 9464TIP3    H249884   5.942   0.130   1.835 -2.6582  0.7188  0.1617
 9465TIP3   OH249885   5.607   5.199  15.633 -0.3454 -0.0538 -0.1578
 9465TIP3    H149886   5.527   5.241  15.666  1.3597  3.0337  0.2757
 9465TIP3    H249887   5.644   5.264  15.573  0.2260 -2.7565 -2.8560
 9466TIP3   OH249888   1.730   3.385   4.275  0.4470 -0.0693 -0.4175
 9466TIP3    H149889   1.818   3.347   4.277 -0.3536 -2.0024  1.2867
 9466TIP3    H249890   1.700   3.371   4.186  1.6801  0.1325 -0.8717
 9467TIP3   OH249891   3.544   4.509   2.698 -0.4108 -0.0773 -0.3908
 9467TIP3    H149892   3.520   4.428   2.652  0.0511 -1.0381  1.0694
 9467TIP3    H249893   3.460   4.552   2.714 -0.7750 -0.9794  0.1461
 9468TIP3   OH249894   1.111   5.536   0.495  0.4255  0.1869  0.1705
 9468TIP3    H149895   1.082   5.548   0.585  2.4177  1.2536  0.6948
 9468TIP3    H249896   1.095   5.621   0.453 -2.1134 -0.8131 -0.9819
 9469TIP3   OH249897   1.027   6.449   2.109  0.2316  0.2782 -0.1176
 9469TIP3    H149898   1.059   6.511   2.043  1.5299  0.9950  1.1599
 9469TIP3    H249899   1.027   6.365   2.065 -2.3293  1.2760 -2.1485
 9470TIP3   OH249900   4.828   2.075   6.855 -0.0922 -0.5278  0.1731
 9470TIP3    H149901   4.789   2.011   6.795  0.4335 -1.3745  0.7219
 9470TIP3    H249902   4.821   2.159   6.809  0.0143 -1.1175 -0.9325
 9471TIP3   OH249903   1.184   3.000  15.432 -0.0351  0.4136 -0.5403
 9471TIP3    H149904   1.260   3.014  15.489 -0.0226 -0.7659 -0.2532
 9471TIP3    H249905   1.220   2.958  15.354 -0.7037 -2.4701  0.6395
 9472TIP3   OH249906   0.609   3.743   1.599  0.5917  0.1353  0.2086
 9472TIP3    H149907   0.701   3.769   1.593  0.3880  0.7666 -0.1436
 9472TIP3    H249908   0.584   3.763   1.690  0.8992 -0.3732  0.4098
 9473TIP3   OH249909   5.376   4.269  15.728  0.2875  0.2948  0.2025
 9473TIP3    H149910   5.332   4.317  15.798 -2.2686  0.4075 -1.3970
 9473TIP3    H249911   5.464   4.307  15.724 -0.1910  1.6509  1.9872
 9474TIP3   OH249912   5.848   1.208   4.990 -0.0814  0.2988  0.2401
 9474TIP3    H149913   5.767   1.201   5.040 -0.5264 -0.8876 -0.6082
 9474TIP3    H249914   5.903   1.137   5.024 -0.8455 -1.3092 -1.7106
 9475TIP3   OH249915   5.642   1.585  13.819 -0.0498  0.0185 -0.1541
 9475TIP3    H149916   5.578   1.643  13.862  0.5167  0.3633  0.2264
 9475TIP3    H249917   5.698   1.554  13.889  0.9068  0.6199 -0.6430
 9476TIP3   OH249918   4.433   6.333   4.494 -0.3999  0.4638  0.4294
 9476TIP3    H149919   4.437   6.420   4.534 -2.3697  0.3508  0.9197
 9476TIP3    H249920   4.392   6.348   4.409  2.3960  0.4811 -0.9753
 9477TIP3   OH249921   0.421   5.023   4.631 -0.4381 -0.1435  0.2029
 9477TIP3    H149922   0.394   5.004   4.541 -1.0065  2.8017 -0.3267
 9477TIP3    H249923   0.394   4.947   4.682 -2.0494 -0.9258 -1.7718
 9478TIP3   OH249924   2.254   2.579   3.278  0.4645 -0.1413  0.3841
 9478TIP3    H149925   2.330   2.528   3.305  0.6327  0.4643  1.0496
 9478TIP3    H249926   2.197   2.515   3.234  1.1328 -0.6921  0.3096
 9479TIP3   OH249927   0.776   5.199  14.378 -0.5764  0.1580 -0.1260
 9479TIP3    H149928   0.782   5.123  14.437 -0.0858 -0.5520 -1.0762
 9479TIP3    H249929   0.687   5.194  14.342 -0.5467  0.0352 -0.1832
 9480TIP3   OH249930   0.651   0.426   5.647 -0.4270 -0.2614  0.7025
 9480TIP3    H149931   0.566   0.430   5.603  0.2282  2.4744 -0.3822
 9480TIP3    H249932   0.714   0.454   5.580  1.2887 -1.7940  1.6406
 9481TIP3   OH249933   0.082   2.333   5.981  0.2972 -0.3221  0.6076
 9481TIP3    H149934   0.076   2.313   6.074 -0.7893  0.6640  0.7571
 9481TIP3    H249935   0.057   2.425   5.974 -1.0016 -0.7660 -0.8259
 9482TIP3   OH249936   0.528   2.650  11.335  0.2649  0.3875  0.0095
 9482TIP3    H149937   0.598   2.602  11.290 -1.6706 -1.2983 -1.3427
 9482TIP3    H249938   0.544   2.633  11.428  1.0167 -0.9268 -0.3328
 9483TIP3   OH249939   1.813   6.785   1.995  0.4957  0.1175  0.4770
 9483TIP3    H149940   1.791   6.692   2.003  0.0140  0.2025  0.1705
 9483TIP3    H249941   1.763   6.815   1.919  0.1099  0.7918  0.9956
 9484TIP3   OH249942   6.111   0.822   5.354  0.5546 -0.0750  0.1581
 9484TIP3    H149943   6.021   0.850   5.341  0.3410 -0.8638 -0.0863
 9484TIP3    H249944   6.159   0.861   5.281  0.2454 -0.4076 -0.2243
 9485TIP3   OH249945   2.280   3.653  14.884 -0.2573 -0.4042 -0.0170
 9485TIP3    H149946   2.294   3.674  14.977 -0.0992  0.8791 -0.3199
 9485TIP3    H249947   2.366   3.626  14.852 -0.3366 -0.9659  0.2341
 9486TIP3   OH249948   3.785   2.890  11.162 -0.3559  0.4556  0.1581
 9486TIP3    H149949   3.850   2.937  11.110 -0.5871 -1.2914 -1.7675
 9486TIP3    H249950   3.815   2.900  11.252  1.0919  1.9389 -0.4613
 9487TIP3   OH249951   0.516   5.623  12.618  0.3461 -0.6369 -0.7524
 9487TIP3    H149952   0.509   5.684  12.545 -1.5240 -0.3111 -0.3388
 9487TIP3    H249953   0.604   5.637  12.654  0.5217  0.6545 -1.6672
 9488TIP3   OH249954   1.204   1.001   2.229  0.1983 -0.0260 -0.2873
 9488TIP3    H149955   1.237   0.999   2.319  1.5842  1.9617 -0.7192
 9488TIP3    H249956   1.209   1.093   2.204 -0.2052 -0.5574 -2.4038
 9489TIP3   OH249957   0.542   5.064   5.293 -0.1164  0.2799 -0.0696
 9489TIP3    H149958   0.576   5.084   5.380 -0.6185  1.8178 -0.2133
 9489TIP3    H249959   0.461   5.015   5.309 -1.3467  2.3892  0.3963
 9490TIP3   OH249960   5.770   4.781   1.401 -0.2367 -0.3167  0.0027
 9490TIP3    H149961   5.834   4.798   1.469 -1.3955 -0.9521  1.2684
 9490TIP3    H249962   5.735   4.694   1.421 -1.6701  0.1221 -0.5238
 9491TIP3   OH249963   6.208   3.301   6.399 -0.1620 -0.0402 -0.2765
 9491TIP3    H149964   6.118   3.329   6.415  0.1538  0.5907  0.4242
 9491TIP3    H249965   6.237   3.265   6.483  1.6876  3.7590  0.8177
 9492TIP3   OH249966   1.759   6.218  14.594 -0.3926 -0.1651  0.0031
 9492TIP3    H149967   1.842   6.180  14.563 -0.4657 -0.8722  0.6679
 9492TIP3    H249968   1.725   6.154  14.656 -0.9651  0.5785  0.4630
 9493TIP3   OH249969   6.349   4.979  15.029 -0.0768 -0.0167  0.2931
 9493TIP3    H149970   6.288   4.998  14.957  1.4121  1.2592 -0.6712
 9493TIP3    H249971   6.377   4.889  15.013  1.5492  0.7859 -1.7985
 9494TIP3   OH249972   1.518   5.673  11.301 -0.8488  0.7280 -0.2908
 9494TIP3    H149973   1.477   5.622  11.230 -0.1563 -2.3179  1.4353
 9494TIP3    H249974   1.584   5.726  11.257 -1.5599  0.1061 -2.1650
 9495TIP3   OH249975   1.568   6.438   3.108  0.6511  0.2922  0.0184
 9495TIP3    H149976   1.551   6.386   3.187 -1.7430 -1.0609 -1.3423
 9495TIP3    H249977   1.509   6.402   3.042  2.7665  1.2436 -2.4931
 9496TIP3   OH249978   6.003   1.587  15.571  0.2032 -0.4045  0.1757
 9496TIP3    H149979   6.022   1.625  15.657  0.9864  0.6985 -0.4713
 9496TIP3    H249980   6.049   1.503  15.570  0.5790 -0.2043  0.6621
 9497TIP3   OH249981   2.702   6.455   1.333 -0.3782  0.2032  0.0452
 9497TIP3    H149982   2.712   6.472   1.427 -0.2802  0.5453 -0.0269
 9497TIP3    H249983   2.614   6.486   1.312  0.0743  1.3064 -0.2384
 9498TIP3   OH249984   3.134   1.064   2.273 -0.2050 -0.2966 -0.2850
 9498TIP3    H149985   3.214   1.069   2.325  0.1899 -0.1254 -0.8908
 9498TIP3    H249986   3.111   0.971   2.273  0.3791 -0.4437 -0.6705
 9499TIP3   OH249987   5.622   3.520   0.282 -0.1533 -0.1974 -0.0671
 9499TIP3    H149988   5.695   3.478   0.328 -0.8230 -1.2263  0.0678
 9499TIP3    H249989   5.565   3.447   0.256 -1.1662  0.6017 -0.1176
 9500TIP3   OH249990   0.154   3.373   6.183  0.0242 -0.1418  0.0536
 9500TIP3    H149991   0.190   3.411   6.103 -1.5862  0.4848 -0.3997
 9500TIP3    H249992   0.163   3.279   6.171  0.7384 -0.0196 -0.4097
 9501TIP3   OH249993   1.593   1.475  17.214  0.3436  0.1367  0.5054
 9501TIP3    H149994   1.502   1.493  17.190 -0.5614 -2.5416  1.6966
 9501TIP3    H249995   1.592   1.465  17.309  1.6682 -0.9465  0.4295
 9502TIP3   OH249996   5.208   1.161  12.600 -0.0869 -0.6886 -0.5071
 9502TIP3    H149997   5.247   1.236  12.556  1.3633 -0.4512  1.1278
 9502TIP3    H249998   5.184   1.101  12.529 -0.8514  1.0937 -1.7951
 9503TIP3   OH249999   6.242   4.837   4.315  0.0056 -0.2012  0.1911
 9503TIP3    H150000   6.297   4.840   4.393  0.1382 -1.4945  0.1599
 9503TIP3    H250001   6.212   4.746   4.309 -0.9550  0.1450 -0.6108
 9504TIP3   OH250002   1.638   4.277  15.724 -0.1556 -0.3471  0.0265
 9504TIP3    H150003   1.700   4.350  15.724  1.1956 -1.4669 -2.4488
 9504TIP3    H250004   1.685   4.206  15.768 -1.6321  0.3283  2.8369
 9505TIP3   OH250005   6.460   0.133  16.819 -0.1011 -0.0116  0.2936
 9505TIP3    H150006   6.440   0.123  16.913  0.4987 -1.0014  0.3286
 9505TIP3    H250007   6.434   0.049  16.780 -1.2518  0.7554 -0.5864
 9506TIP3   OH250008   3.271   5.304   2.292  0.4188 -0.0430 -0.2206
 9506TIP3    H150009   3.217   5.367   2.245  0.6607  0.3603  0.0418
 9506TIP3    H250010   3.225   5.221   2.281  0.7186 -0.0488 -1.5752
 9507TIP3   OH250011   2.050   3.409  15.872 -0.1936 -0.1762 -0.0033
 9507TIP3    H150012   2.052   3.495  15.830 -0.2836 -1.2531 -2.2490
 9507TIP3    H250013   2.136   3.400  15.912  0.0739  0.6380 -0.3882
 9508TIP3   OH250014   3.027   3.034  15.316 -0.3560  0.3622 -0.6012
 9508TIP3    H150015   2.995   2.943  15.321  3.2153 -1.0054 -1.1236
 9508TIP3    H250016   3.007   3.061  15.226 -1.9046  0.2995 -0.2888
 9509TIP3   OH250017   3.968   5.614   4.695  0.2900 -0.0495  0.0233
 9509TIP3    H150018   3.996   5.671   4.767  0.0630  0.7721 -0.5277
 9509TIP3    H250019   4.045   5.605   4.639 -0.5751  2.4315 -1.6355
 9510TIP3   OH250020   5.804   1.863  11.781 -0.1607  0.2198 -0.4390
 9510TIP3    H150021   5.757   1.862  11.864 -1.6199 -0.4253 -1.2638
 9510TIP3    H250022   5.896   1.877  11.806 -0.6379  0.4439  1.2436
 9511TIP3   OH250023   3.398   5.842  13.218  0.1613  0.4070  0.2707
 9511TIP3    H150024   3.331   5.868  13.155  1.2587  2.1954 -0.2040
 9511TIP3    H250025   3.451   5.778  13.172 -1.8481 -1.8735  1.0290
 9512TIP3   OH250026   6.192   6.355  14.241  0.2981  0.4039 -0.4402
 9512TIP3    H150027   6.148   6.372  14.158  0.8497 -0.9456 -1.0123
 9512TIP3    H250028   6.157   6.422  14.300 -0.7794  0.8053 -1.5063
 9513TIP3   OH250029   2.204   5.399  14.179 -0.0888 -0.2763  0.4930
 9513TIP3    H150030   2.227   5.392  14.086  3.0912 -1.3071  1.3167
 9513TIP3    H250031   2.205   5.309  14.210  3.3290  0.3924  2.5163
 9514TIP3   OH250032   1.629   6.326  13.112 -0.1385  0.0679  0.1402
 9514TIP3    H150033   1.655   6.346  13.202 -1.8001 -0.8515  0.8617
 9514TIP3    H250034   1.596   6.409  13.077 -0.0706  0.2827  0.5899
 9515TIP3   OH250035   0.927   6.449   3.136  0.0696  0.5766 -0.5069
 9515TIP3    H150036   0.881   6.522   3.179 -1.1866 -0.2937 -0.3466
 9515TIP3    H250037   0.885   6.371   3.172  1.7286 -0.2425 -0.3211
 9516TIP3   OH250038   2.549   4.292  15.096 -0.1424 -0.0822  0.1381
 9516TIP3    H150039   2.638   4.293  15.062 -0.6443 -1.0914 -1.2598
 9516TIP3    H250040   2.559   4.268  15.188  1.1739  1.9875  0.5661
 9517TIP3   OH250041   4.798   4.617  16.665  0.1036  0.1122  0.0560
 9517TIP3    H150042   4.717   4.662  16.687 -0.7847 -1.2480 -0.3673
 9517TIP3    H250043   4.774   4.556  16.596  1.1484 -1.3927  0.9747
 9518TIP3   OH250044   4.199   4.662  15.551  0.1471 -0.2446 -0.0464
 9518TIP3    H150045   4.250   4.651  15.471  2.4052  1.2405  1.1428
 9518TIP3    H250046   4.246   4.611  15.617  0.0490  1.0069  1.0234
 9519TIP3   OH250047   2.276   2.063  14.027 -0.7325  0.0402 -0.0874
 9519TIP3    H150048   2.288   2.145  14.075 -1.4579  0.6335 -0.9033
 9519TIP3    H250049   2.314   1.997  14.084  1.3673  1.1440 -0.1490
 9520TIP3   OH250050   5.133   1.073  10.503 -0.3942 -0.1938 -0.3852
 9520TIP3    H150051   5.174   1.069  10.417 -0.3527 -2.4276 -0.2954
 9520TIP3    H250052   5.205   1.091  10.564 -0.1008 -0.5935 -0.6112
 9521TIP3   OH250053   1.288   3.185   3.339 -0.1769 -0.5203  0.8103
 9521TIP3    H150054   1.229   3.110   3.343  0.2435 -0.8427  1.1175
 9521TIP3    H250055   1.235   3.261   3.363 -0.2409 -0.9346  2.0223
 9522TIP3   OH250056   6.783   0.634  14.575 -0.1289  0.2274 -0.3320
 9522TIP3    H150057   6.792   0.674  14.488  1.1687 -0.9801 -0.7662
 9522TIP3    H250058   6.802   0.542  14.561 -0.6154 -0.1056  1.1247
 9523TIP3   OH250059   2.284   6.316  14.272 -0.3010 -0.0273  0.2667
 9523TIP3    H150060   2.207   6.340  14.323  1.5264 -0.1663  3.1973
 9523TIP3    H250061   2.270   6.224  14.249 -1.2435  0.1029  0.2731
 9524TIP3   OH250062   2.861   1.477  16.878  0.6576 -0.0746 -0.1752
 9524TIP3    H150063   2.890   1.545  16.818 -0.0117 -1.7940 -2.5186
 9524TIP3    H250064   2.766   1.473  16.867  0.1957  1.1393  2.7444
 9525TIP3   OH250065   5.126   3.777   0.793 -0.0938  0.1833 -0.6272
 9525TIP3    H150066   5.214   3.753   0.764 -0.2831  0.4152 -1.4041
 9525TIP3    H250067   5.109   3.721   0.869  0.1495 -0.8914 -1.3604
 9526TIP3   OH250068   5.825   1.472  13.178 -0.9476  0.0421 -0.7964
 9526TIP3    H150069   5.777   1.541  13.223  0.3076  0.5815 -0.2844
 9526TIP3    H250070   5.817   1.396  13.235  0.4619  0.6671  0.2535
 9527TIP3   OH250071   5.070   5.605  11.738  0.1328 -0.2213  0.1219
 9527TIP3    H150072   4.978   5.595  11.764  0.6181 -2.5172  1.0625
 9527TIP3    H250073   5.070   5.594  11.643 -0.5706 -0.2358  0.1219
 9528TIP3   OH250074   0.330   1.183   4.914  0.0800  0.0139 -0.0692
 9528TIP3    H150075   0.396   1.251   4.900 -1.1308  0.9646 -1.4105
 9528TIP3    H250076   0.270   1.221   4.979  1.1758 -1.0939  1.6108
 9529TIP3   OH250077   1.023   2.751  10.831  0.4299 -0.1420  0.5729
 9529TIP3    H150078   1.058   2.713  10.751 -0.3247 -0.0359  0.1974
 9529TIP3    H250079   0.983   2.833  10.804  1.3881  0.5622  1.2722
 9530TIP3   OH250080   4.830   1.565  16.779 -0.0856  0.1946 -0.1782
 9530TIP3    H150081   4.743   1.604  16.785 -0.1840 -0.0690  0.1673
 9530TIP3    H250082   4.862   1.563  16.869 -1.2307 -3.0728  0.2056
 9531TIP3   OH250083   6.255   1.848  11.562 -0.1587  0.3948  0.1920
 9531TIP3    H150084   6.171   1.889  11.542 -1.1692 -1.6791  0.0644
 9531TIP3    H250085   6.285   1.813  11.478  0.2260  0.0220  0.4849
 9532TIP3   OH250086   2.794   6.499  10.911 -0.0932 -0.0480  0.2314
 9532TIP3    H150087   2.783   6.406  10.894  0.1178  0.1043 -0.7661
 9532TIP3    H250088   2.705   6.535  10.903 -0.2681 -0.2499  1.2013
 9533TIP3   OH250089   5.459   6.525   1.980 -0.5357  0.1418  0.3839
 9533TIP3    H150090   5.536   6.553   1.930  1.3239 -1.6665  2.1295
 9533TIP3    H250091   5.465   6.571   2.063 -0.5951 -0.9778  1.0282
 9534TIP3   OH250092   0.784   2.320   0.529 -0.4891  0.2765  0.5617
 9534TIP3    H150093   0.731   2.399   0.527 -0.8737  0.0357  1.0935
 9534TIP3    H250094   0.760   2.277   0.612 -2.7821 -2.1163 -1.2648
 9535TIP3   OH250095   1.693   3.358   0.324 -0.0559 -0.5364  0.2147
 9535TIP3    H150096   1.759   3.339   0.257  1.2983  2.8235  0.5041
 9535TIP3    H250097   1.639   3.426   0.285 -0.5299 -0.0308  1.7251
 9536TIP3   OH250098   4.436   1.013   2.778  0.0884  0.4355 -0.3986
 9536TIP3    H150099   4.497   0.943   2.753 -1.7749 -1.1119 -0.7071
 9536TIP3    H250100   4.409   1.052   2.695  1.1592  1.5970 -0.2258
 9537TIP3   OH250101   4.359   5.093   6.488  0.1414  0.3190  0.2736
 9537TIP3    H150102   4.360   5.028   6.557 -1.3272 -1.2593 -1.1540
 9537TIP3    H250103   4.267   5.117   6.478  0.2869  0.2345 -1.4004
 9538TIP3   OH250104   5.419   2.286   2.314  0.3969  0.1624 -0.3156
 9538TIP3    H150105   5.407   2.247   2.227  2.5725  0.3062 -0.7082
 9538TIP3    H250106   5.416   2.380   2.298 -2.4209  0.2255  0.2780
 9539TIP3   OH250107   6.534   3.764  11.403 -0.6189 -0.0460 -0.6251
 9539TIP3    H150108   6.504   3.707  11.474  1.4002  2.7585  2.6626
 9539TIP3    H250109   6.630   3.760  11.408 -0.4352  2.5435 -1.1321
 9540TIP3   OH250110   3.548   6.611   5.576 -0.2223 -0.3451 -0.2780
 9540TIP3    H150111   3.468   6.621   5.628 -0.2041 -1.2735 -0.0658
 9540TIP3    H250112   3.573   6.701   5.555 -1.5660 -0.0533 -0.7197
 9541TIP3   OH250113   1.032   0.669  14.282 -0.6270  0.5880  0.0457
 9541TIP3    H150114   1.029   0.731  14.210  1.1400  0.1083 -0.4683
 9541TIP3    H250115   1.040   0.583  14.241 -0.1846  0.2591  0.7922
 9542TIP3   OH250116   4.315   6.015   2.848 -0.1046 -0.2242  0.0274
 9542TIP3    H150117   4.338   5.945   2.786 -0.4484 -1.0717  0.8456
 9542TIP3    H250118   4.364   6.091   2.817  0.2350 -0.8114 -0.9081
 9543TIP3   OH250119   1.346   5.330  14.618  0.6323 -0.1925  0.2722
 9543TIP3    H150120   1.398   5.374  14.685 -0.0070 -0.7071  1.1210
 9543TIP3    H250121   1.256   5.337  14.650  0.4612 -1.6389  0.1511
 9544TIP3   OH250122   5.763   4.047  13.368 -0.2744 -0.0795 -0.2953
 9544TIP3    H150123   5.826   4.083  13.430  0.6962 -0.6927 -0.9109
 9544TIP3    H250124   5.761   4.110  13.296  0.4217 -0.5749 -0.7543
 9545TIP3   OH250125   4.934   1.507  15.225 -0.6934  0.0571 -0.1124
 9545TIP3    H150126   5.007   1.548  15.272 -1.1762  0.2739  0.4491
 9545TIP3    H250127   4.976   1.440  15.171 -0.2912 -1.2788  1.8081
 9546TIP3   OH250128   0.623   0.626   5.122 -0.6335  0.0940 -0.5375
 9546TIP3    H150129   0.650   0.717   5.137  0.6420 -0.6133  1.8029
 9546TIP3    H250130   0.706   0.578   5.113 -1.2232 -1.1636  0.5194
 9547TIP3   OH250131   2.049   4.186   3.237 -0.1210 -0.3647  0.3224
 9547TIP3    H150132   2.133   4.173   3.282 -0.3306  0.2414  0.8984
 9547TIP3    H250133   1.991   4.122   3.278  0.1935 -1.1496 -0.4453
 9548TIP3   OH250134   5.034   5.237   3.009  0.1210  0.1235 -0.1631
 9548TIP3    H150135   5.129   5.246   3.018  0.1889  1.4779 -1.9504
 9548TIP3    H250136   5.003   5.216   3.098  1.9474  1.0312  0.7125
 9549TIP3   OH250137   2.339   1.729   1.935  0.3084  0.1940  0.0127
 9549TIP3    H150138   2.280   1.674   1.987 -1.3351  3.6742  2.0034
 9549TIP3    H250139   2.317   1.709   1.844 -3.7863  1.1763  0.7063
 9550TIP3   OH250140   2.567   2.146   1.912 -0.2044  0.4842  0.2403
 9550TIP3    H150141   2.601   2.179   1.995  2.3143  0.9484 -0.9278
 9550TIP3    H250142   2.524   2.221   1.872 -0.2505  0.6110  0.5247
 9551TIP3   OH250143   5.311   3.866   1.572 -0.2333  0.0002  0.2739
 9551TIP3    H150144   5.222   3.901   1.562  0.0774  0.6141 -0.3501
 9551TIP3    H250145   5.366   3.924   1.519  0.6621  0.1286  1.3294
 9552TIP3   OH250146   4.623   6.587  11.835 -1.0496 -0.2535 -0.4745
 9552TIP3    H150147   4.571   6.615  11.760 -1.1239  0.4208 -0.1754
 9552TIP3    H250148   4.604   6.652  11.903 -0.3535 -0.3926 -0.1384
 9553TIP3   OH250149   2.997   6.722   0.661  0.5975 -0.7463 -0.0386
 9553TIP3    H150150   2.911   6.742   0.623  0.7012 -2.3284 -1.1386
 9553TIP3    H250151   3.060   6.745   0.592  1.0890  0.4121  0.7647
 9554TIP3   OH250152   0.457   1.613  16.469  0.0783 -0.1034  0.5255
 9554TIP3    H150153   0.396   1.619  16.396  0.2616 -1.7893  0.2159
 9554TIP3    H250154   0.535   1.659  16.439  0.3052 -1.1552 -0.4986
 9555TIP3   OH250155   5.973   6.128  16.468  0.1795  0.0740 -0.2706
 9555TIP3    H150156   6.026   6.048  16.467 -1.1247 -0.8016 -0.2439
 9555TIP3    H250157   6.017   6.184  16.532  1.4671 -0.3585 -0.7553
 9556TIP3   OH250158   3.065   6.327  11.626  0.1493 -0.4438  0.2103
 9556TIP3    H150159   3.087   6.272  11.701 -0.0483  1.5277  1.7696
 9556TIP3    H250160   2.970   6.339  11.633  0.0561 -0.6733 -0.6522
 9557TIP3   OH250161   1.949   1.782  15.613  0.0450 -0.6018 -0.1772
 9557TIP3    H150162   1.909   1.812  15.532 -0.3921 -1.6595 -0.3647
 9557TIP3    H250163   1.929   1.688  15.616 -0.0107 -0.5561  1.1880
 9558TIP3   OH250164   6.621   1.524  14.173 -0.0832 -0.0252  0.5362
 9558TIP3    H150165   6.564   1.581  14.224  0.4579  0.7764  0.2501
 9558TIP3    H250166   6.677   1.583  14.123 -0.1130 -0.7959 -0.4415
 9559TIP3   OH250167   1.937   4.020   0.769  0.5458  0.0815  0.3409
 9559TIP3    H150168   1.900   4.108   0.771 -0.0638 -0.1856  0.8348
 9559TIP3    H250169   1.927   3.987   0.858  1.0751 -0.3681  0.2443
 9560TIP3   OH250170   6.703   2.904  16.291  0.0655 -0.1767 -0.3546
 9560TIP3    H150171   6.794   2.873  16.290 -0.7309 -2.9384  2.7282
 9560TIP3    H250172   6.710   3.000  16.293  2.8670 -0.3166 -1.4204
 9561TIP3   OH250173   1.335   0.549   2.287 -0.4165 -0.0615 -0.1605
 9561TIP3    H150174   1.255   0.595   2.263  0.9507  2.6033  0.2172
 9561TIP3    H250175   1.399   0.618   2.302  2.6929 -2.1647 -2.9772
 9562TIP3   OH250176   4.648   4.918   3.541  0.3891  0.1509  0.2690
 9562TIP3    H150177   4.620   5.010   3.539 -1.6141 -0.4122  0.8866
 9562TIP3    H250178   4.686   4.902   3.455  1.7653  1.8509  0.5254
 9563TIP3   OH250179   1.680   6.594  14.695 -0.1484  0.3089 -0.4226
 9563TIP3    H150180   1.639   6.662  14.747  0.5555  0.7248 -0.4095
 9563TIP3    H250181   1.668   6.514  14.747 -1.3989  0.3268 -0.6641
 9564TIP3   OH250182   4.017   6.292  13.495 -0.1077 -0.0035  0.3255
 9564TIP3    H150183   4.038   6.199  13.491 -0.1841  0.0317 -2.3416
 9564TIP3    H250184   3.933   6.296  13.540  0.8218 -1.0390  2.1918
 9565TIP3   OH250185   4.816   4.600   2.118 -0.2303 -0.4567  0.6032
 9565TIP3    H150186   4.820   4.517   2.070  0.8447 -0.5126  0.7806
 9565TIP3    H250187   4.892   4.598   2.176 -1.1699 -0.1206  1.8767
 9566TIP3   OH250188   5.274   6.268   5.314 -0.1434 -0.5170 -0.2381
 9566TIP3    H150189   5.251   6.190   5.265  0.2861  0.3374 -1.8299
 9566TIP3    H250190   5.353   6.301   5.272 -1.7578  2.2233 -1.2853
 9567TIP3   OH250191   3.129   3.016   0.718  0.1502 -0.2129  0.0547
 9567TIP3    H150192   3.199   3.059   0.669  0.4226 -0.9487 -0.1954
 9567TIP3    H250193   3.052   3.025   0.663  0.3278 -0.5303 -0.2424
 9568TIP3   OH250194   3.437   1.784   3.984  0.1735  0.0180  0.8574
 9568TIP3    H150195   3.382   1.781   3.906  0.6735  0.8605  0.4570
 9568TIP3    H250196   3.423   1.872   4.020  0.4107 -0.1505  1.3698
 9569TIP3   OH250197   6.370   0.317  11.526  0.6999 -0.6748  0.1830
 9569TIP3    H150198   6.307   0.312  11.597  0.3193 -2.5513 -0.2757
 9569TIP3    H250199   6.340   0.391  11.473 -0.8608 -1.2627  0.2179
 9570TIP3   OH250200   0.084   5.996  14.310  0.0096  0.1198  0.1934
 9570TIP3    H150201   0.032   6.009  14.231  2.3468  2.1801 -1.0834
 9570TIP3    H250202   0.072   6.076  14.360  1.6156  0.4543  0.0645
 9571TIP3   OH250203   5.102   0.854   2.240 -0.4114  0.0904 -0.6248
 9571TIP3    H150204   5.069   0.784   2.185  0.3718  0.4694 -1.5922
 9571TIP3    H250205   5.119   0.812   2.325 -1.4760 -0.5234 -0.7062
 9572TIP3   OH250206   1.165   5.512   1.200  0.2478 -0.4474  0.3929
 9572TIP3    H150207   1.149   5.533   1.292  1.0584 -1.7007  0.8350
 9572TIP3    H250208   1.104   5.568   1.152  0.5359  0.9651  1.6352
 9573TIP3   OH250209   5.734   3.179  15.374  0.3185  0.4180  0.0138
 9573TIP3    H150210   5.808   3.190  15.433 -1.1408  1.0094  1.7892
 9573TIP3    H250211   5.707   3.088  15.384  0.0381  0.5317  0.3279
 9574TIP3   OH250212   4.154   5.980  14.707 -0.3795 -0.0488 -0.5182
 9574TIP3    H150213   4.105   6.053  14.669  0.7474 -0.0646 -2.0331
 9574TIP3    H250214   4.223   6.021  14.758 -0.3606 -0.0391 -0.5508
 9575TIP3   OH250215   4.917   0.507  11.536 -0.5931  0.4100 -0.0885
 9575TIP3    H150216   4.876   0.524  11.621  1.1089  0.2083  0.7798
 9575TIP3    H250217   4.845   0.474  11.482 -1.4629 -0.5019  1.5850
 9576TIP3   OH250218   4.935   0.926  16.974 -0.3042  0.3907 -0.3533
 9576TIP3    H150219   4.979   1.011  16.981 -1.3126  0.7977  1.1819
 9576TIP3    H250220   4.864   0.930  17.038 -0.1957 -1.7178 -0.0606
 9577TIP3   OH250221   2.881   3.336  13.279 -0.3133  0.1332  0.2925
 9577TIP3    H150222   2.975   3.355  13.277 -0.2927 -0.0250 -0.4373
 9577TIP3    H250223   2.865   3.285  13.199 -1.2930  1.4383 -0.3653
 9578TIP3   OH250224   1.932   0.139   0.504 -0.4837  0.1713 -0.5274
 9578TIP3    H150225   1.931   0.127   0.409 -0.3393 -0.1198 -0.4935
 9578TIP3    H250226   1.950   0.052   0.538 -1.3247  0.1161 -0.2028
 9579TIP3   OH250227   4.415   3.939   1.999  0.1929 -0.1278 -0.0112
 9579TIP3    H150228   4.418   3.883   1.921 -0.8507  0.4191 -0.4552
 9579TIP3    H250229   4.459   3.888   2.067  1.6146 -0.3707 -1.1045
 9580TIP3   OH250230   6.717   0.470   2.091  0.1958  0.5724  0.2306
 9580TIP3    H150231   6.707   0.378   2.066 -0.3393  0.5517  0.4995
 9580TIP3    H250232   6.642   0.487   2.148  0.3806  1.1333  0.3093
 9581TIP3   OH250233   4.094   2.024   1.458 -0.0928 -0.2946  0.4271
 9581TIP3    H150234   4.156   2.097   1.452  1.7273 -1.8030  0.3906
 9581TIP3    H250235   4.112   1.985   1.543  1.1052 -2.5421 -0.8046
 9582TIP3   OH250236   2.722   0.022   4.319 -0.0691  0.2271  0.1329
 9582TIP3    H150237   2.809  -0.001   4.350 -0.3183 -0.2308  0.4807
 9582TIP3    H250238   2.727   0.009   4.224 -0.7205 -2.9751  0.4822
 9583TIP3   OH250239   0.296   1.037   1.352 -0.2729 -0.6029 -0.2841
 9583TIP3    H150240   0.284   1.063   1.443 -0.5301 -0.3710 -0.3838
 9583TIP3    H250241   0.213   1.059   1.310 -0.2614 -0.9847 -0.5094
 9584TIP3   OH250242   3.873   0.088   1.079  0.0093  0.3252 -0.5069
 9584TIP3    H150243   3.903   0.156   1.138 -1.6645  0.2997  0.3874
 9584TIP3    H250244   3.951   0.064   1.029  0.6134  2.9436 -0.9086
 9585TIP3   OH250245   1.755   1.484   3.845 -0.0878  0.5729 -0.0621
 9585TIP3    H150246   1.686   1.421   3.825 -0.1495  1.0571 -1.4686
 9585TIP3    H250247   1.832   1.450   3.799  0.3677  0.5259  0.7325
 9586TIP3   OH250248   1.685   2.317   2.300 -0.7568 -0.0143 -0.4155
 9586TIP3    H150249   1.753   2.266   2.343 -0.7249  0.8437  0.5755
 9586TIP3    H250250   1.666   2.389   2.361 -1.1738  0.8556 -1.5467
 9587TIP3   OH250251   0.410   1.249  10.600 -0.2857 -0.0658  0.2021
 9587TIP3    H150252   0.394   1.169  10.550  2.4843 -1.2846  1.1931
 9587TIP3    H250253   0.358   1.238  10.680 -0.9682 -0.2526 -0.2613
 9588TIP3   OH250254   5.544   0.013  16.522  0.2773  0.4688  0.6592
 9588TIP3    H150255   5.616   0.063  16.561 -0.3984  1.5342  0.5585
 9588TIP3    H250256   5.522   0.061  16.442  0.6753 -0.8829 -0.2807
 9589TIP3   OH250257   4.444   5.287  16.099 -0.4315 -0.1128 -0.2890
 9589TIP3    H150258   4.383   5.280  16.173  0.1500 -0.6841  0.1378
 9589TIP3    H250259   4.408   5.227  16.034  0.4871 -1.6131  0.5437
 9590TIP3   OH250260   6.362   2.489  11.284 -0.3933 -1.0042  0.3374
 9590TIP3    H150261   6.340   2.397  11.301 -0.2251 -1.0816  0.1454
 9590TIP3    H250262   6.457   2.488  11.270 -0.3378 -0.7494  0.6875
 9591TIP3   OH250263   6.039   6.109  15.634 -0.1987  0.9688 -0.3091
 9591TIP3    H150264   5.986   6.102  15.555 -0.5399 -0.4214  0.0230
 9591TIP3    H250265   6.128   6.090  15.606 -0.4915 -0.6824 -0.1734
 9592TIP3   OH250266   4.630   3.512  12.876  0.2895 -0.2414  0.3901
 9592TIP3    H150267   4.695   3.552  12.819  0.0157 -1.1762 -0.6063
 9592TIP3    H250268   4.590   3.585  12.923  1.0307  0.4678 -0.0800
 9593TIP3   OH250269   2.113   5.161   1.828 -0.2722  0.3270  0.2857
 9593TIP3    H150270   2.155   5.229   1.777  0.3778 -2.1325 -2.6302
 9593TIP3    H250271   2.023   5.157   1.795 -1.2211  1.7470  2.5533
 9594TIP3   OH250272   2.159   5.143  13.230 -0.1547  0.2602 -0.0110
 9594TIP3    H150273   2.065   5.157  13.243 -0.1458 -0.5728  1.0059
 9594TIP3    H250274   2.172   5.049  13.246  0.4986 -0.1076 -2.3619
 9595TIP3   OH250275   2.243   0.956  14.013 -0.0623  0.1341 -0.3127
 9595TIP3    H150276   2.149   0.972  14.024  0.0155  0.3721  0.0115
 9595TIP3    H250277   2.253   0.863  14.032 -0.0242  0.4096  1.0619
 9596TIP3   OH250278   0.387   0.296  14.258  0.1337 -0.0540 -0.1961
 9596TIP3    H150279   0.362   0.274  14.169  0.0571 -0.8988  0.0285
 9596TIP3    H250280   0.429   0.382  14.251  1.3839 -0.7327 -1.2397
 9597TIP3   OH250281   4.658   3.519  10.601 -0.3473  0.2174 -0.1134
 9597TIP3    H150282   4.745   3.482  10.615 -0.4482 -0.2269 -0.6484
 9597TIP3    H250283   4.660   3.602  10.648 -0.6058 -1.1035  2.3069
 9598TIP3   OH250284   5.449   1.797  15.727 -0.3676  0.0374  0.1077
 9598TIP3    H150285   5.432   1.722  15.783 -0.7710 -0.2459 -0.3905
 9598TIP3    H250286   5.401   1.778  15.646  0.5931  0.2126 -0.5135
 9599TIP3   OH250287   6.040   2.931   3.703 -0.7627  0.3788  0.1319
 9599TIP3    H150288   5.992   2.983   3.639 -1.5306 -1.1800 -0.5702
 9599TIP3    H250289   6.028   2.840   3.675  2.2995 -0.0738  0.1154
 9600TIP3   OH250290   0.855   0.885  16.392  0.5417  0.3405  0.0462
 9600TIP3    H150291   0.836   0.791  16.391  0.9174  0.2620 -2.3744
 9600TIP3    H250292   0.866   0.906  16.485 -1.3924 -1.6136  0.7720
 9601TIP3   OH250293   1.022   4.834   0.002  0.0899  0.5199 -0.1168
 9601TIP3    H150294   0.941   4.824   0.053 -0.1328  1.0913 -0.3535
 9601TIP3    H250295   1.084   4.871   0.065  0.9363 -2.2877  0.7788
 9602TIP3   OH250296   4.578   3.591  11.773  0.2209  0.6035 -0.4017
 9602TIP3    H150297   4.627   3.621  11.697 -1.1369  0.5409 -1.3102
 9602TIP3    H250298   4.499   3.550  11.737  0.4758 -1.1535  0.9397
 9603TIP3   OH250299   4.137   2.133   2.250  0.2447 -0.0049 -0.4611
 9603TIP3    H150300   4.050   2.173   2.250 -0.1179 -0.7784  0.1257
 9603TIP3    H250301   4.197   2.204   2.269 -0.3467  0.3479  0.0845
 9604TIP3   OH250302   6.667   5.019   3.125  0.0589 -0.3638 -0.5939
 9604TIP3    H150303   6.578   5.051   3.140 -0.1107 -0.5170 -1.2785
 9604TIP3    H250304   6.722   5.075   3.180 -0.2646  0.8484 -1.4905
 9605TIP3   OH250305   1.244   2.473  15.104  0.2524  0.2276  0.5730
 9605TIP3    H150306   1.159   2.511  15.124 -0.1839  0.5125 -1.6557
 9605TIP3    H250307   1.283   2.455  15.189 -1.9735  0.2181  1.6343
 9606TIP3   OH250308   4.898   3.885  13.623  0.1188  0.0581  0.1045
 9606TIP3    H150309   4.898   3.839  13.707 -0.4166 -1.5885 -0.7901
 9606TIP3    H250310   4.875   3.975  13.646  1.6033  0.0064  1.9161
 9607TIP3   OH250311   6.168   6.005   2.718 -0.0086 -0.2091 -0.1213
 9607TIP3    H150312   6.233   6.073   2.733  0.8494 -0.7556 -1.2713
 9607TIP3    H250313   6.102   6.019   2.786  1.8757 -0.3396  1.7659
 9608TIP3   OH250314   5.863   0.497   2.825  0.6269 -0.2320 -0.5601
 9608TIP3    H150315   5.920   0.564   2.786 -0.6875  0.7000 -0.9406
 9608TIP3    H250316   5.867   0.424   2.763  0.5137  0.2752 -1.1798
 9609TIP3   OH250317   1.326   4.099   5.999  0.1898 -0.0200 -0.0007
 9609TIP3    H150318   1.242   4.093   5.953  1.3093 -0.3726 -2.0689
 9609TIP3    H250319   1.323   4.183   6.044 -0.5212  0.8765 -1.6554
 9610TIP3   OH250320   3.938   5.045  15.553 -0.1888 -0.0454 -0.0399
 9610TIP3    H150321   3.952   5.133  15.519 -3.0200  0.4794  0.0310
 9610TIP3    H250322   3.982   4.988  15.490  1.8345  1.4022  0.0185
 9611TIP3   OH250323   2.240   3.088  16.591  0.1422 -1.5011  0.3159
 9611TIP3    H150324   2.212   3.122  16.676  0.4630 -0.4697  0.0132
 9611TIP3    H250325   2.201   3.148  16.527 -0.3495 -2.4465 -0.2875
 9612TIP3   OH250326   1.504   5.553   3.191  0.0074  0.1386  0.2277
 9612TIP3    H150327   1.425   5.591   3.154 -0.0271 -0.5643 -0.4452
 9612TIP3    H250328   1.496   5.459   3.173  0.9482  0.0505  0.2302
 9613TIP3   OH250329   5.158   6.219   4.667  0.3636 -0.3697 -0.3037
 9613TIP3    H150330   5.088   6.156   4.683 -0.3413  0.2703 -0.7852
 9613TIP3    H250331   5.201   6.230   4.751  0.3531 -1.3300 -0.1744
 9614TIP3   OH250332   3.501   4.755  16.783  0.4557 -0.8222 -0.1270
 9614TIP3    H150333   3.506   4.839  16.738 -2.4006 -0.3184  0.3845
 9614TIP3    H250334   3.584   4.747  16.830  1.5198  0.8229 -1.6804
 9615TIP3   OH250335   3.921   3.239  11.476  0.5004 -0.1843  0.0467
 9615TIP3    H150336   3.926   3.160  11.421 -1.4751  0.5638 -1.2438
 9615TIP3    H250337   3.838   3.231  11.523 -0.4541  1.8127 -1.2178
 9616TIP3   OH250338   0.864   2.501   4.592  0.1139  0.4740  0.3177
 9616TIP3    H150339   0.798   2.484   4.526  0.0023 -1.0188  0.8134
 9616TIP3    H250340   0.927   2.560   4.548 -0.6594  0.5785 -0.6647
 9617TIP3   OH250341   6.134   6.778  15.119  0.1496 -0.2395  0.3207
 9617TIP3    H150342   6.095   6.852  15.167 -1.8482 -0.6699 -0.6161
 9617TIP3    H250343   6.204   6.747  15.177  0.1535  1.5432  1.3207
 9618TIP3   OH250344   2.226   2.202   6.392 -0.3086 -0.5214 -0.2689
 9618TIP3    H150345   2.180   2.221   6.473 -0.3753 -0.1982 -0.3835
 9618TIP3    H250346   2.275   2.122   6.411  0.7601  0.2990  0.5309
 9619TIP3   OH250347   4.220   0.285  16.073  0.5126  0.7449 -0.1895
 9619TIP3    H150348   4.152   0.330  16.023  1.4537  1.7492 -0.5948
 9619TIP3    H250349   4.222   0.197  16.037 -0.0603  0.9345 -0.6863
 9620TIP3   OH250350   6.643   0.757   2.804  0.7437  0.0673  0.2584
 9620TIP3    H150351   6.650   0.718   2.717  0.9396  0.7576 -0.0413
 9620TIP3    H250352   6.689   0.840   2.797  1.0149 -0.0039  1.1089
 9621TIP3   OH250353   6.641   1.556  12.854 -0.1953  0.0649 -0.5146
 9621TIP3    H150354   6.609   1.603  12.777 -1.4237 -0.5726 -0.3945
 9621TIP3    H250355   6.671   1.626  12.913 -0.0001  0.5934 -1.2358
 9622TIP3   OH250356   1.926   6.023   5.809 -0.0421 -0.5989  0.6969
 9622TIP3    H150357   1.998   6.025   5.872  2.1600 -3.1817 -1.6150
 9622TIP3    H250358   1.908   5.930   5.796  0.8538 -0.3012 -3.7723
 9623TIP3   OH250359   5.822   2.731  13.125 -0.0014 -0.6964 -0.3165
 9623TIP3    H150360   5.909   2.735  13.166  0.5136  0.5318 -1.4787
 9623TIP3    H250361   5.776   2.807  13.161  0.4065  0.3102 -1.8858
 9624TIP3   OH250362   0.187   3.161   3.707 -0.1205  0.0138 -0.6165
 9624TIP3    H150363   0.266   3.214   3.691 -0.5700  0.7114 -0.5189
 9624TIP3    H250364   0.146   3.154   3.621 -0.6815  0.8208 -0.4238
 9625TIP3   OH250365   1.342   6.761   2.699  0.1602 -0.1091  0.0397
 9625TIP3    H150366   1.247   6.771   2.704 -0.2416 -3.4282 -0.2228
 9625TIP3    H250367   1.364   6.701   2.770  2.4708  2.8046  1.9118
 9626TIP3   OH250368   3.279   2.828   2.711 -0.0358 -0.3363 -0.5042
 9626TIP3    H150369   3.261   2.922   2.709  0.0704 -0.2821  0.5072
 9626TIP3    H250370   3.372   2.821   2.689  0.1241 -0.1438  0.0943
 9627TIP3   OH250371   1.293   2.365  16.561  0.4878 -0.6842 -0.3094
 9627TIP3    H150372   1.258   2.285  16.524  1.3674 -0.5431 -1.4456
 9627TIP3    H250373   1.349   2.402  16.493  1.7675 -0.1967  0.9753
 9628TIP3   OH250374   4.992   5.899   1.981  0.3441  0.4775 -0.0144
 9628TIP3    H150375   5.038   5.927   2.060  0.2373 -0.1799  0.2826
 9628TIP3    H250376   5.010   5.968   1.917  0.7430  0.8224  0.4674
 9629TIP3   OH250377   6.035   4.578  13.659  0.5640  0.9760  0.5245
 9629TIP3    H150378   6.121   4.591  13.618  0.5794  2.8143  1.0650
 9629TIP3    H250379   6.000   4.667  13.668 -1.3970  0.2393  0.3238
 9630TIP3   OH250380   4.446   4.987  16.745  0.0807  0.0345 -0.6814
 9630TIP3    H150381   4.524   5.033  16.775  0.7497 -2.4155  1.5338
 9630TIP3    H250382   4.428   4.922  16.813 -3.0694 -0.4218 -1.8371
 9631TIP3   OH250383   1.779   1.305   5.760 -0.0918 -0.2645  0.2535
 9631TIP3    H150384   1.747   1.358   5.832  1.8333 -1.1916  1.8612
 9631TIP3    H250385   1.821   1.367   5.700  2.1903  0.0702  2.1396
 9632TIP3   OH250386   6.047   3.952   3.999 -0.9203  0.6914 -0.3946
 9632TIP3    H150387   6.008   3.870   3.970  1.7529 -0.1225 -1.8240
 9632TIP3    H250388   6.060   4.002   3.918 -0.4760  1.6265  0.2408
 9633TIP3   OH250389   6.563   4.431  11.686 -0.0820 -0.0559 -0.1404
 9633TIP3    H150390   6.613   4.510  11.704 -1.9093  1.2529 -0.7262
 9633TIP3    H250391   6.506   4.420  11.762 -0.3116 -0.4368 -0.3629
 9634TIP3   OH250392   3.113   3.094  14.217 -0.5419 -0.0510  0.0848
 9634TIP3    H150393   3.042   3.031  14.204  0.6825 -1.0890 -1.7560
 9634TIP3    H250394   3.154   3.067  14.300 -0.9387 -0.7821  0.0476
 9635TIP3   OH250395   6.635   4.697  15.807  0.2343 -0.0389 -0.1958
 9635TIP3    H150396   6.558   4.670  15.757  0.3131  1.1280 -0.9741
 9635TIP3    H250397   6.708   4.652  15.765  0.2755  0.7861 -1.0302
 9636TIP3   OH250398   6.730   6.516  12.404 -0.2518 -0.1916 -0.7257
 9636TIP3    H150399   6.775   6.600  12.405  0.6813 -0.6815 -1.1091
 9636TIP3    H250400   6.658   6.527  12.467  0.7161  0.4280  0.3064
 9637TIP3   OH250401   0.516   6.122  11.135  0.1648  0.6400  0.5059
 9637TIP3    H150402   0.482   6.182  11.069 -0.1371 -1.1745 -1.0194
 9637TIP3    H250403   0.444   6.061  11.152  0.4454  0.7196  2.0520
 9638TIP3   OH250404   0.161   0.010   1.569  0.8741 -0.6523  0.1266
 9638TIP3    H150405   0.084  -0.042   1.592  0.1152 -0.4116 -1.7588
 9638TIP3    H250406   0.143   0.097   1.604 -0.1304 -0.3635 -1.0718
 9639TIP3   OH250407   2.904   2.286   5.839 -0.1954 -0.1995  0.3445
 9639TIP3    H150408   2.940   2.355   5.893 -0.7429  0.0296  0.4192
 9639TIP3    H250409   2.813   2.312   5.824 -0.0153 -0.2124 -0.7672
 9640TIP3   OH250410   3.500   2.228  12.218 -0.3204 -0.3250 -0.0474
 9640TIP3    H150411   3.425   2.249  12.162 -0.6998 -0.9393  0.2129
 9640TIP3    H250412   3.490   2.286  12.294 -1.0357 -1.0112  0.3984
 9641TIP3   OH250413   4.308   0.650  14.464 -0.5739 -0.4192  0.3402
 9641TIP3    H150414   4.352   0.568  14.485 -2.2937 -1.2524  0.7514
 9641TIP3    H250415   4.259   0.631  14.384 -0.7526  0.2859  0.2789
 9642TIP3   OH250416   3.039   3.559  15.188  0.4478  0.1484 -0.1446
 9642TIP3    H150417   3.110   3.547  15.251 -0.0513  1.4650  0.6799
 9642TIP3    H250418   3.080   3.606  15.115  0.7242 -0.2407 -0.2413
 9643TIP3   OH250419   2.173   1.435   5.105 -0.3549  0.2142  0.1772
 9643TIP3    H150420   2.115   1.377   5.155 -0.0204 -0.1390  0.1510
 9643TIP3    H250421   2.175   1.396   5.017  1.4610 -0.8617  0.6852
 9644TIP3   OH250422   2.681   5.920  16.776  0.3485 -0.1171 -0.3208
 9644TIP3    H150423   2.737   5.972  16.833  2.0921 -4.2550  1.9799
 9644TIP3    H250424   2.733   5.906  16.697  0.5444  0.2194 -0.2486
 9645TIP3   OH250425   3.149   6.394  11.161 -0.0892 -0.0413 -0.1797
 9645TIP3    H150426   3.240   6.416  11.182 -0.4796 -0.3790  1.9368
 9645TIP3    H250427   3.139   6.303  11.189 -0.7817 -0.3770 -1.4544
 9646TIP3   OH250428   4.223   0.759  16.556  0.0892  0.0242 -0.9426
 9646TIP3    H150429   4.266   0.820  16.616 -0.6761 -0.9790  0.6326
 9646TIP3    H250430   4.130   0.769  16.574 -0.0130 -1.9465 -0.3382
 9647TIP3   OH250431   2.864   5.939   3.462  0.1858  0.2841 -0.1460
 9647TIP3    H150432   2.889   6.008   3.523 -2.7241  0.7385  0.6269
 9647TIP3    H250433   2.853   5.983   3.378 -0.4441  0.5337  0.0667
 9648TIP3   OH250434   2.994   1.826   4.732 -0.3462 -0.4459 -0.1536
 9648TIP3    H150435   3.045   1.896   4.772 -2.5240  1.3939 -0.5339
 9648TIP3    H250436   2.917   1.816   4.789 -1.5446 -0.4379 -1.7448
 9649TIP3   OH250437   1.292   2.613   4.710 -0.0223  0.3979 -0.0421
 9649TIP3    H150438   1.258   2.557   4.780  0.2927  2.1730  1.5724
 9649TIP3    H250439   1.255   2.700   4.729  2.4376  1.5602 -0.3368
 9650TIP3   OH250440   3.011   5.880   0.422 -0.6724  0.2016 -0.0266
 9650TIP3    H150441   3.093   5.908   0.463 -1.0092 -0.5718  1.2161
 9650TIP3    H250442   3.016   5.785   0.419 -1.7927  0.1069  0.6703
 9651TIP3   OH250443   0.918   4.511  10.885 -0.3976 -0.1800 -0.0868
 9651TIP3    H150444   0.830   4.546  10.871  0.3963  1.5014 -1.0805
 9651TIP3    H250445   0.951   4.494  10.797  0.6778  0.2361  0.2332
 9652TIP3   OH250446   0.573   5.443   6.054  0.1141 -0.1278 -0.0996
 9652TIP3    H150447   0.589   5.349   6.049 -0.7269 -0.2091 -1.7570
 9652TIP3    H250448   0.660   5.482   6.056  0.4992 -0.8710 -1.3436
 9653TIP3   OH250449   5.511   3.764   0.278  0.9491 -0.1331  0.7585
 9653TIP3    H150450   5.545   3.781   0.366  0.4967  0.7046  0.7770
 9653TIP3    H250451   5.564   3.691   0.246  2.0865  0.4768  1.1816
 9654TIP3   OH250452   5.735   2.360  10.474  0.3862  0.2647 -0.0246
 9654TIP3    H150453   5.801   2.410  10.427  0.6330  0.4110  0.4765
 9654TIP3    H250454   5.784   2.302  10.532  0.1689 -2.1388 -2.1398
 9655TIP3   OH250455   1.831   2.338   5.764 -0.0249  0.2360  0.4623
 9655TIP3    H150456   1.824   2.250   5.729  0.4132  0.2561  0.3237
 9655TIP3    H250457   1.782   2.335   5.847 -2.2841  0.5536 -0.8225
 9656TIP3   OH250458   0.327   5.636  13.025  0.0983  0.6397 -0.0696
 9656TIP3    H150459   0.263   5.704  13.043 -1.5975 -1.7493  3.4656
 9656TIP3    H250460   0.405   5.662  13.075 -0.0177  0.7325  0.0610
 9657TIP3   OH250461   0.869   6.684  16.414  0.1099 -0.4371  0.0956
 9657TIP3    H150462   0.907   6.637  16.489  0.1224 -1.1041 -0.3249
 9657TIP3    H250463   0.919   6.766  16.410  0.2270 -0.4739  0.7111
 9658TIP3   OH250464   5.730   0.559  12.815  0.1899 -0.3509 -0.1545
 9658TIP3    H150465   5.726   0.528  12.725  0.9429 -0.0914 -0.2793
 9658TIP3    H250466   5.765   0.485  12.865  1.2167  0.0157 -0.3230
 9659TIP3   OH250467   0.523   6.688   0.147  0.1088  0.2218  0.9119
 9659TIP3    H150468   0.452   6.650   0.095  1.2818 -2.5716  1.2381
 9659TIP3    H250469   0.573   6.612   0.178  3.3408  2.1009  0.5516
 9660TIP3   OH250470   0.099   6.215   1.359 -0.8351 -0.0620  0.2428
 9660TIP3    H150471   0.114   6.187   1.449  0.5345  0.5645  0.2281
 9660TIP3    H250472   0.186   6.219   1.320 -1.3824  0.0291 -1.0031
 9661TIP3   OH250473   5.615   2.344   6.031 -0.3024  0.0284  0.0193
 9661TIP3    H150474   5.610   2.430   6.071  2.0770  0.7342 -1.0753
 9661TIP3    H250475   5.698   2.308   6.061 -1.5977 -2.2128  1.0442
 9662TIP3   OH250476   3.634   4.029   2.212 -0.5312 -0.2780 -0.2700
 9662TIP3    H150477   3.605   4.112   2.250 -0.6340 -0.8169  0.8651
 9662TIP3    H250478   3.708   4.002   2.267 -0.4101 -0.8596 -0.7141
 9663TIP3   OH250479   1.776   4.112  12.864 -0.1738 -0.0772 -0.7953
 9663TIP3    H150480   1.830   4.037  12.890  1.7146  1.2510 -0.7647
 9663TIP3    H250481   1.834   4.165  12.810 -0.9634  2.1652  0.4967
 9664TIP3   OH250482   1.987   5.949   2.133  0.6246 -0.4056 -0.1974
 9664TIP3    H150483   1.901   5.936   2.174  1.5680 -1.4954  1.4891
 9664TIP3    H250484   1.978   6.030   2.083 -0.6760  0.7901  1.9015
 9665TIP3   OH250485   4.542   3.964  17.198  0.5865 -0.7530 -0.2756
 9665TIP3    H150486   4.631   3.997  17.186 -0.0350  0.5864 -1.3445
 9665TIP3    H250487   4.493   4.038  17.234  0.0847 -1.7307  1.1044
 9666TIP3   OH250488   2.922   4.608  15.377 -0.0873  0.1085  0.6424
 9666TIP3    H150489   2.914   4.702  15.364  2.3390  0.2384  0.0651
 9666TIP3    H250490   2.954   4.599  15.467  2.3459 -0.0352 -0.2099
 9667TIP3   OH250491   6.814   0.379  14.820  0.5608 -0.1212  0.5721
 9667TIP3    H150492   6.828   0.342  14.733 -3.5888 -0.8749  0.1123
 9667TIP3    H250493   6.864   0.322  14.879  1.4597 -1.0624 -1.0712
 9668TIP3   OH250494   5.542   0.340  14.743  0.0522 -0.1344 -0.5628
 9668TIP3    H150495   5.493   0.307  14.819  1.9241 -0.1078  0.6894
 9668TIP3    H250496   5.477   0.346  14.673 -1.2718 -2.1360  0.4643
 9669TIP3   OH250497   1.492   5.878   3.715  0.2328  0.6765  0.0653
 9669TIP3    H150498   1.492   5.972   3.734 -1.2066  0.2764  2.1992
 9669TIP3    H250499   1.424   5.867   3.649  0.1369  1.0586  0.0999
 9670TIP3   OH250500   2.564   1.985  17.160  0.3199  0.0399  0.0522
 9670TIP3    H150501   2.561   2.075  17.193  0.1795  0.4117 -0.9602
 9670TIP3    H250502   2.531   1.931  17.232 -0.1335  0.8577  0.4566
 9671TIP3   OH250503   0.186   5.769   3.221  0.3200  0.3198 -0.1317
 9671TIP3    H150504   0.270   5.815   3.221  0.4163  0.1532 -0.7605
 9671TIP3    H250505   0.185   5.721   3.304 -0.2864  2.3332  1.0452
 9672TIP3   OH250506   5.200   0.581   4.194  0.1779 -0.1824  0.4958
 9672TIP3    H150507   5.111   0.607   4.217  0.0226  0.5284 -0.8562
 9672TIP3    H250508   5.256   0.628   4.256 -0.3215  0.2185  0.6469
 9673TIP3   OH250509   3.414   2.417   5.580 -0.1213 -0.8078 -0.3492
 9673TIP3    H150510   3.389   2.431   5.489 -0.7089 -1.5435 -0.3032
 9673TIP3    H250511   3.355   2.473   5.630 -1.2546 -2.0460 -0.2842
 9674TIP3   OH250512   0.862   4.840   1.195  0.6773 -0.1017 -0.2251
 9674TIP3    H150513   0.806   4.867   1.122  0.2605  0.2658  0.2203
 9674TIP3    H250514   0.930   4.906   1.200  2.2887 -1.5730 -1.9778
 9675TIP3   OH250515   3.094   0.428  11.946 -0.1752  0.3174 -0.0003
 9675TIP3    H150516   3.124   0.443  12.036 -0.7565 -1.6366  0.5527
 9675TIP3    H250517   3.007   0.388  11.957  0.0627 -0.5991 -1.4209
 9676TIP3   OH250518   1.681   0.642   4.214 -0.1683 -0.6100 -0.1123
 9676TIP3    H150519   1.643   0.683   4.292 -0.3495 -0.2198 -0.4007
 9676TIP3    H250520   1.685   0.713   4.150  0.0231 -0.9193 -0.4428
 9677TIP3   OH250521   2.130   6.579   4.987  0.1200  0.3103  0.6668
 9677TIP3    H150522   2.057   6.525   5.016  0.0362 -0.0985 -0.2749
 9677TIP3    H250523   2.095   6.667   4.982  0.0363  0.3270  1.4213
 9678TIP3   OH250524   6.308   3.723  13.207  0.4198 -0.0224  0.6485
 9678TIP3    H150525   6.280   3.639  13.170  0.8277 -0.1927  0.7256
 9678TIP3    H250526   6.403   3.726  13.192  0.2034  1.0508 -0.6142
 9679TIP3   OH250527   4.024   4.351  11.269  0.5399  0.0894  0.2610
 9679TIP3    H150528   4.034   4.429  11.323 -1.3934  0.5147  0.0387
 9679TIP3    H250529   3.994   4.283  11.330 -1.3544  0.4938 -0.1773
 9680TIP3   OH250530   3.295   6.098  15.514 -0.0382 -0.4152 -0.3928
 9680TIP3    H150531   3.388   6.080  15.500 -0.7748 -4.8931 -0.4475
 9680TIP3    H250532   3.254   6.072  15.431 -1.1584  3.7880 -1.2499
 9681TIP3   OH250533   2.141   4.398   5.809  0.0260 -0.2472 -0.3281
 9681TIP3    H150534   2.091   4.477   5.787 -1.0342 -0.5728  0.8274
 9681TIP3    H250535   2.180   4.418   5.894 -0.1751 -0.9223 -0.0711
 9682TIP3   OH250536   1.305   2.033  13.328  0.3376  0.2059 -0.1297
 9682TIP3    H150537   1.377   2.081  13.287 -0.6421  3.7604  2.1100
 9682TIP3    H250538   1.231   2.094  13.326 -1.9121 -2.4382 -0.0965
 9683TIP3   OH250539   5.763   3.249  14.259 -0.3035 -0.5132  0.2868
 9683TIP3    H150540   5.815   3.245  14.179  0.9302  2.4715  0.8569
 9683TIP3    H250541   5.680   3.207  14.237  0.3159 -0.4281 -2.2967
 9684TIP3   OH250542   1.005   6.651   5.800  0.1961  0.4471  0.1112
 9684TIP3    H150543   0.951   6.580   5.766 -1.7088  2.1304 -0.5236
 9684TIP3    H250544   0.968   6.669   5.887  1.8249 -0.5060  1.0199
 9685TIP3   OH250545   5.463   3.198  13.200  0.3583  0.3441  0.6760
 9685TIP3    H150546   5.379   3.226  13.164 -0.0298 -0.9664  0.5402
 9685TIP3    H250547   5.514   3.279  13.209 -0.6801  1.0589  0.1535
 9686TIP3   OH250548   2.243   0.044  11.659  0.6018 -0.1077  0.1903
 9686TIP3    H150549   2.332   0.057  11.689  0.6241  0.8675 -0.2925
 9686TIP3    H250550   2.246   0.062  11.565 -0.2786  0.8399  0.3330
 9687TIP3   OH250551   2.533   2.252  17.248 -0.9976  0.7011 -0.8697
 9687TIP3    H150552   2.581   2.308  17.187 -2.3052  2.6395 -0.1694
 9687TIP3    H250553   2.445   2.289  17.250 -0.8712  0.9197  2.4999
 9688TIP3   OH250554   0.300   4.072  13.791  0.2414  0.6530 -0.2742
 9688TIP3    H150555   0.217   4.072  13.838  0.6237  1.4873  0.4124
 9688TIP3    H250556   0.338   3.986  13.812 -0.2653  0.4218 -0.2820
 9689TIP3   OH250557   3.340   0.628   1.682  0.9118 -0.0392 -0.0035
 9689TIP3    H150558   3.270   0.693   1.681  0.4308 -0.5329  0.6567
 9689TIP3    H250559   3.357   0.609   1.590 -1.1133 -1.2739 -0.1615
 9690TIP3   OH250560   4.370   2.658  16.921 -0.0369  0.1776 -0.0539
 9690TIP3    H150561   4.447   2.699  16.961 -0.4389  0.8171  0.0772
 9690TIP3    H250562   4.406   2.603  16.851  0.6121 -0.3721  0.7101
 9691TIP3   OH250563   4.708   4.762   4.678  0.1383  0.3006 -0.1394
 9691TIP3    H150564   4.650   4.838   4.680 -0.6342 -0.2998  0.6760
 9691TIP3    H250565   4.702   4.725   4.766 -0.6758 -1.5772 -0.9409
 9692TIP3   OH250566   3.674   0.339  11.646  0.1802  0.5315  0.2320
 9692TIP3    H150567   3.598   0.392  11.672 -0.4843 -1.0250  1.6294
 9692TIP3    H250568   3.737   0.352  11.717  0.1610 -0.2057  0.3931
 9693TIP3   OH250569   1.154   1.461   0.493 -0.3955 -0.1770 -0.7656
 9693TIP3    H150570   1.090   1.522   0.528  0.3203  1.8680 -2.8822
 9693TIP3    H250571   1.218   1.450   0.564  0.1335  2.5602 -0.7605
 9694TIP3   OH250572   2.142   5.026   2.479  0.0449  0.4901 -0.0659
 9694TIP3    H150573   2.088   4.966   2.427  0.4566  0.5212 -0.5385
 9694TIP3    H250574   2.112   5.015   2.569  0.2773 -0.5933 -0.1202
 9695TIP3   OH250575   3.281   2.127  13.029 -0.4495 -0.1865 -0.0416
 9695TIP3    H150576   3.338   2.069  13.080 -1.9736 -2.3017 -0.6894
 9695TIP3    H250577   3.248   2.190  13.092  2.1874  0.7877  0.4517
 9696TIP3   OH250578   3.067   0.324   0.339  0.5870  0.6740 -0.2641
 9696TIP3    H150579   3.073   0.338   0.244 -0.2789  0.8886 -0.2910
 9696TIP3    H250580   3.156   0.340   0.371  1.6701 -2.5606 -1.4367
 9697TIP3   OH250581   1.433   4.853   2.821  0.3874 -0.0744 -0.1326
 9697TIP3    H150582   1.349   4.836   2.778 -0.2184 -2.0162  1.7519
 9697TIP3    H250583   1.414   4.844   2.915  2.6346 -0.1810  0.3264
 9698TIP3   OH250584   0.165   2.086  13.883 -0.0620 -0.4974 -0.5366
 9698TIP3    H150585   0.217   2.164  13.904  0.6703 -1.2362  0.4660
 9698TIP3    H250586   0.230   2.019  13.861 -0.6485 -1.0295 -0.6710
 9699TIP3   OH250587   3.905   0.099  15.131 -0.3181 -0.3798  0.3641
 9699TIP3    H150588   3.975   0.139  15.078 -1.0295  0.1301 -0.1966
 9699TIP3    H250589   3.934   0.009  15.144 -0.6784 -0.8538 -1.8799
 9700TIP3   OH250590   2.840   5.635  13.266 -0.4062 -0.7875  0.6950
 9700TIP3    H150591   2.899   5.630  13.341  0.7396  2.6526  0.1489
 9700TIP3    H250592   2.895   5.611  13.191 -0.6415 -1.0363  0.6033
 9701TIP3   OH250593   3.297   0.066   2.041 -0.0248  0.1196  0.4727
 9701TIP3    H150594   3.293   0.160   2.059  0.5055  0.8083 -2.6031
 9701TIP3    H250595   3.364   0.033   2.101 -0.0396  1.7465  1.4268
 9702TIP3   OH250596   1.908   3.722   2.713  0.1167 -0.2155  0.2275
 9702TIP3    H150597   1.973   3.791   2.725  0.3037 -0.3041 -0.2656
 9702TIP3    H250598   1.948   3.644   2.751  0.7610 -0.5251 -1.0361
 9703TIP3   OH250599   4.012   6.282  15.489  0.1271  0.2458 -0.2937
 9703TIP3    H150600   4.032   6.203  15.539 -0.0883 -0.8715 -1.9402
 9703TIP3    H250601   4.066   6.350  15.529  0.4756 -0.7707  1.0083
 9704TIP3   OH250602   0.086   4.711  12.672  0.1259 -0.2915  0.3302
 9704TIP3    H150603   0.134   4.737  12.593  1.4691  0.8599  1.5027
 9704TIP3    H250604   0.153   4.706  12.741 -1.1886 -0.2583  1.6381
 9705TIP3   OH250605   6.389   2.572   3.254  0.1200 -0.5630  0.2932
 9705TIP3    H150606   6.370   2.508   3.185 -3.4521 -0.1999  0.8139
 9705TIP3    H250607   6.374   2.657   3.213  0.5327 -0.2406  0.8017
 9706TIP3   OH250608   5.746   0.356   5.736 -0.1794 -0.3393  0.1820
 9706TIP3    H150609   5.776   0.288   5.798 -1.9275 -0.3391  1.0488
 9706TIP3    H250610   5.815   0.422   5.738  0.1340 -0.6970  1.5903
 9707TIP3   OH250611   0.211   4.344   5.000 -0.5265  0.1518 -0.1618
 9707TIP3    H150612   0.139   4.376   5.054 -1.4877 -0.9525 -0.7563
 9707TIP3    H250613   0.171   4.276   4.945  0.5585  0.7639 -1.7702
 9708TIP3   OH250614   4.907   0.999  15.994  0.1540 -0.2454  0.2146
 9708TIP3    H150615   4.937   0.985  15.904 -0.6558 -0.4894 -0.0145
 9708TIP3    H250616   4.827   0.947  16.002  1.1102 -1.5477  1.5904
 9709TIP3   OH250617   6.236   4.361   2.360  0.0084  0.5152 -0.3977
 9709TIP3    H150618   6.290   4.362   2.280  0.7741  0.7642  0.1174
 9709TIP3    H250619   6.240   4.271   2.391  0.7369  0.6939  0.0427
 9710TIP3   OH250620   2.690   2.373   5.385  0.6683 -0.2321  0.6191
 9710TIP3    H150621   2.720   2.462   5.367 -0.2877  0.2168  1.2204
 9710TIP3    H250622   2.697   2.364   5.480 -0.1341 -0.4685  0.6645
 9711TIP3   OH250623   5.516   3.160  14.163  0.3965  0.3383 -0.3229
 9711TIP3    H150624   5.444   3.111  14.203  1.8626 -2.3813 -0.8669
 9711TIP3    H250625   5.473   3.225  14.107 -1.6226  0.6970  1.5886
 9712TIP3   OH250626   5.601   5.564   3.227  0.2223  0.0014 -0.0814
 9712TIP3    H150627   5.647   5.620   3.164 -0.9575  1.3622  0.2167
 9712TIP3    H250628   5.658   5.562   3.304  0.1385  1.0652  0.0169
 9713TIP3   OH250629   4.208   5.766   6.232  0.2285 -0.2397 -0.6666
 9713TIP3    H150630   4.241   5.686   6.192  0.2739 -0.0868 -0.9334
 9713TIP3    H250631   4.213   5.749   6.326  1.7531  0.0542 -0.6908
 9714TIP3   OH250632   1.458   0.975  15.273  0.5152 -0.1438 -0.0412
 9714TIP3    H150633   1.425   1.030  15.202 -1.3873 -1.2825 -0.0699
 9714TIP3    H250634   1.440   0.885  15.245  3.5578 -0.8160  0.0292
 9715TIP3   OH250635   5.430   1.005   3.089  0.2570  0.4864 -0.6708
 9715TIP3    H150636   5.448   1.002   2.995  1.6950  0.3957 -0.3934
 9715TIP3    H250637   5.387   1.090   3.102 -2.7910 -0.7822 -1.8758
 9716TIP3   OH250638   6.505   2.923  14.173 -0.1397  0.4856 -0.1896
 9716TIP3    H150639   6.581   2.944  14.228  0.4033  1.4182 -1.2856
 9716TIP3    H250640   6.478   2.836  14.203  2.1791 -0.4641 -0.6891
 9717TIP3   OH250641   6.326   1.365   0.995  0.2513 -0.1371 -0.1793
 9717TIP3    H150642   6.304   1.297   1.058 -0.2154  0.8656  0.7454
 9717TIP3    H250643   6.404   1.332   0.950  1.0044 -0.5427  1.3954
 9718TIP3   OH250644   2.769   3.403   1.197 -0.1964  0.1022 -0.2868
 9718TIP3    H150645   2.838   3.461   1.230 -0.1292 -0.6224  0.8742
 9718TIP3    H250646   2.800   3.315   1.218 -1.7509 -0.2070  0.8194
 9719TIP3   OH250647   4.842   4.162  13.721  0.1558  0.0587 -0.2793
 9719TIP3    H150648   4.769   4.204  13.767 -1.1415 -2.7527  0.3542
 9719TIP3    H250649   4.826   4.178  13.629 -1.4370 -0.7487 -0.1568
 9720TIP3   OH250650   1.236   6.239   3.923 -0.3364 -0.0068 -0.3730
 9720TIP3    H150651   1.245   6.207   4.012 -0.3776 -0.3918 -0.5047
 9720TIP3    H250652   1.316   6.211   3.879 -0.0434  0.7072 -0.3012
 9721TIP3   OH250653   2.174   5.520   5.426  0.3845 -0.6368  0.0028
 9721TIP3    H150654   2.240   5.585   5.403  0.3197 -1.1367 -1.6369
 9721TIP3    H250655   2.127   5.560   5.499  2.0179  0.0349  0.7159
 9722TIP3   OH250656   6.508   5.886   3.101 -0.1081  0.0295  0.3776
 9722TIP3    H150657   6.600   5.864   3.112  0.0929 -0.7483 -2.4455
 9722TIP3    H250658   6.509   5.975   3.064 -0.4464 -0.3623 -0.5853
 9723TIP3   OH250659   6.768   0.573   3.065  0.1811 -0.4698 -0.0830
 9723TIP3    H150660   6.682   0.614   3.072  1.3360  1.8249  1.1718
 9723TIP3    H250661   6.830   0.644   3.079  2.3086 -2.0404 -1.2406
 9724TIP3   OH250662   4.988   5.924   0.448 -0.2735  0.2977 -0.0786
 9724TIP3    H150663   4.954   5.968   0.525 -1.8279  1.2961 -1.3038
 9724TIP3    H250664   5.080   5.949   0.444 -0.4921  1.2426  0.7495
 9725TIP3   OH250665   4.320   4.988  14.546  0.2239  0.1396 -0.0426
 9725TIP3    H150666   4.312   4.902  14.506  0.6996 -0.4398  1.0919
 9725TIP3    H250667   4.414   5.005  14.548  0.3354 -0.5734  2.3158
 9726TIP3   OH250668   6.682   4.525   1.049  0.2651  0.2823 -0.1327
 9726TIP3    H150669   6.628   4.525   0.970  0.9581 -2.1891 -0.6661
 9726TIP3    H250670   6.752   4.587   1.031 -0.8429  1.4325 -0.5379
 9727TIP3   OH250671   5.997   6.210  12.369  0.1099 -0.3304  0.5428
 9727TIP3    H150672   5.934   6.274  12.402  0.7306  0.1417  0.8139
 9727TIP3    H250673   5.978   6.130  12.417 -1.6011 -0.7642 -0.8024
 9728TIP3   OH250674   6.522   1.550  12.077 -0.2989 -0.1905  0.2166
 9728TIP3    H150675   6.532   1.569  12.170  2.6765  0.7553 -0.2708
 9728TIP3    H250676   6.503   1.635  12.036 -0.1365 -0.3712 -0.2426
 9729TIP3   OH250677   5.860   3.620  11.000  0.3918  0.4351 -0.3423
 9729TIP3    H150678   5.930   3.558  10.983 -1.2036 -2.6894  3.6356
 9729TIP3    H250679   5.799   3.610  10.927  1.4574 -0.7599 -1.0641
 9730TIP3   OH250680   5.644   3.093   0.094 -0.0607 -0.2052 -0.3722
 9730TIP3    H150681   5.709   3.147   0.050 -1.6442  2.2879  0.2232
 9730TIP3    H250682   5.567   3.096   0.037  0.7977 -4.5548 -1.9471
 9731TIP3   OH250683   6.471   6.701   4.129 -0.3840 -0.0795  0.4828
 9731TIP3    H150684   6.460   6.606   4.118  0.0025  0.1929 -2.5139
 9731TIP3    H250685   6.382   6.734   4.141 -0.7303 -0.5777 -0.6715
 9732TIP3   OH250686   5.324   4.113   1.795  0.1027 -0.0746 -0.3690
 9732TIP3    H150687   5.368   4.106   1.880 -1.5912 -2.1586  0.3941
 9732TIP3    H250688   5.350   4.198   1.761 -0.2467  1.4106  2.8697
 9733TIP3   OH250689   3.967   1.564  12.166 -0.3896 -0.4864  0.3194
 9733TIP3    H150690   3.900   1.581  12.232 -1.7983 -2.1726 -0.6510
 9733TIP3    H250691   3.984   1.651  12.127 -2.1317 -0.0612  0.4649
 9734TIP3   OH250692   0.368   4.833   6.176 -0.2256 -0.0148 -0.1904
 9734TIP3    H150693   0.383   4.907   6.117 -1.5286 -0.0360 -0.5625
 9734TIP3    H250694   0.304   4.864   6.239  1.5064  0.1451  1.5095
 9735TIP3   OH250695   2.156   3.859  11.801 -0.3718 -0.2935  0.5087
 9735TIP3    H150696   2.073   3.811  11.798 -0.8252  0.4361  1.1322
 9735TIP3    H250697   2.218   3.797  11.840 -0.4146 -1.1375 -0.7540
 9736TIP3   OH250698   2.173   0.653  12.568  0.3003 -0.2272  0.1191
 9736TIP3    H150699   2.148   0.686  12.655  1.3920  0.3444  0.2116
 9736TIP3    H250700   2.268   0.660  12.566  0.3111 -0.6920 -0.9509
 9737TIP3   OH250701   5.720   4.475  12.993 -0.0858  0.2902 -0.5665
 9737TIP3    H150702   5.784   4.546  12.994 -0.5295  0.6824  0.0358
 9737TIP3    H250703   5.654   4.501  13.057 -0.1883 -0.7254 -0.2515
 9738TIP3   OH250704   1.557   5.737  13.178 -0.0263 -0.4202  0.0104
 9738TIP3    H150705   1.649   5.715  13.161  0.3484 -1.5192  3.1418
 9738TIP3    H250706   1.560   5.827  13.210 -0.0093 -0.5395  0.3463
 9739TIP3   OH250707   1.526   1.809   2.724 -0.1477  0.0048  0.3491
 9739TIP3    H150708   1.599   1.823   2.665  0.2984  0.9473  1.1195
 9739TIP3    H250709   1.490   1.896   2.739 -1.5443 -0.4666 -0.1564
 9740TIP3   OH250710   2.484   0.251  12.830 -0.0858  0.3226  0.2329
 9740TIP3    H150711   2.541   0.299  12.770 -0.1356  1.0704  0.7864
 9740TIP3    H250712   2.410   0.309  12.846  0.1467  0.3105  1.3766
 9741TIP3   OH250713   4.754   0.802  16.201 -0.3112 -0.6496  0.1038
 9741TIP3    H150714   4.720   0.769  16.284 -0.5267  2.6775  1.4171
 9741TIP3    H250715   4.680   0.798  16.141 -1.0674 -0.0624  0.9856
 9742TIP3   OH250716   1.633   4.304  12.732  0.3630  0.5060 -0.1094
 9742TIP3    H150717   1.662   4.244  12.802 -1.3906  1.0700  1.1367
 9742TIP3    H250718   1.631   4.390  12.774 -2.1426  0.6200 -0.4231
 9743TIP3   OH250719   4.646   0.092   5.798  0.2239  0.9057  0.5024
 9743TIP3    H150720   4.702   0.126   5.868 -0.8129  0.2921  1.6533
 9743TIP3    H250721   4.567   0.145   5.803 -1.6481 -1.9397  2.6900
 9744TIP3   OH250722   6.527   4.167  14.681  0.0037  0.3833  0.3823
 9744TIP3    H150723   6.620   4.158  14.701 -0.6738 -1.5466  2.9106
 9744TIP3    H250724   6.502   4.249  14.724  0.6311  1.1535 -0.7095
 9745TIP3   OH250725   5.904   5.923  15.029  0.2436  0.1359 -0.0803
 9745TIP3    H150726   5.841   5.851  15.020  1.3739 -0.7737 -0.8283
 9745TIP3    H250727   5.987   5.880  15.052  0.9749  1.1751 -0.7410
 9746TIP3   OH250728   5.732   5.272   0.513  0.3828  0.1209 -0.3619
 9746TIP3    H150729   5.726   5.208   0.584  1.3761  0.4137 -0.0007
 9746TIP3    H250730   5.707   5.224   0.435  0.6461 -0.5799 -0.0153
 9747TIP3   OH250731   3.807   5.424  11.771  0.5248  0.1821  0.5852
 9747TIP3    H150732   3.723   5.469  11.767 -0.4559 -1.6624 -0.2520
 9747TIP3    H250733   3.808   5.382  11.857 -0.4844 -1.7594 -0.3192
 9748TIP3   OH250734   3.622   4.053  12.877  0.0067  0.0090 -0.7128
 9748TIP3    H150735   3.562   4.128  12.873 -1.5257 -1.2014 -0.8317
 9748TIP3    H250736   3.565   3.978  12.897  1.4911 -1.1591 -0.8234
 9749TIP3   OH250737   4.503   1.189   4.889 -0.1328  0.8509 -0.1034
 9749TIP3    H150738   4.433   1.128   4.868  0.5733 -0.4416  1.1835
 9749TIP3    H250739   4.583   1.144   4.862  0.4996  0.6172  2.0605
 9750TIP3   OH250740   4.237   3.981  11.598  0.0442 -0.6377  0.2533
 9750TIP3    H150741   4.330   3.992  11.615 -0.2334  1.2842  0.6715
 9750TIP3    H250742   4.226   3.888  11.580  2.1700 -0.7319 -0.6122
 9751TIP3   OH250743   2.099   6.490   2.988 -0.1032 -0.5297  0.4009
 9751TIP3    H150744   2.026   6.430   3.007  0.9277 -1.4350  1.6325
 9751TIP3    H250745   2.162   6.474   3.059  0.3695  1.7549  0.5260
 9752TIP3   OH250746   3.204   1.404  15.400 -0.6087  0.1861  0.1613
 9752TIP3    H150747   3.263   1.336  15.369  0.1089  1.6009 -1.6367
 9752TIP3    H250748   3.172   1.371  15.484  0.9705 -1.6194  0.0873
 9753TIP3   OH250749   3.500   4.595  15.890  0.0287  0.1729  0.4518
 9753TIP3    H150750   3.545   4.541  15.826  1.3536  2.0665 -0.2630
 9753TIP3    H250751   3.432   4.538  15.926  0.8824 -1.6970 -0.8144
 9754TIP3   OH250752   5.066   1.169  11.184 -0.1474 -0.1164  0.1598
 9754TIP3    H150753   5.002   1.229  11.149 -1.0474 -1.2990 -0.2512
 9754TIP3    H250754   5.139   1.171  11.122 -0.6624 -0.3039 -0.4498
 9755TIP3   OH250755   3.755   6.485  16.427  0.2446 -0.3595  0.6265
 9755TIP3    H150756   3.668   6.480  16.387  0.6981 -2.2308 -0.1699
 9755TIP3    H250757   3.797   6.403  16.403  2.5528  0.8948  0.2749
 9756TIP3   OH250758   2.150   6.754   2.177  0.2353 -0.5435  0.5777
 9756TIP3    H150759   2.225   6.812   2.166 -0.1884 -0.1745 -0.4953
 9756TIP3    H250760   2.158   6.721   2.266 -0.1300  2.0545  1.6320
 9757TIP3   OH250761   2.232   5.737  13.238  0.3543  0.0530 -0.3251
 9757TIP3    H150762   2.294   5.674  13.200  0.8486 -0.4495  1.2653
 9757TIP3    H250763   2.171   5.756  13.167  0.9699 -1.2351 -1.2281
 9758TIP3   OH250764   2.693   2.442  14.233  0.4388  0.3517  0.3832
 9758TIP3    H150765   2.750   2.366  14.235  0.0390  0.0446  0.0936
 9758TIP3    H250766   2.672   2.460  14.325 -1.0056 -1.0408  0.3400
 9759TIP3   OH250767   2.232   4.158  10.539  0.0982  0.4914  0.3398
 9759TIP3    H150768   2.267   4.076  10.575  0.7533  0.7311  0.2420
 9759TIP3    H250769   2.137   4.149  10.549  0.2205  0.1432  1.2439
 9760TIP3   OH250770   1.755   3.606  13.649 -0.4406 -0.0857  0.0231
 9760TIP3    H150771   1.725   3.554  13.574  0.9257 -1.7623  0.6216
 9760TIP3    H250772   1.844   3.632  13.625  0.6317 -2.0370  1.7366
 9761TIP3   OH250773   5.958   5.888   1.314  0.3960 -0.1240  0.7581
 9761TIP3    H150774   6.045   5.868   1.347  0.5090  1.3395  1.4030
 9761TIP3    H250775   5.924   5.955   1.374 -0.3206  0.8756 -0.7249
 9762TIP3   OH250776   1.998   6.516  16.558  0.2538 -0.4668  0.2916
 9762TIP3    H150777   2.013   6.436  16.609 -1.4173 -0.4969  0.7669
 9762TIP3    H250778   2.013   6.587  16.621  0.1974 -0.4470  0.2840
 9763TIP3   OH250779   4.299   6.069   3.152  0.2323 -0.3084 -0.1861
 9763TIP3    H150780   4.289   6.052   3.246  0.3833  0.5411 -0.0153
 9763TIP3    H250781   4.266   5.990   3.110  0.0854 -0.6616  0.5808
 9764TIP3   OH250782   0.830   5.128   6.256  0.2557  0.3503  0.4079
 9764TIP3    H150783   0.846   5.222   6.251  0.5698  0.3116  0.6524
 9764TIP3    H250784   0.880   5.099   6.333 -0.6853  0.1606  0.9561
 9765TIP3   OH250785   6.265   1.615   4.908 -0.1065  0.3327  0.6412
 9765TIP3    H150786   6.196   1.572   4.858  1.0285  0.4623 -1.0856
 9765TIP3    H250787   6.275   1.562   4.987 -1.8315  0.0430  0.6754
 9766TIP3   OH250788   1.228   0.929  12.376  0.5911  0.7426 -0.0099
 9766TIP3    H150789   1.220   0.905  12.468 -0.1553 -0.6535 -0.4348
 9766TIP3    H250790   1.141   0.916  12.339  1.2931 -0.4370 -1.3103
 9767TIP3   OH250791   2.114   0.141   3.125  0.2016  0.0008 -0.0455
 9767TIP3    H150792   2.118   0.085   3.047 -0.7362 -0.9637  0.5772
 9767TIP3    H250793   2.021   0.158   3.137  0.4677  1.4596 -0.0463
 9768TIP3   OH250794   1.243   2.995   3.719  0.1350 -0.0712  0.2430
 9768TIP3    H150795   1.266   3.072   3.772  1.3329 -1.7599  2.2409
 9768TIP3    H250796   1.313   2.989   3.654  0.0134  0.5589  0.0501
 9769TIP3   OH250797   1.148   1.668  14.707  0.0321  0.4048  0.2542
 9769TIP3    H150798   1.057   1.676  14.737  0.0789 -0.2694  0.5993
 9769TIP3    H250799   1.171   1.577  14.727  0.4481  0.2833 -0.7792
 9770TIP3   OH250800   0.523   0.392   0.111  1.4723  0.6094 -0.2976
 9770TIP3    H150801   0.587   0.332   0.149  2.3420  1.5125 -0.3057
 9770TIP3    H250802   0.574   0.471   0.091  0.6740  0.7615 -1.7814
 9771TIP3   OH250803   5.361   2.841   5.735  0.0533  0.1072  0.4815
 9771TIP3    H150804   5.357   2.930   5.699  1.5403 -0.1834 -0.4021
 9771TIP3    H250805   5.290   2.794   5.691 -2.0304  1.3546  2.3917
 9772TIP3   OH250806   2.816   5.388  15.993  0.1453 -0.4668 -0.4066
 9772TIP3    H150807   2.807   5.483  15.996 -0.0243 -0.4630 -0.8780
 9772TIP3    H250808   2.881   5.372  15.924 -0.7948 -0.7346 -1.2470
 9773TIP3   OH250809   2.085   6.387  13.900 -0.8447  0.5163 -0.2184
 9773TIP3    H150810   2.005   6.381  13.847 -0.9329  2.0180 -0.2582
 9773TIP3    H250811   2.137   6.454  13.856  0.0493  0.1730  0.3260
 9774TIP3   OH250812   3.853   1.033   3.846  0.0189  0.1097  0.3500
 9774TIP3    H150813   3.783   1.094   3.821  2.6844  2.9204 -0.4728
 9774TIP3    H250814   3.866   1.049   3.940  1.4963  1.6680 -0.1061
 9775TIP3   OH250815   6.508   6.433   3.678  0.0934  0.1002 -0.0378
 9775TIP3    H150816   6.464   6.355   3.711 -0.4216  0.8751  1.1472
 9775TIP3    H250817   6.436   6.490   3.649  0.4313  0.4237 -0.2431
 9776TIP3   OH250818   6.244   0.156  14.807 -0.4098 -0.0353  0.2314
 9776TIP3    H150819   6.336   0.181  14.821  0.0622 -1.6047  0.0065
 9776TIP3    H250820   6.196   0.208  14.871  0.4857  1.7776 -0.5104
 9777TIP3   OH250821   1.720   0.323   6.531 -0.5586 -0.1432 -0.2902
 9777TIP3    H150822   1.754   0.381   6.599 -2.4274  1.7543 -0.9226
 9777TIP3    H250823   1.797   0.296   6.482  0.4255  1.3382  0.3995
 9778TIP3   OH250824   6.448   4.381  14.345 -0.2904 -0.2657  0.0403
 9778TIP3    H150825   6.463   4.415  14.257 -0.2928 -1.2041 -0.3366
 9778TIP3    H250826   6.536   4.369  14.381 -0.2462 -1.1613 -0.3485
 9779TIP3   OH250827   3.526   4.598   6.032 -0.1860 -0.1283 -0.0505
 9779TIP3    H150828   3.608   4.582   6.079 -1.3553 -1.1955  1.6769
 9779TIP3    H250829   3.496   4.511   6.007 -2.4339 -0.0743  2.2424
 9780TIP3   OH250830   5.009   3.624  14.454  0.2422 -0.7841 -0.2588
 9780TIP3    H150831   4.947   3.558  14.421 -0.7694  1.2904 -2.6037
 9780TIP3    H250832   5.090   3.607  14.406 -0.6686  1.0283 -2.4994
 9781TIP3   OH250833   1.322   2.265  16.010 -0.0076 -0.6274  0.3799
 9781TIP3    H150834   1.322   2.197  16.077 -0.4482 -0.1013  0.9314
 9781TIP3    H250835   1.318   2.218  15.927 -1.8750 -1.2582  0.7818
 9782TIP3   OH250836   6.717   6.108   5.636  0.3105 -0.1734  0.2475
 9782TIP3    H150837   6.664   6.042   5.591  0.9178 -1.2925  1.1603
 9782TIP3    H250838   6.740   6.170   5.567  1.1337 -1.8097 -0.9841
 9783TIP3   OH250839   0.841   0.525   3.921 -0.0714  0.1371 -0.3498
 9783TIP3    H150840   0.935   0.507   3.919  0.1247  1.1558 -0.5456
 9783TIP3    H250841   0.801   0.444   3.889  0.5988 -1.1968  2.0999
 9784TIP3   OH250842   1.881   1.758   4.453 -0.3449 -0.2749 -0.5564
 9784TIP3    H150843   1.954   1.723   4.504  0.9064 -1.6545 -3.1817
 9784TIP3    H250844   1.882   1.852   4.469  0.9617 -0.4930  0.7236
 9785TIP3   OH250845   6.462   0.580  11.408 -0.3777 -0.0628  0.4075
 9785TIP3    H150846   6.405   0.572  11.332  0.9738 -1.0684 -0.5033
 9785TIP3    H250847   6.539   0.626  11.376  0.0067 -0.0899  1.2769
 9786TIP3   OH250848   3.669   1.058   3.148  0.2973  1.1775  0.1560
 9786TIP3    H150849   3.660   1.063   3.243 -0.2056  1.6212  0.0882
 9786TIP3    H250850   3.664   1.150   3.119  0.8974  1.0796 -0.2531
 9787TIP3   OH250851   3.918   2.787   3.712  0.3688 -0.0065 -1.2256
 9787TIP3    H150852   3.991   2.803   3.652  0.3153 -1.0131 -1.5747
 9787TIP3    H250853   3.956   2.794   3.799  1.2285 -1.9439 -1.4042
 9788TIP3   OH250854   3.307   3.696   1.285  0.2477  0.2007  0.5815
 9788TIP3    H150855   3.274   3.642   1.356  1.7750  0.2960  1.3735
 9788TIP3    H250856   3.387   3.651   1.255  0.9285  1.4255  0.5195
 9789TIP3   OH250857   3.095   0.047  13.374  0.3924 -0.3715  0.3564
 9789TIP3    H150858   3.045   0.077  13.298 -1.3683 -1.7568  0.9437
 9789TIP3    H250859   3.164  -0.009  13.337  1.6392  1.6258 -0.4556
 9790TIP3   OH250860   5.712   4.104  12.555  0.0285 -0.1751  0.5163
 9790TIP3    H150861   5.749   4.169  12.615 -0.9357  0.5882  0.2805
 9790TIP3    H250862   5.733   4.137  12.467  0.5932 -0.8009  0.4087
 9791TIP3   OH250863   3.791   1.793  14.623 -0.7383  0.4098 -0.2641
 9791TIP3    H150864   3.809   1.881  14.588  0.0467  0.1951 -0.4184
 9791TIP3    H250865   3.785   1.805  14.717  1.1328  0.3587 -0.1177
 9792TIP3   OH250866   5.630   3.807  16.821 -0.1445  0.2173 -0.1106
 9792TIP3    H150867   5.650   3.900  16.812 -0.1232  0.1508 -0.7660
 9792TIP3    H250868   5.715   3.765  16.837  0.0759  0.1014 -1.5424
 9793TIP3   OH250869   6.150   4.525  15.834 -0.1060 -0.2957 -0.0657
 9793TIP3    H150870   6.119   4.521  15.925  2.3140 -2.3987  0.7049
 9793TIP3    H250871   6.190   4.612  15.827 -0.7357  0.0726  0.7002
 9794TIP3   OH250872   1.811   6.078  15.474  0.4477 -0.5425 -0.2889
 9794TIP3    H150873   1.864   6.000  15.492 -0.2784 -0.9371  0.1485
 9794TIP3    H250874   1.756   6.088  15.552  0.2625  0.1845 -0.5076
 9795TIP3   OH250875   2.459   4.318   1.147 -0.0059  0.1459  0.3893
 9795TIP3    H150876   2.451   4.389   1.084  1.8078  0.1301  0.1033
 9795TIP3    H250877   2.369   4.294   1.168 -0.6563  0.3210 -2.0136
 9796TIP3   OH250878   2.941   0.820  11.211 -0.0261 -0.9554 -0.0806
 9796TIP3    H150879   2.879   0.857  11.274 -0.8240 -0.7188 -1.0012
 9796TIP3    H250880   2.888   0.799  11.134  0.8995 -1.4836 -0.5823
 9797TIP3   OH250881   3.244   3.947  11.434 -0.2777 -0.0074  0.5338
 9797TIP3    H150882   3.167   3.917  11.483  0.8349 -1.4720  1.4158
 9797TIP3    H250883   3.251   3.887  11.360 -0.2203  0.3969  0.2039
 9798TIP3   OH250884   2.124   3.186  10.910 -0.6045 -0.4330 -0.0199
 9798TIP3    H150885   2.193   3.120  10.899 -1.7667 -1.3728 -2.1870
 9798TIP3    H250886   2.042   3.138  10.893 -1.4965  1.4740 -1.4072
 9799TIP3   OH250887   1.419   0.436   0.278  0.2025  0.1816 -0.0861
 9799TIP3    H150888   1.512   0.432   0.257  0.7312  0.0981  2.1347
 9799TIP3    H250889   1.413   0.501   0.348 -1.1310 -1.2426  1.1627
 9800TIP3   OH250890   4.290   4.944  16.323  0.3581 -0.4009  0.3762
 9800TIP3    H150891   4.313   5.013  16.385  3.0600 -0.9246  0.0028
 9800TIP3    H250892   4.235   4.884  16.373 -1.6444  1.7121  0.8403
 9801TIP3   OH250893   5.908   2.002   1.078 -0.4003  0.1792  0.9981
 9801TIP3    H150894   5.926   2.092   1.051 -1.8251  0.2668  0.2865
 9801TIP3    H250895   5.854   1.967   1.007 -0.4415 -1.0158  1.6169
 9802TIP3   OH250896   3.652   6.718  14.291  0.2809 -0.4163  0.5177
 9802TIP3    H150897   3.739   6.743  14.261  0.6186 -0.7325  1.2134
 9802TIP3    H250898   3.621   6.654  14.226  0.0811  0.5672 -0.3658
 9803TIP3   OH250899   2.797   5.960  14.861  0.4505  0.6751  0.0839
 9803TIP3    H150900   2.825   5.908  14.936  2.8327  2.6097  0.6063
 9803TIP3    H250901   2.786   5.896  14.791  1.6194 -0.7627  1.1547
 9804TIP3   OH250902   5.551   0.905  11.467 -0.2328  0.3265  0.1238
 9804TIP3    H150903   5.612   0.926  11.537 -1.8684 -0.9403  1.9858
 9804TIP3    H250904   5.580   0.820  11.434 -1.2588 -0.5365  1.3784
 9805TIP3   OH250905   5.989   1.634  15.912  0.2776 -0.1847 -0.0068
 9805TIP3    H150906   6.012   1.542  15.898  0.5326  0.0381 -1.1257
 9805TIP3    H250907   5.906   1.630  15.960  0.0577 -1.0119 -0.4302
 9806TIP3   OH250908   2.105   5.419   1.489 -0.0541  0.6439 -0.2483
 9806TIP3    H150909   2.020   5.392   1.455  0.7528 -2.2972 -0.0763
 9806TIP3    H250910   2.105   5.515   1.481 -3.8754  0.8178  1.0656
 9807TIP3   OH250911   0.190   5.318   4.014 -0.4843 -0.3269 -0.0075
 9807TIP3    H150912   0.236   5.234   4.003  0.3340 -0.0869  1.4685
 9807TIP3    H250913   0.137   5.326   3.935  1.7692 -0.7762 -1.6259
 9808TIP3   OH250914   3.691   5.971  11.828 -0.3976 -0.1374 -0.3669
 9808TIP3    H150915   3.654   5.965  11.740  1.3852  0.5150 -1.1991
 9808TIP3    H250916   3.682   6.063  11.852  1.2714  0.1928 -0.8874
 9809TIP3   OH250917   2.705   5.139   5.003 -0.7240  0.6783 -0.1344
 9809TIP3    H150918   2.741   5.227   5.017 -0.7036  0.7484 -0.6116
 9809TIP3    H250919   2.689   5.105   5.091 -1.9371  1.6654  0.0395
 9810TIP3   OH250920   6.690   1.237   4.227  0.2467  0.0741  0.0282
 9810TIP3    H150921   6.678   1.163   4.168 -0.6353 -0.2643  0.6059
 9810TIP3    H250922   6.750   1.205   4.294  0.9277  0.3252 -0.4613
 9811TIP3   OH250923   4.245   0.820   2.501 -0.2349 -0.8796 -0.6632
 9811TIP3    H150924   4.255   0.911   2.529 -1.8683 -1.9627  3.8949
 9811TIP3    H250925   4.151   0.809   2.489  0.1416 -1.4114 -3.5821
 9812TIP3   OH250926   1.680   4.766  15.222  0.4014 -0.4022 -0.2667
 9812TIP3    H150927   1.595   4.767  15.176 -0.9918 -4.1003  1.9704
 9812TIP3    H250928   1.729   4.838  15.182 -4.2419  2.7932 -0.6894
 9813TIP3   OH250929   2.102   5.864   3.356 -0.6811  0.1094 -0.5223
 9813TIP3    H150930   2.173   5.853   3.420 -0.1018  2.9443 -0.6390
 9813TIP3    H250931   2.126   5.942   3.306 -3.1941  0.2975 -1.5037
 9814TIP3   OH250932   1.056   1.424   3.680  0.3440 -0.1198  0.0440
 9814TIP3    H150933   1.043   1.346   3.627  0.4664  0.2435 -0.5248
 9814TIP3    H250934   1.006   1.493   3.636  1.4924  0.4973 -0.3377
 9815TIP3   OH250935   3.188   2.051  13.758 -0.5107 -0.4762  0.7654
 9815TIP3    H150936   3.252   1.984  13.736  0.0714  0.1078  0.6630
 9815TIP3    H250937   3.105   2.003  13.769 -0.2696 -1.1008 -0.1046
 9816TIP3   OH250938   6.657   0.345   6.054 -0.0481  0.5852  0.0635
 9816TIP3    H150939   6.583   0.317   6.001 -1.1971  0.1891  1.8554
 9816TIP3    H250940   6.636   0.436   6.078  1.2399  1.3183 -1.4768
 9817TIP3   OH250941   0.419   1.318   3.109 -0.8830  0.0466  0.8439
 9817TIP3    H150942   0.379   1.234   3.087 -0.3268  0.0149 -0.0820
 9817TIP3    H250943   0.345   1.377   3.123 -1.2703 -0.1303 -0.3908
 9818TIP3   OH250944   6.105   4.768  13.139  0.2815  0.0654 -0.0693
 9818TIP3    H150945   6.114   4.674  13.155  0.2401 -0.1890 -1.5003
 9818TIP3    H250946   6.190   4.805  13.166  0.4519 -0.4326  0.0852
 9819TIP3   OH250947   4.259   0.133   6.074  0.7671  0.2310  0.3641
 9819TIP3    H150948   4.187   0.075   6.098 -1.0965  1.9979 -0.7003
 9819TIP3    H250949   4.271   0.119   5.980  3.1052 -1.3965  0.8744
 9820TIP3   OH250950   4.819   1.381   1.929 -0.0451  0.1378 -0.3495
 9820TIP3    H150951   4.833   1.332   2.010  0.5293 -0.2643 -0.6893
 9820TIP3    H250952   4.753   1.329   1.882  2.3013 -1.6226 -1.7842
 9821TIP3   OH250953   3.007   2.897   2.518  0.5323  0.1772 -0.0478
 9821TIP3    H150954   3.015   2.954   2.442 -0.2007 -0.7781 -0.8521
 9821TIP3    H250955   3.094   2.857   2.527  0.2920 -0.5955 -1.0957
 9822TIP3   OH250956   1.951   4.600   5.733 -0.2917  0.3656 -0.2104
 9822TIP3    H150957   1.922   4.632   5.819  1.5945  0.1615  0.5507
 9822TIP3    H250958   1.875   4.610   5.676 -0.8182  2.9361  0.8537
 9823TIP3   OH250959   1.526   6.664  15.151  0.4441 -0.4675 -0.1243
 9823TIP3    H150960   1.497   6.576  15.132 -0.6668 -0.5117  1.7191
 9823TIP3    H250961   1.517   6.673  15.246  0.4547  1.6463 -0.2953
 9824TIP3   OH250962   2.884   4.367  16.511  0.3376 -0.4665  0.3279
 9824TIP3    H150963   2.804   4.352  16.562 -0.3098  1.7608  0.0158
 9824TIP3    H250964   2.882   4.298  16.444 -2.1516  0.4530 -0.6187
 9825TIP3   OH250965   1.818   0.688   5.503 -0.5444 -0.4108  0.2196
 9825TIP3    H150966   1.851   0.710   5.591 -0.7715  1.0450 -0.0462
 9825TIP3    H250967   1.795   0.772   5.465 -0.4800 -1.0430 -1.2373
 9826TIP3   OH250968   2.963   0.883   3.596 -0.6532 -0.4467 -0.4526
 9826TIP3    H150969   2.956   0.918   3.507 -0.0089 -0.8740 -0.6760
 9826TIP3    H250970   2.873   0.883   3.628 -0.5841  2.0834 -0.1624
 9827TIP3   OH250971   3.933   4.230  12.576 -0.0251  0.3224 -0.2676
 9827TIP3    H150972   3.921   4.308  12.521  1.3826  1.1622  0.5936
 9827TIP3    H250973   4.008   4.251  12.632  1.4687 -2.2840 -1.1808
 9828TIP3   OH250974   2.436   2.359   0.400 -0.6747 -0.9594  0.2441
 9828TIP3    H150975   2.398   2.425   0.460  0.7679 -2.5534  3.0045
 9828TIP3    H250976   2.360   2.320   0.358 -1.6710  1.0703  0.0784
 9829TIP3   OH250977   1.523   4.467   1.106 -0.1191 -0.4183 -0.5921
 9829TIP3    H150978   1.617   4.467   1.126 -0.0689  0.2738 -0.8249
 9829TIP3    H250979   1.483   4.511   1.180 -0.2938 -0.9959 -0.3426
 9830TIP3   OH250980   6.251   5.677  14.437  0.4289 -0.1205 -0.4506
 9830TIP3    H150981   6.179   5.717  14.389  1.6303  1.1554 -1.2303
 9830TIP3    H250982   6.318   5.746  14.443  1.4211 -1.1398  0.6146
 9831TIP3   OH250983   1.220   6.496  11.570 -0.1646  0.2754 -0.4775
 9831TIP3    H150984   1.313   6.474  11.576 -0.3896 -1.0245 -1.3303
 9831TIP3    H250985   1.209   6.574  11.623  1.6357  1.0792 -1.2732
 9832TIP3   OH250986   3.437   2.215   2.608 -0.4282 -0.0061  0.1083
 9832TIP3    H150987   3.343   2.226   2.623 -0.9399 -1.1259 -2.0197
 9832TIP3    H250988   3.457   2.275   2.536  0.1906 -0.6958 -0.3140
 9833TIP3   OH250989   0.689   0.678   4.087 -0.4891  0.2779  0.6933
 9833TIP3    H150990   0.738   0.626   4.024  0.3368  1.2529  0.5352
 9833TIP3    H250991   0.676   0.619   4.162 -0.7620 -0.6057 -0.0437
 9834TIP3   OH250992   6.217   0.886  13.186 -0.0257 -0.2416  0.1839
 9834TIP3    H150993   6.246   0.941  13.259 -0.8162 -0.9205  1.0129
 9834TIP3    H250994   6.298   0.861  13.141  0.5929 -1.2148  1.8253
 9835TIP3   OH250995   2.119   4.653  17.018  0.1710  0.2457 -0.0279
 9835TIP3    H150996   2.177   4.602  17.075 -0.5329  0.6487  1.0884
 9835TIP3    H250997   2.150   4.744  17.029  0.4879  0.2392 -0.8586
 9836TIP3   OH250998   4.846   4.786  11.908  0.0038  0.0651  1.0816
 9836TIP3    H150999   4.826   4.698  11.876 -0.7840  0.1713  1.2730
 9836TIP3    H251000   4.909   4.772  11.978  0.4243 -0.2957  0.6337
 9837TIP3   OH251001   1.757   2.940  12.116 -0.5162 -0.3557  0.2490
 9837TIP3    H151002   1.822   2.976  12.056 -0.6775 -2.4364 -1.2210
 9837TIP3    H251003   1.764   2.845  12.105 -2.2061 -0.6821  1.7689
 9838TIP3   OH251004   2.346   3.879  14.616  0.0440 -0.5712 -0.1903
 9838TIP3    H151005   2.416   3.836  14.665 -0.3010  1.5379  2.2052
 9838TIP3    H251006   2.392   3.941  14.559  0.3392 -1.9117 -1.4453
 9839TIP3   OH251007   5.986   1.918   3.627  0.2676  0.3079  0.0469
 9839TIP3    H151008   6.045   1.878   3.563  0.6656  0.4172  0.3430
 9839TIP3    H251009   6.039   1.985   3.670 -0.2455  0.8000 -0.0879
 9840TIP3   OH251010   4.582   6.544  11.301  0.1565 -0.3400  0.0357
 9840TIP3    H151011   4.635   6.477  11.343 -1.6830 -1.8724 -0.0128
 9840TIP3    H251012   4.640   6.585  11.237  1.3863 -1.6876  0.2771
 9841TIP3   OH251013   4.687   5.868  12.910 -0.3052  0.2234 -0.2699
 9841TIP3    H151014   4.723   5.877  12.999 -2.3506 -2.1280  0.8547
 9841TIP3    H251015   4.692   5.956  12.873 -1.0789  1.6381  2.8198
 9842TIP3   OH251016   5.014   5.998   4.467 -0.2817  0.0346 -0.2312
 9842TIP3    H151017   5.050   6.058   4.401 -1.9750  1.1321 -0.1875
 9842TIP3    H251018   4.943   6.047   4.508 -1.0776 -1.6773  0.4800
 9843TIP3   OH251019   3.032   3.632  13.252  0.1911 -0.2981 -0.0813
 9843TIP3    H151020   2.999   3.719  13.278 -2.2298 -0.4992 -2.1993
 9843TIP3    H251021   3.012   3.626  13.159  1.2092 -2.7689 -0.1823
 9844TIP3   OH251022   1.646   3.936   0.417 -0.0573 -0.2288  0.5317
 9844TIP3    H151023   1.673   3.932   0.325 -0.1159  2.1752  0.3735
 9844TIP3    H251024   1.728   3.940   0.466 -0.0175  2.9785  0.2887
 9845TIP3   OH251025   1.089   4.862  16.293  0.4440  0.2924  0.5796
 9845TIP3    H151026   1.087   4.793  16.359 -0.9756  1.2623  1.5701
 9845TIP3    H251027   1.003   4.902  16.297  0.5462  0.7750 -1.4507
 9846TIP3   OH251028   5.412   0.712   1.824  0.4953  0.0783  0.5233
 9846TIP3    H151029   5.377   0.799   1.805 -0.6955 -0.5104 -0.0016
 9846TIP3    H251030   5.456   0.686   1.743  0.3391 -0.0532  0.4807
 9847TIP3   OH251031   4.851   0.852  11.821 -0.0749 -0.3426  0.3751
 9847TIP3    H151032   4.888   0.925  11.870  0.9046 -0.6417  0.1012
 9847TIP3    H251033   4.860   0.877  11.729  1.1340 -1.1955  0.2433
 9848TIP3   OH251034   5.027   1.477  16.463  0.3242  0.0382 -0.2324
 9848TIP3    H151035   4.993   1.388  16.459 -0.9694  0.5912 -2.7190
 9848TIP3    H251036   5.122   1.467  16.466  0.1087 -1.4627  3.1015
 9849TIP3   OH251037   6.610   2.114  16.486  0.0856  0.5702  0.4838
 9849TIP3    H151038   6.679   2.058  16.451 -1.0146 -1.7548  1.9144
 9849TIP3    H251039   6.552   2.129  16.411  0.3232 -0.3102  0.1153
 9850TIP3   OH251040   6.089   1.142   5.470 -0.4126 -0.2065  0.5418
 9850TIP3    H151041   6.024   1.084   5.431  0.0411 -1.2367  1.3129
 9850TIP3    H251042   6.058   1.230   5.448 -0.1871 -0.7511 -2.1001
 9851TIP3   OH251043   1.871   1.750   1.300 -1.1985  0.0458 -0.0369
 9851TIP3    H151044   1.898   1.696   1.375 -1.0701  0.1181 -0.0309
 9851TIP3    H251045   1.953   1.774   1.258 -1.3491 -1.3795 -1.1781
 9852TIP3   OH251046   6.125   6.140   1.361  0.3292 -0.0292 -0.3174
 9852TIP3    H151047   6.206   6.190   1.377  0.3554  0.9648 -3.2971
 9852TIP3    H251048   6.137   6.102   1.274 -2.5392  0.4000 -0.9530
 9853TIP3   OH251049   2.443   5.255  17.277  0.0155  0.2058  0.6850
 9853TIP3    H151050   2.521   5.200  17.271  0.8722  1.4903 -0.3303
 9853TIP3    H251051   2.472   5.333  17.323 -0.9273  0.2879  1.1662
 9854TIP3   OH251052   6.785   3.335   2.985  0.4779 -0.6523 -0.6631
 9854TIP3    H151053   6.740   3.259   2.949  0.1034 -1.5326  1.5541
 9854TIP3    H251054   6.761   3.335   3.078  3.0688  0.2968  0.0435
 9855TIP3   OH251055   2.686   5.976  12.342 -0.0308 -0.3716 -0.5002
 9855TIP3    H151056   2.618   6.033  12.305 -1.1453 -1.2197  0.2146
 9855TIP3    H251057   2.661   5.888  12.315 -0.9886 -1.0348  2.3863
 9856TIP3   OH251058   1.807   4.750  14.435 -0.1772 -0.0945 -0.2048
 9856TIP3    H151059   1.726   4.798  14.454 -0.4087 -1.1937  1.6270
 9856TIP3    H251060   1.810   4.681  14.501  1.3151 -1.2104 -1.4211
 9857TIP3   OH251061   3.275   0.767  16.903  0.6475 -0.2737 -0.4985
 9857TIP3    H151062   3.225   0.762  16.822 -0.2827 -0.3506  0.0638
 9857TIP3    H251063   3.235   0.839  16.952  1.7277  0.3040 -0.4512
 9858TIP3   OH251064   4.801   5.482  10.880  0.4849  0.0898 -0.0001
 9858TIP3    H151065   4.797   5.389  10.904  0.4293  0.1827  0.3465
 9858TIP3    H251066   4.805   5.481  10.784 -1.5559 -0.2310 -0.1082
 9859TIP3   OH251067   0.947   0.946  12.754 -0.5319 -0.0064  0.3724
 9859TIP3    H151068   0.926   1.040  12.751  1.4936  0.4613  0.6231
 9859TIP3    H251069   0.873   0.905  12.709 -0.1442  1.9383 -2.1997
 9860TIP3   OH251070   5.272   0.455   1.854  0.3519 -0.8743 -0.2069
 9860TIP3    H151071   5.365   0.476   1.846  0.2581 -0.0739  0.6676
 9860TIP3    H251072   5.262   0.372   1.808  1.2986 -0.4599 -1.1839
 9861TIP3   OH251073   6.239   5.325   3.277  0.4170 -0.4598 -0.2955
 9861TIP3    H151074   6.198   5.271   3.344  0.8996 -0.7955 -0.2626
 9861TIP3    H251075   6.281   5.396   3.325  1.1535 -0.9535 -0.1925
 9862TIP3   OH251076   3.337   5.079  16.140  0.4614  0.0459  0.2102
 9862TIP3    H151077   3.417   5.093  16.190  0.8733  0.8958 -0.6770
 9862TIP3    H251078   3.333   4.985  16.126  2.5703  0.2260 -1.8067
 9863TIP3   OH251079   1.598   0.378  12.509  0.1021 -0.4033  0.5771
 9863TIP3    H151080   1.518   0.328  12.496  1.1866 -1.9798 -0.1486
 9863TIP3    H251081   1.607   0.430  12.429 -1.6052  1.8461  1.7865
 9864TIP3   OH251082   2.189   6.681   0.739 -0.0305  0.3107  0.7330
 9864TIP3    H151083   2.273   6.645   0.710 -0.3178  0.9580 -0.9945
 9864TIP3    H251084   2.204   6.776   0.742 -1.0791  0.5593 -0.9738
 9865TIP3   OH251085   0.810   6.112   4.775 -0.3340  0.5402 -0.4660
 9865TIP3    H151086   0.890   6.101   4.724 -0.5356 -1.4120 -0.4179
 9865TIP3    H251087   0.742   6.070   4.723 -0.4156 -2.1278  1.6405
 9866TIP3   OH251088   1.946   3.851  12.791 -0.2087  0.1956  0.1333
 9866TIP3    H151089   2.002   3.784  12.752  0.4808 -0.0883  1.5608
 9866TIP3    H251090   1.858   3.815  12.787 -0.0549 -0.1072 -0.5486
 9867TIP3   OH251091   5.137   0.333  14.287 -0.2124  0.2441 -0.0668
 9867TIP3    H151092   5.135   0.385  14.207  0.9941  2.0854  1.0658
 9867TIP3    H251093   5.212   0.273  14.275  0.3681  0.9618 -0.0499
 9868TIP3   OH251094   3.576   0.565   2.473 -0.1722  0.4127  0.2321
 9868TIP3    H151095   3.552   0.610   2.553 -1.6046  0.2076 -0.0573
 9868TIP3    H251096   3.495   0.521   2.445 -0.3295  2.3540 -2.5533
 9869TIP3   OH251097   2.907   4.303  12.238 -0.3811 -0.9383 -0.7965
 9869TIP3    H151098   2.829   4.353  12.213 -0.5444 -1.6023 -1.6371
 9869TIP3    H251099   2.887   4.270  12.325  0.5178  2.0779  0.6076
 9870TIP3   OH251100   4.117   0.219  14.182  0.2655  0.7786  0.1230
 9870TIP3    H151101   4.201   0.224  14.229  1.0014 -0.5362 -1.0301
 9870TIP3    H251102   4.134   0.161  14.108 -2.0401 -0.6251  0.6425
 9871TIP3   OH251103   4.414   1.254   6.056  0.0639 -0.0823  0.3378
 9871TIP3    H151104   4.354   1.294   5.992  1.0556  1.1849  0.1663
 9871TIP3    H251105   4.378   1.279   6.141  0.4426  0.8454  0.2344
 9872TIP3   OH251106   2.340   1.235   3.771  0.6369 -0.8123  0.0850
 9872TIP3    H151107   2.417   1.275   3.812  1.1345  0.6178 -2.1812
 9872TIP3    H251108   2.267   1.291   3.798  0.9587  0.1020 -0.8897
 9873TIP3   OH251109   1.481   3.534   2.830  0.2519 -0.0616 -0.0703
 9873TIP3    H151110   1.447   3.445   2.821  0.9568 -0.4055  0.6435
 9873TIP3    H251111   1.511   3.539   2.921  0.5441  0.7912 -0.2115
 9874TIP3   OH251112   3.608   4.001   0.001  0.2308 -0.3919 -0.2189
 9874TIP3    H151113   3.593   3.975  -0.090  1.2202  1.3210 -0.8944
 9874TIP3    H251114   3.552   4.077   0.014 -0.8355 -1.3771  0.9913
 9875TIP3   OH251115   1.499   1.654   5.947 -0.1500  0.0896  0.0532
 9875TIP3    H151116   1.567   1.701   5.899  0.7660 -0.1860  1.0435
 9875TIP3    H251117   1.540   1.571   5.971 -0.4905  0.3319  1.5337
 9876TIP3   OH251118   2.584   5.826  16.086 -0.3855  0.8930  0.2995
 9876TIP3    H151119   2.568   5.878  16.007  0.7554  2.0855  0.8252
 9876TIP3    H251120   2.629   5.886  16.145  1.9008 -0.9973  0.5463
 9877TIP3   OH251121   1.017   5.589  10.630  0.5426  0.0575 -0.0913
 9877TIP3    H151122   0.989   5.525  10.695  2.0763 -2.6786 -2.0024
 9877TIP3    H251123   0.952   5.580  10.559  0.3708  1.1436 -0.0832
 9878TIP3   OH251124   2.903   1.195   5.393 -0.8741 -0.4482 -0.6568
 9878TIP3    H151125   2.808   1.190   5.396 -0.8809  0.4318  1.5229
 9878TIP3    H251126   2.932   1.136   5.463  0.2313 -1.8787 -2.2959
 9879TIP3   OH251127   4.826   2.099  13.362  0.0591  0.5400 -0.0718
 9879TIP3    H151128   4.853   2.011  13.336  2.2270  2.3642 -4.4620
 9879TIP3    H251129   4.763   2.126  13.296 -0.2920  2.4111  1.0034
 9880TIP3   OH251130   6.225   3.688  11.720 -0.3044  0.3531 -0.2498
 9880TIP3    H151131   6.154   3.640  11.762  1.3179 -0.4728  1.5976
 9880TIP3    H251132   6.299   3.680  11.780  1.4791  0.8825 -2.3105
 9881TIP3   OH251133   1.884   0.247   5.613  0.0477 -0.0175  0.2559
 9881TIP3    H151134   1.919   0.171   5.659  1.5774  0.2424 -0.4384
 9881TIP3    H251135   1.796   0.220   5.587  0.1097 -1.0894  1.1134
 9882TIP3   OH251136   0.193   1.004   0.023 -0.2811  0.0155 -0.1245
 9882TIP3    H151137   0.135   0.982  -0.050  1.0955  0.4832 -1.3724
 9882TIP3    H251138   0.159   1.088   0.056 -0.4893  0.1411 -0.6598
 9883TIP3   OH251139   2.667   2.690  13.009  0.4888  0.0058  0.3324
 9883TIP3    H151140   2.661   2.746  13.086  1.1046  1.2049 -0.4870
 9883TIP3    H251141   2.636   2.604  13.040 -0.3106  0.7402  1.6245
 9884TIP3   OH251142   3.470   5.250  14.349 -0.2692 -0.0008  0.3773
 9884TIP3    H151143   3.535   5.224  14.283  0.6060  1.0722  0.8115
 9884TIP3    H251144   3.388   5.258  14.300 -0.0622 -1.2265 -0.2038
 9885TIP3   OH251145   0.325   5.710   3.922 -0.1746  0.2454  0.0215
 9885TIP3    H151146   0.240   5.741   3.891 -0.9755 -2.1979 -0.3577
 9885TIP3    H251147   0.327   5.617   3.897  1.9495 -0.1087  1.3886
 9886TIP3   OH251148   6.387   4.278  11.258  0.2274 -0.6740  0.4105
 9886TIP3    H151149   6.350   4.316  11.338 -1.4933 -2.7894  0.6670
 9886TIP3    H251150   6.376   4.184  11.269  3.2146 -1.2065 -0.7929
 9887TIP3   OH251151   3.000   2.483   4.537 -0.1156  0.1154  0.0850
 9887TIP3    H151152   2.937   2.481   4.465  0.7900  1.0138 -0.7512
 9887TIP3    H251153   2.980   2.405   4.588 -0.5594 -0.7256 -1.3401
 9888TIP3   OH251154   2.405   0.999  14.943  0.0250 -0.6625  0.3350
 9888TIP3    H151155   2.345   1.073  14.940  1.3918  0.4578  0.1479
 9888TIP3    H251156   2.351   0.923  14.924 -1.8204  0.0149  2.6137
 9889TIP3   OH251157   1.785   4.854   0.870  0.8316  0.4680 -0.0352
 9889TIP3    H151158   1.730   4.797   0.815  0.9020 -0.1263  0.4983
 9889TIP3    H251159   1.733   4.867   0.950  1.1175  0.5819  0.1332
 9890TIP3   OH251160   2.501   4.814   0.103  0.0104  0.1831  0.2687
 9890TIP3    H151161   2.507   4.746   0.036  1.7662 -0.7124  1.2859
 9890TIP3    H251162   2.507   4.767   0.186  1.5786  1.5635  0.9922
 9891TIP3   OH251163   2.352   5.682  14.618 -0.5603  0.0711  0.0645
 9891TIP3    H151164   2.262   5.714  14.608 -1.6580 -2.6135  0.7786
 9891TIP3    H251165   2.393   5.743  14.679 -1.8369  1.4318 -0.4151
 9892TIP3   OH251166   0.319   0.430   4.577  0.6061 -0.5873 -0.1774
 9892TIP3    H151167   0.300   0.360   4.514  0.5179 -0.7380  0.0162
 9892TIP3    H251168   0.414   0.441   4.572  0.5633 -0.3770 -0.5697
 9893TIP3   OH251169   3.949   1.325  13.398  0.2726 -0.4714 -0.0844
 9893TIP3    H151170   3.854   1.329  13.389  0.3102  0.1257 -0.2299
 9893TIP3    H251171   3.970   1.393  13.462  0.6543 -0.2350 -0.4588
 9894TIP3   OH251172   5.411   2.222   4.789 -0.3077  0.2240 -0.0736
 9894TIP3    H151173   5.320   2.243   4.812  0.2875  2.7225  0.1846
 9894TIP3    H251174   5.460   2.301   4.812  2.3474 -1.9540  2.0495
 9895TIP3   OH251175   0.446   1.584  12.470  0.5338  0.3137  0.0390
 9895TIP3    H151176   0.479   1.557  12.556 -2.1606 -2.2486  0.3508
 9895TIP3    H251177   0.398   1.508  12.438 -2.1276  2.6889 -1.8710
 9896TIP3   OH251178   5.693   2.170   1.720 -0.3231  0.1028 -0.0704
 9896TIP3    H151179   5.712   2.109   1.649 -1.4173 -0.0847 -0.2134
 9896TIP3    H251180   5.778   2.185   1.762  0.0722 -1.0127 -0.4332
 9897TIP3   OH251181   2.358   4.877  16.565 -0.0034  0.4861 -0.7529
 9897TIP3    H151182   2.316   4.873  16.651  0.4655 -0.6305 -0.5686
 9897TIP3    H251183   2.285   4.874  16.503 -0.2830  0.1239 -0.4108
 9898TIP3   OH251184   1.347   4.158  11.861  0.2948  0.2709 -0.3353
 9898TIP3    H151185   1.317   4.242  11.827  1.8446  1.2125  0.5146
 9898TIP3    H251186   1.267   4.110  11.882 -0.6102  2.0311  0.3260
 9899TIP3   OH251187   3.170   0.246  16.842 -0.1315 -0.0539 -0.2938
 9899TIP3    H151188   3.251   0.211  16.879 -0.8275 -0.6911  0.6547
 9899TIP3    H251189   3.199   0.299  16.767  1.1345 -0.4537 -0.1031
 9900TIP3   OH251190   2.628   5.706   2.803  0.2833 -0.4127  0.7383
 9900TIP3    H151191   2.722   5.696   2.792  0.2292  0.0553 -0.2504
 9900TIP3    H251192   2.591   5.674   2.720 -0.3261  0.9734  0.4618
 9901TIP3   OH251193   6.537   4.907   0.298 -0.2542 -0.6245 -0.2066
 9901TIP3    H151194   6.616   4.961   0.293  0.3304 -1.1009  2.9329
 9901TIP3    H251195   6.550   4.838   0.233  1.8798 -0.6365  0.1985
 9902TIP3   OH251196   3.295   3.713   5.073  0.2152 -0.5469 -0.5947
 9902TIP3    H151197   3.256   3.767   5.142  0.7193 -0.7831 -0.1245
 9902TIP3    H251198   3.257   3.747   4.992 -0.9053 -0.7219 -0.1487
 9903TIP3   OH251199   1.176   2.720  12.039 -0.5604 -0.1826  0.1891
 9903TIP3    H151200   1.114   2.789  12.013 -0.4253 -0.1649 -0.0848
 9903TIP3    H251201   1.259   2.748  12.002 -0.6067 -0.7506 -0.3463
 9904TIP3   OH251202   3.640   2.050  15.258 -0.2594 -0.2455  0.6815
 9904TIP3    H151203   3.591   2.041  15.176 -0.0371  0.6486  0.4371
 9904TIP3    H251204   3.721   2.095  15.232  0.8095 -1.9166  1.0497
 9905TIP3   OH251205   4.579   4.025   6.376 -0.3259 -0.0471  0.1046
 9905TIP3    H151206   4.537   3.961   6.434  0.2325  0.1805  0.7600
 9905TIP3    H251207   4.542   4.109   6.403 -0.6533 -0.0241 -0.3993
 9906TIP3   OH251208   2.188   6.083   0.858  0.4805 -0.2668  0.5429
 9906TIP3    H151209   2.171   6.054   0.947 -0.0540 -0.6619  0.3192
 9906TIP3    H251210   2.192   6.001   0.807 -0.7678  0.0297 -0.0497
 9907TIP3   OH251211   1.405   0.088  13.831 -0.9792  0.3801  0.5262
 9907TIP3    H151212   1.410   0.182  13.847 -1.1150  0.3674  0.6381
 9907TIP3    H251213   1.356   0.080  13.749  1.5800  0.5568 -1.1007
 9908TIP3   OH251214   6.594   2.154   5.434  0.0398  0.2786  0.1759
 9908TIP3    H151215   6.515   2.142   5.381  0.6448 -1.0225 -0.4469
 9908TIP3    H251216   6.596   2.247   5.453 -0.2578  0.7593 -2.0030
 9909TIP3   OH251217   4.692   2.779   2.554  0.5796  0.0881  0.0076
 9909TIP3    H151218   4.682   2.701   2.609  0.6792 -0.6189 -0.9653
 9909TIP3    H251219   4.785   2.780   2.531  0.5655  0.4551 -0.0307
 9910TIP3   OH251220   1.776   4.670   6.637 -0.3610  0.3675 -0.3755
 9910TIP3    H151221   1.795   4.740   6.575 -0.9145  1.0613  0.2333
 9910TIP3    H251222   1.859   4.622   6.645 -0.1131  0.6672 -1.1482
 9911TIP3   OH251223   4.950   3.742  12.995  0.3160  0.3842 -0.2940
 9911TIP3    H151224   4.957   3.767  13.088 -0.7389  1.9172 -0.6023
 9911TIP3    H251225   4.878   3.796  12.962  0.3422 -0.5461 -1.8833
 9912TIP3   OH251226   2.329   0.926  10.426  0.2615  0.6101  0.1954
 9912TIP3    H151227   2.245   0.893  10.395 -0.1264  1.8670 -0.1157
 9912TIP3    H251228   2.337   1.013  10.386  0.8543  1.2572  1.6848
 9913TIP3   OH251229   3.729   0.887  12.024 -0.1283  0.5156 -0.5997
 9913TIP3    H151230   3.676   0.954  12.066 -1.2308 -1.0072  0.4975
 9913TIP3    H251231   3.667   0.835  11.973  0.1170 -1.7421  1.2944
 9914TIP3   OH251232   3.326   4.150   2.739 -0.0636  0.0396 -0.1296
 9914TIP3    H151233   3.271   4.217   2.780  0.9117  0.5807  0.3013
 9914TIP3    H251234   3.415   4.184   2.746  0.4185 -1.2086 -0.0766
 9915TIP3   OH251235   1.292   2.282  13.016  0.1586 -0.1425 -0.0401
 9915TIP3    H151236   1.287   2.355  12.954  0.3157 -0.8163 -0.8672
 9915TIP3    H251237   1.203   2.248  13.020 -0.0272  0.4360  0.7670
 9916TIP3   OH251238   2.949   2.299  14.751 -0.4618  0.2551 -0.0498
 9916TIP3    H151239   2.907   2.384  14.746 -2.4437 -0.5410  2.0045
 9916TIP3    H251240   2.877   2.236  14.741  0.6525 -1.1444  0.5583
 9917TIP3   OH251241   4.227   1.941  13.168  0.0111 -0.3678  0.0009
 9917TIP3    H151242   4.166   1.937  13.095 -0.0897 -0.1906  0.0719
 9917TIP3    H251243   4.187   2.004  13.229  0.1218 -0.4682  0.1801
 9918TIP3   OH251244   0.421   1.366  17.167  0.3351 -0.1015  0.7389
 9918TIP3    H151245   0.377   1.350  17.251  1.6570 -0.9008  1.2778
 9918TIP3    H251246   0.349   1.389  17.108 -0.8107 -1.2405  1.6461
 9919TIP3   OH251247   3.936   5.111   1.081 -0.1664 -0.3623  0.4421
 9919TIP3    H151248   3.914   5.167   1.005 -0.1487 -1.1011 -0.1132
 9919TIP3    H251249   3.918   5.022   1.050  2.1339 -0.8667  0.5110
 9920TIP3   OH251250   1.551   4.398   5.575 -0.0748  0.5865 -0.5127
 9920TIP3    H151251   1.472   4.358   5.612  0.2640 -0.2402 -0.6543
 9920TIP3    H251252   1.578   4.337   5.506  1.4625  0.1629  0.4548
 9921TIP3   OH251253   1.819   6.341  15.688  0.2486  0.5415  0.1499
 9921TIP3    H151254   1.791   6.344  15.780  0.4694  1.8412  0.1882
 9921TIP3    H251255   1.905   6.299  15.691 -0.7568 -1.5557  0.2635
 9922TIP3   OH251256   6.389   2.629  14.594 -0.4462 -0.7406 -0.3416
 9922TIP3    H151257   6.413   2.630  14.502  0.4239  0.4569 -0.1190
 9922TIP3    H251258   6.336   2.550  14.605 -0.4974 -0.9144 -1.8446
 9923TIP3   OH251259   0.602   0.009  16.820 -0.0646  0.0575 -0.4435
 9923TIP3    H151260   0.617  -0.015  16.728  1.3338  0.8792 -0.4478
 9923TIP3    H251261   0.527   0.068  16.818  0.8879  1.2779 -1.2563
 9924TIP3   OH251262   0.574   3.492  12.248  0.2637  0.0213  0.4555
 9924TIP3    H151263   0.661   3.486  12.287  0.0341  2.3319  1.4353
 9924TIP3    H251264   0.590   3.521  12.158  0.5270 -0.1001  0.4622
 9925TIP3   OH251265   2.836   2.306  16.872 -0.2281  0.0708 -0.2496
 9925TIP3    H151266   2.842   2.337  16.963  1.7990 -0.7409 -0.0855
 9925TIP3    H251267   2.748   2.270  16.865 -0.8543  1.2960  1.0216
 9926TIP3   OH251268   4.499   4.240   5.224 -0.1085  0.2134 -0.3229
 9926TIP3    H151269   4.565   4.232   5.154  0.9668  2.6120  0.3557
 9926TIP3    H251270   4.415   4.233   5.178  0.5883 -0.6012 -1.5194
 9927TIP3   OH251271   3.782   5.180   4.018 -0.1255 -0.9019 -0.3065
 9927TIP3    H151272   3.807   5.241   4.088 -0.4849 -1.1051  0.0053
 9927TIP3    H251273   3.861   5.129   4.002  0.0033 -0.7562 -0.1457
 9928TIP3   OH251274   6.151   3.766   3.679 -0.6836 -0.3682 -0.5725
 9928TIP3    H151275   6.132   3.827   3.607  1.8387  0.6501 -0.4004
 9928TIP3    H251276   6.245   3.775   3.694 -1.1645 -0.5952  2.8568
 9929TIP3   OH251277   0.905   2.992  10.727  0.1487 -0.0381  0.0772
 9929TIP3    H151278   0.924   2.947  10.645 -3.6242 -1.2189 -0.2225
 9929TIP3    H251279   0.890   3.083  10.702 -0.0936 -0.2169 -0.4222
 9930TIP3   OH251280   0.003   3.067  14.706 -0.2283  0.1521 -0.2087
 9930TIP3    H151281   0.022   3.158  14.727 -0.6365  0.3316 -0.6058
 9930TIP3    H251282   0.040   3.055  14.618 -0.3783  0.0068 -0.2530
 9931TIP3   OH251283   5.391   1.946  14.447  0.5569 -0.1198 -0.1744
 9931TIP3    H151284   5.453   1.925  14.518  0.9692 -0.3057 -0.5840
 9931TIP3    H251285   5.440   2.007  14.392 -1.0552  2.9884  1.6848
 9932TIP3   OH251286   4.709   3.483   2.552  0.6587 -0.3448 -0.5034
 9932TIP3    H151287   4.653   3.498   2.628  0.2253 -0.2944 -0.8312
 9932TIP3    H251288   4.729   3.389   2.555  0.6462 -0.3420 -0.3275
 9933TIP3   OH251289   3.483   0.867  15.637 -0.3264 -0.6606  0.1587
 9933TIP3    H151290   3.533   0.942  15.604  0.0092 -0.3109  1.4394
 9933TIP3    H251291   3.546   0.819  15.691 -1.1763 -0.6308  1.1835
 9934TIP3   OH251292   0.004   4.421   0.419  0.0257  0.2278 -0.3116
 9934TIP3    H151293  -0.009   4.388   0.330 -0.7527 -0.8874  0.2063
 9934TIP3    H251294   0.024   4.343   0.471 -2.0709  0.5075  0.9665
 9935TIP3   OH251295   6.755   1.325  13.270  0.5118  0.0203  0.2323
 9935TIP3    H151296   6.748   1.230  13.264 -0.0166  0.1611 -1.7297
 9935TIP3    H251297   6.698   1.349  13.343 -3.1126 -0.7947 -2.1626
 9936TIP3   OH251298   2.767   0.538  15.866  0.5025  0.1007 -0.2737
 9936TIP3    H151299   2.755   0.517  15.959  2.1762  0.9988  0.1588
 9936TIP3    H251300   2.843   0.486  15.839  0.2017  0.0689 -1.0613
 9937TIP3   OH251301   0.708   6.147  15.266  0.0538 -0.5233 -0.0089
 9937TIP3    H151302   0.716   6.184  15.178 -0.8003  1.1151  0.5664
 9937TIP3    H251303   0.786   6.178  15.312  0.0424 -0.6122  0.0692
 9938TIP3   OH251304   6.303   1.992  12.011 -0.3911 -0.2001 -0.0590
 9938TIP3    H151305   6.239   2.012  11.944  0.0161 -0.7339 -0.6127
 9938TIP3    H251306   6.260   1.927  12.067  0.1210 -1.5370 -1.1790
 9939TIP3   OH251307   2.523   3.838  15.781 -0.1053 -0.5699 -0.0922
 9939TIP3    H151308   2.457   3.811  15.717  0.3523  1.3581 -1.4107
 9939TIP3    H251309   2.482   3.822  15.866 -1.1774 -2.0244 -0.8589
 9940TIP3   OH251310   3.055   1.246   0.831  0.8751  0.1394 -0.1222
 9940TIP3    H151311   2.964   1.216   0.838  1.4842 -2.3103 -2.2207
 9940TIP3    H251312   3.108   1.168   0.850  2.5658  1.3822  0.4362
 9941TIP3   OH251313   0.990   5.470   5.344  0.0320 -0.8006  0.2464
 9941TIP3    H151314   0.999   5.555   5.301 -1.4701  0.0897  1.6253
 9941TIP3    H251315   0.947   5.415   5.279 -1.3208  0.2512  0.2062
 9942TIP3   OH251316   1.213   4.582  16.980 -0.1729  0.0115  0.3424
 9942TIP3    H151317   1.274   4.636  16.930 -2.5374  2.3752 -0.1106
 9942TIP3    H251318   1.214   4.621  17.068 -1.7505  0.7142  0.0621
 9943TIP3   OH251319   3.940   6.663   0.882 -0.4244  0.0187 -0.3201
 9943TIP3    H151320   3.853   6.663   0.921 -0.1918  2.1095  0.2611
 9943TIP3    H251321   3.924   6.674   0.788 -0.7723  1.5893 -0.0941
 9944TIP3   OH251322   1.963   6.645  15.285 -0.4320 -0.1307  0.2134
 9944TIP3    H151323   2.026   6.593  15.335 -1.0185 -0.5008  0.5800
 9944TIP3    H251324   1.896   6.669  15.349  0.7726  2.6904  0.4961
 9945TIP3   OH251325   5.430   1.176  16.480 -0.2392 -0.3398 -0.0688
 9945TIP3    H151326   5.397   1.092  16.450  1.0213  0.4291 -3.8777
 9945TIP3    H251327   5.523   1.161  16.497  0.2168  0.4774 -1.7346
 9946TIP3   OH251328   5.911   4.384   2.086  0.4688 -0.5374  0.1676
 9946TIP3    H151329   5.968   4.393   2.162  0.9177 -0.9268 -0.1149
 9946TIP3    H251330   5.941   4.303   2.043 -0.3910 -0.8205  0.0929
 9947TIP3   OH251331   4.810   2.789   0.670 -0.3867  0.2650 -0.6706
 9947TIP3    H151332   4.720   2.762   0.649 -0.7895 -0.0066  1.3432
 9947TIP3    H251333   4.853   2.708   0.698 -0.6153  1.0545  2.0396
 9948TIP3   OH251334   4.902   0.659  14.385 -0.0593  0.6476  0.1989
 9948TIP3    H151335   4.995   0.637  14.386 -0.0997  0.4313 -0.5567
 9948TIP3    H251336   4.899   0.753  14.403  0.2424  0.4553  1.2551
 9949TIP3   OH251337   0.892   5.059   1.907  0.5738  0.2134  0.2434
 9949TIP3    H151338   0.885   4.972   1.868  1.6405  0.0746  0.3315
 9949TIP3    H251339   0.913   5.116   1.834 -1.6890  0.6708 -0.0753
 9950TIP3   OH251340   2.581   4.497   2.904 -0.7490  0.4095  0.2976
 9950TIP3    H151341   2.651   4.550   2.943 -0.1626  1.1600 -1.7531
 9950TIP3    H251342   2.504   4.554   2.907 -0.9928  0.0410  1.3903
 9951TIP3   OH251343   2.970   3.547   4.178 -0.2750 -0.3848 -0.6536
 9951TIP3    H151344   2.992   3.584   4.264  0.3995 -1.5137 -0.3340
 9951TIP3    H251345   2.878   3.569   4.165  0.0191  1.1026 -0.3135
 9952TIP3   OH251346   4.476   5.988  12.473 -0.3676 -0.2787  0.2006
 9952TIP3    H151347   4.399   5.961  12.424 -0.0857  0.5969 -0.7522
 9952TIP3    H251348   4.550   5.965  12.417 -0.0615  1.1235 -0.0007
 9953TIP3   OH251349   3.156   2.253   5.732 -0.2286  0.4551 -0.1607
 9953TIP3    H151350   3.182   2.345   5.722 -0.1795  0.2898 -1.5731
 9953TIP3    H251351   3.070   2.257   5.774 -0.7944  1.1860 -1.3750
 9954TIP3   OH251352   0.212   0.430   0.155  0.3189  0.3440 -0.4621
 9954TIP3    H151353   0.169   0.503   0.110  0.0830  1.0738  0.9131
 9954TIP3    H251354   0.292   0.468   0.192 -0.0196  0.0137  0.6274
 9955TIP3   OH251355   3.150   0.123  15.844  0.2200  0.4517 -0.2118
 9955TIP3    H151356   3.203   0.191  15.803  0.5239  0.8349  0.7925
 9955TIP3    H251357   3.090   0.094  15.775  1.5738  0.1770 -1.2892
 9956TIP3   OH251358   0.598   3.614   1.356 -0.2703  0.4822 -0.3412
 9956TIP3    H151359   0.626   3.668   1.430  2.8819  0.0074 -1.0931
 9956TIP3    H251360   0.578   3.529   1.395 -0.9880  0.9426  0.2911
 9957TIP3   OH251361   6.477   1.823   6.142  0.6120 -0.4045  0.7232
 9957TIP3    H151362   6.427   1.869   6.210 -0.7537 -0.0408 -0.5017
 9957TIP3    H251363   6.556   1.877   6.130 -0.1682  0.7230  0.5151
 9958TIP3   OH251364   4.657   0.872  13.322  0.4588  0.4688  0.0944
 9958TIP3    H151365   4.600   0.949  13.331 -1.3431 -0.8128 -0.1547
 9958TIP3    H251366   4.620   0.808  13.382  0.0148 -1.3093 -2.0133
 9959TIP3   OH251367   4.371   5.825  11.402 -0.1745 -0.6017  0.1010
 9959TIP3    H151368   4.311   5.857  11.335 -0.0901 -0.0969  0.2682
 9959TIP3    H251369   4.366   5.889  11.472 -1.9370 -2.2865  1.5558
 9960TIP3   OH251370   6.053   1.627   5.866  0.1744 -0.4096 -0.5542
 9960TIP3    H151371   6.100   1.697   5.821  1.4899 -1.3594 -0.6751
 9960TIP3    H251372   6.087   1.629   5.955 -0.5612 -0.2083 -0.2749
 9961TIP3   OH251373   4.266   4.493   4.090 -0.3076 -0.2880 -0.8948
 9961TIP3    H151374   4.318   4.500   4.170  0.8275 -1.9265 -1.4797
 9961TIP3    H251375   4.330   4.494   4.019 -1.3085  1.2421 -1.8124
 9962TIP3   OH251376   1.920   3.998   3.395  0.1043 -0.3436 -0.3065
 9962TIP3    H151377   1.915   3.947   3.476  1.2868  1.4680  0.9458
 9962TIP3    H251378   1.831   3.998   3.361 -0.1509 -2.2069  0.2945
 9963TIP3   OH251379   2.300   0.788  12.123  0.1425 -0.0108 -0.6395
 9963TIP3    H151380   2.258   0.778  12.037 -0.4768 -1.8080 -0.1548
 9963TIP3    H251381   2.393   0.794  12.104 -0.0365  0.1914 -1.4783
 9964TIP3   OH251382   6.399   0.597   6.488 -0.0355  0.4208  0.2040
 9964TIP3    H151383   6.445   0.678   6.467 -0.0545  0.6459  1.0039
 9964TIP3    H251384   6.348   0.618   6.566 -0.8879 -0.0543 -0.2235
 9965TIP3   OH251385   3.579   2.151  17.172 -0.2278 -0.2631  0.4609
 9965TIP3    H151386   3.617   2.155  17.260  2.4947  0.9558 -0.7292
 9965TIP3    H251387   3.575   2.243  17.144  0.6972 -0.7943 -1.4227
 9966TIP3   OH251388   5.118   4.506  13.870  0.0092  0.3837  0.7206
 9966TIP3    H151389   5.111   4.411  13.871  1.1857  0.2832  1.9810
 9966TIP3    H251390   5.029   4.537  13.882 -0.1201 -0.5972  2.5467
 9967TIP3   OH251391   6.599   6.145  14.449 -0.1435 -0.4477  0.2281
 9967TIP3    H151392   6.617   6.210  14.518 -0.3314 -1.0670  0.8656
 9967TIP3    H251393   6.508   6.119  14.463  0.2431 -1.6103  0.6234
 9968TIP3   OH251394   3.493   3.458  12.211  1.0776 -0.1391 -0.2075
 9968TIP3    H151395   3.575   3.460  12.260  0.2720  1.2581  1.1591
 9968TIP3    H251396   3.463   3.368  12.219  1.4902 -0.1871  1.0260
 9969TIP3   OH251397   3.725   3.628   0.966  0.5606 -0.6035 -0.2848
 9969TIP3    H151398   3.751   3.537   0.954  1.2866 -0.5283  0.6483
 9969TIP3    H251399   3.801   3.671   1.004  0.0125  0.2504 -0.1192
 9970TIP3   OH251400   1.914   5.656  16.070 -0.1308 -0.1727 -0.2071
 9970TIP3    H151401   1.956   5.626  16.150 -0.3850 -1.2319 -0.4536
 9970TIP3    H251402   1.959   5.737  16.047 -1.2364  1.1058  1.9738
 9971TIP3   OH251403   5.787   1.723   2.334 -0.5053  0.7467  0.3354
 9971TIP3    H151404   5.820   1.710   2.423  1.2392  1.5633 -0.1881
 9971TIP3    H251405   5.801   1.638   2.291 -0.1387  0.7445  0.4552
 9972TIP3   OH251406   2.822   4.324  12.507 -0.2559  0.5147 -0.3491
 9972TIP3    H151407   2.778   4.329  12.592 -0.0271 -3.3631  0.0893
 9972TIP3    H251408   2.910   4.293  12.528 -0.0756 -0.1081 -1.9681
 9973TIP3   OH251409   2.061   6.311   1.700 -0.4784  0.5710  0.3336
 9973TIP3    H151410   1.979   6.262   1.696  0.2013 -0.5957  0.6811
 9973TIP3    H251411   2.072   6.346   1.612  0.5577 -2.3909 -0.7355
 9974TIP3   OH251412   4.163   1.366  15.298 -0.2484 -0.3303 -0.3366
 9974TIP3    H151413   4.236   1.427  15.286 -0.7036  0.4818  0.9359
 9974TIP3    H251414   4.092   1.420  15.334 -0.8572 -1.4888  0.2178
 9975TIP3   OH251415   4.081   0.467   0.835  0.5466  0.2227  0.1664
 9975TIP3    H151416   4.091   0.431   0.746  1.3630  4.0480 -1.3846
 9975TIP3    H251417   4.168   0.459   0.874  0.7129  0.4606 -0.1517
 9976TIP3   OH251418   6.044   0.112  13.309 -0.3046  0.4274  0.1476
 9976TIP3    H151419   6.094   0.128  13.229 -1.9801  0.0447 -1.0037
 9976TIP3    H251420   6.080   0.173  13.373 -0.1129  1.9467 -1.3886
 9977TIP3   OH251421   3.988   0.016   1.851 -0.4033 -0.4575 -0.0362
 9977TIP3    H151422   4.028   0.099   1.824 -0.0913  0.0203  1.8160
 9977TIP3    H251423   4.038  -0.050   1.804  1.1832  0.2626  0.6035
 9978TIP3   OH251424   2.932   4.262   4.033 -0.2224 -0.3198 -0.1938
 9978TIP3    H151425   2.904   4.296   4.117  2.0177  0.9988  0.0635
 9978TIP3    H251426   3.012   4.212   4.053  0.5173  0.2845 -1.5473
 9979TIP3   OH251427   0.705   6.460   0.528 -0.4989 -0.1370  0.7080
 9979TIP3    H151428   0.682   6.511   0.606 -1.2629 -1.1350  1.1418
 9979TIP3    H251429   0.784   6.412   0.553 -0.8695 -0.6269  0.9513
 9980TIP3   OH251430   1.085   4.567  11.808 -0.1577 -0.1177  0.0624
 9980TIP3    H151431   1.029   4.504  11.854 -0.1170 -1.0878 -1.1962
 9980TIP3    H251432   1.031   4.645  11.800 -0.3891 -0.1487  1.1862
 9981TIP3   OH251433   1.641   6.625   3.801 -0.1501  0.3178  0.2411
 9981TIP3    H151434   1.681   6.567   3.736  1.3136  1.9171 -0.3201
 9981TIP3    H251435   1.704   6.627   3.873 -0.7465  0.3013  0.7646
 9982TIP3   OH251436   0.113   5.886  11.573  0.0501 -0.9190  1.0245
 9982TIP3    H151437   0.199   5.851  11.596  0.1560 -0.7984  0.8228
 9982TIP3    H251438   0.108   5.874  11.478 -0.5043 -1.6878  1.1468
 9983TIP3   OH251439   4.127   5.639   2.380  0.1599  0.5038 -0.2219
 9983TIP3    H151440   4.188   5.709   2.356 -0.1327  0.4166 -1.2497
 9983TIP3    H251441   4.046   5.684   2.404 -0.0504  0.5181 -0.9498
 9984TIP3   OH251442   3.837   3.895  15.861 -0.0909  0.7819 -0.2102
 9984TIP3    H151443   3.831   3.937  15.775  1.3706  2.0882  0.2995
 9984TIP3    H251444   3.931   3.887  15.878 -0.3532 -1.3532  0.3787
 9985TIP3   OH251445   0.552   0.281  15.199 -0.7355  0.1394  0.5667
 9985TIP3    H151446   0.584   0.347  15.261  2.1317 -0.0821 -0.5999
 9985TIP3    H251447   0.530   0.331  15.121 -0.6600 -0.0279  0.4388
 9986TIP3   OH251448   1.043   4.065   2.996  0.1018 -0.2576  0.4588
 9986TIP3    H151449   0.969   4.094   3.049 -0.4341 -0.4759 -0.1591
 9986TIP3    H251450   1.086   4.146   2.969 -1.1430 -0.0220 -0.9050
 9987TIP3   OH251451   6.307   0.169   0.221 -0.0877 -0.3516  0.3599
 9987TIP3    H151452   6.302   0.201   0.311  0.9682  0.1024  0.2570
 9987TIP3    H251453   6.226   0.119   0.209 -1.3605  1.5573  0.8094
 9988TIP3   OH251454   6.602   3.687  12.583  0.3876  0.1885  0.3073
 9988TIP3    H151455   6.612   3.594  12.601 -2.0413 -0.5831 -2.1393
 9988TIP3    H251456   6.509   3.699  12.564  1.0056  2.7321 -1.4119
 9989TIP3   OH251457   0.707   1.106  14.033  0.9091 -0.4452  0.2825
 9989TIP3    H151458   0.678   1.183  14.082  2.6802  1.2640 -1.2560
 9989TIP3    H251459   0.726   1.140  13.945  1.9515 -2.5992 -0.3475
 9990TIP3   OH251460   2.728   3.147   0.384 -0.1708  0.2406 -0.6336
 9990TIP3    H151461   2.733   3.243   0.386 -0.2829  0.2593 -1.0723
 9990TIP3    H251462   2.785   3.122   0.311 -0.9229  0.0342 -1.1533
 9991TIP3   OH251463   5.063   3.060  14.879  0.0208  0.4426  1.2705
 9991TIP3    H151464   5.004   3.008  14.934  2.2863 -1.4408  2.0444
 9991TIP3    H251465   5.075   3.142  14.928 -1.3377  0.5332  1.4697
 9992TIP3   OH251466   3.194   0.345   6.063 -0.0080  0.1876  0.1755
 9992TIP3    H151467   3.175   0.386   6.148  1.4533 -0.4532  0.8103
 9992TIP3    H251468   3.278   0.382   6.037  0.7843 -1.5558  0.2198
 9993TIP3   OH251469   5.630   0.766  14.497  0.1178 -0.2540 -0.2355
 9993TIP3    H151470   5.666   0.695  14.444 -1.2098 -0.2353 -1.2084
 9993TIP3    H251471   5.538   0.742  14.510  0.3617 -0.1374  1.8946
 9994TIP3   OH251472   4.726   4.883   4.065  0.4757 -1.0956  0.1381
 9994TIP3    H151473   4.685   4.928   3.992 -1.9195 -0.9048  1.5180
 9994TIP3    H251474   4.668   4.809   4.083  1.5283 -1.6843  1.2397
 9995TIP3   OH251475   5.295   3.178  16.923  0.5722 -0.3443 -0.4971
 9995TIP3    H151476   5.216   3.157  16.972  0.3313  0.2346 -0.6304
 9995TIP3    H251477   5.352   3.102  16.935  0.4632 -0.2612  0.5652
 9996TIP3   OH251478   4.536   4.303  16.959  0.0837 -0.1798 -0.1068
 9996TIP3    H151479   4.539   4.398  16.948  0.5846 -0.1702  0.0947
 9996TIP3    H251480   4.460   4.288  17.015  0.4496  0.1642  0.4925
 9997TIP3   OH251481   1.758   4.919   6.461 -0.0839  0.3239  0.5756
 9997TIP3    H151482   1.699   4.969   6.518  0.1669 -0.3153  1.4190
 9997TIP3    H251483   1.791   4.983   6.398 -2.6819  0.4143 -0.7263
 9998TIP3   OH251484   2.697   3.419   6.296 -0.2321  0.1834  0.2940
 9998TIP3    H151485   2.714   3.512   6.282  0.2696 -0.0902 -0.9256
 9998TIP3    H251486   2.604   3.408   6.277  0.2342 -0.0099 -1.9622
 9999TIP3   OH251487   0.403   5.323   5.301  0.2007 -0.3108  0.2289
 9999TIP3    H151488   0.441   5.372   5.374 -2.4130 -0.5130  1.7665
 9999TIP3    H251489   0.444   5.236   5.307  0.5081 -0.1155  1.0481
10000TIP3   OH251490   3.481   2.459  12.381  0.2110  0.5931 -0.3235
10000TIP3    H151491   3.471   2.461  12.476  0.3137 -1.0112 -0.2656
10000TIP3    H251492   3.394   2.483  12.347 -0.2714 -0.4044  0.1847
10001TIP3   OH251493   0.432   1.599   2.074 -0.2179  0.1983  0.2880
10001TIP3    H151494   0.365   1.667   2.078  0.4137  0.8999 -1.0077
10001TIP3    H251495   0.489   1.617   2.149 -1.0649  0.0276  0.9774
10002TIP3   OH251496   2.979   5.000  13.567 -0.2232  0.0873  0.1542
10002TIP3    H151497   2.937   4.925  13.524  0.7192 -0.7154  0.6193
10002TIP3    H251498   3.072   4.990  13.546 -0.0409  0.9096  0.5556
10003TIP3   OH251499   4.746   5.346  13.776  0.5514 -0.0246  0.1502
10003TIP3    H151500   4.651   5.360  13.773  0.7219  1.2375  0.4703
10003TIP3    H251501   4.757   5.253  13.755 -0.7348 -0.1126 -0.1810
10004TIP3   OH251502   6.784   3.029  11.360 -0.3776 -0.9933 -0.8741
10004TIP3    H151503   6.723   3.022  11.286 -0.1912 -0.3289 -1.0888
10004TIP3    H251504   6.826   3.114  11.349  0.7100 -1.5181 -0.8042
10005TIP3   OH251505   6.463   6.642  16.445 -0.9480  0.5861 -0.4276
10005TIP3    H151506   6.376   6.603  16.457 -1.7499  2.2911 -0.5700
10005TIP3    H251507   6.449   6.713  16.383  0.3961  1.4361  0.2246
10006TIP3   OH251508   4.593   4.201  12.853 -0.0952 -0.0657  0.1254
10006TIP3    H151509   4.566   4.168  12.767 -0.2270  0.6798 -0.1235
10006TIP3    H251510   4.555   4.139  12.915  0.3774 -0.8635 -0.3742
10007TIP3   OH251511   5.889   4.810  13.588  0.2242 -0.2843 -0.2722
10007TIP3    H151512   5.885   4.877  13.656  0.5570 -0.8914  0.3590
10007TIP3    H251513   5.813   4.755  13.605  0.2896 -0.4158 -0.4050
10008TIP3   OH251514   4.986   4.492  15.970 -0.5919 -0.5172 -0.5567
10008TIP3    H151515   5.072   4.453  15.953 -0.5580 -1.4656  1.5499
10008TIP3    H251516   5.006   4.579  16.005 -0.3461 -1.7044  2.3904
10009TIP3   OH251517   5.315   6.578  13.962  0.5599  0.1720 -0.1023
10009TIP3    H151518   5.240   6.587  14.021  0.5687  1.2505 -0.2524
10009TIP3    H251519   5.289   6.624  13.882  1.8603  1.6736  0.3057
10010TIP3   OH251520   0.058   5.636  13.624  0.6200 -0.5925  0.0919
10010TIP3    H151521   0.069   5.557  13.676  0.1294 -0.4275  0.4460
10010TIP3    H251522  -0.018   5.679  13.662  1.2970  0.3956  0.3374
10011TIP3   OH251523   1.337   0.062  11.944 -0.3915 -0.0971 -0.4216
10011TIP3    H151524   1.430   0.044  11.932 -0.5019 -1.7753  1.0560
10011TIP3    H251525   1.318   0.134  11.883  2.1058  1.0659  0.1291
10012TIP3   OH251526   2.488   3.259   0.813  0.1191  0.1396  0.1528
10012TIP3    H151527   2.508   3.230   0.725 -2.7323 -0.1193 -0.4759
10012TIP3    H251528   2.493   3.180   0.867 -1.7764 -0.4278 -0.4749
10013TIP3   OH251529   0.243   2.516  15.670  0.0367 -0.8848 -0.0620
10013TIP3    H151530   0.230   2.422  15.656  3.1413 -1.3483 -0.0644
10013TIP3    H251531   0.335   2.525  15.695  0.4220  2.3993 -2.2560
10014TIP3   OH251532   2.741   6.722   3.729 -0.2624  0.2668 -0.2021
10014TIP3    H151533   2.657   6.767   3.730  0.0887  0.9049  1.8006
10014TIP3    H251534   2.805   6.791   3.714 -0.1928 -0.4631 -3.6854
10015TIP3   OH251535   1.494   3.594  15.613  0.1312  0.4092 -0.5759
10015TIP3    H151536   1.510   3.688  15.619  2.1436  0.0327  0.0790
10015TIP3    H251537   1.445   3.573  15.692 -0.8191  0.9910 -0.9971
10016TIP3   OH251538   6.507   5.916  10.676  0.1050  0.1772  0.1000
10016TIP3    H151539   6.501   5.886  10.585  0.2456 -2.3086  0.8780
10016TIP3    H251540   6.453   5.853  10.725 -1.1078  2.3071  1.5588
10017TIP3   OH251541   0.428   5.987   6.309  0.1268 -0.4431  0.4240
10017TIP3    H151542   0.361   5.967   6.244  1.1440 -0.3179 -0.6787
10017TIP3    H251543   0.449   6.079   6.294  1.3044 -0.7700  0.0602
10018TIP3   OH251544   4.010   3.188   4.464 -0.2824  0.4035 -0.2130
10018TIP3    H151545   3.935   3.146   4.422 -0.7879  0.6531  0.4398
10018TIP3    H251546   4.016   3.146   4.550  0.3494  0.3541 -0.2833
10019TIP3   OH251547   6.808   2.075  13.214  0.3504  0.9683  0.1245
10019TIP3    H151548   6.791   2.109  13.302  0.0187 -0.1834  0.5145
10019TIP3    H251549   6.903   2.066  13.209  0.3939  1.3523  0.2385
10020TIP3   OH251550   0.517   1.118  12.135 -0.0876  0.2459  0.2844
10020TIP3    H151551   0.520   1.213  12.149  0.9447  0.0457  1.6304
10020TIP3    H251552   0.474   1.107  12.051  0.0233  1.9290 -0.0149
10021TIP3   OH251553   4.746   3.684   3.167  0.0337  0.2901  0.1836
10021TIP3    H151554   4.782   3.686   3.255 -0.7260  1.0897  0.4911
10021TIP3    H251555   4.743   3.776   3.140 -0.3845  0.1118 -0.4064
10022TIP3   OH251556   0.721   4.605   4.667  0.4622 -0.4877 -0.1616
10022TIP3    H151557   0.691   4.690   4.700 -1.4600 -1.4090  0.5599
10022TIP3    H251558   0.681   4.597   4.581  0.7852 -0.5795 -0.3042
10023TIP3   OH251559   2.683   4.376  11.876  0.2857 -0.2307 -0.8340
10023TIP3    H151560   2.754   4.401  11.817  0.3528  0.3682 -0.4955
10023TIP3    H251561   2.619   4.333  11.818  0.5090  0.0371 -1.2864
10024TIP3   OH251562   6.780   1.166  12.597 -0.1435  0.0661  0.1554
10024TIP3    H151563   6.752   1.225  12.667  1.7146  1.2566 -0.0892
10024TIP3    H251564   6.752   1.209  12.516 -0.5733 -0.3740  0.0665
10025TIP3   OH251565   0.996   5.415   3.594  0.3962 -0.5738  0.0641
10025TIP3    H151566   1.005   5.335   3.646  1.9915 -0.8484 -0.5878
10025TIP3    H251567   1.012   5.486   3.656 -1.5287 -0.7177  0.7556
10026TIP3   OH251568   2.014   4.732  13.482 -0.9221 -0.6094 -0.2843
10026TIP3    H151569   2.071   4.789  13.532 -3.1150 -1.1598  2.9834
10026TIP3    H251570   2.045   4.643  13.501 -2.5333 -0.8904  1.1855
10027TIP3   OH251571   6.592   6.136  12.571  0.5864 -0.2141 -0.1919
10027TIP3    H151572   6.632   6.218  12.601  0.0175 -0.1475  0.3875
10027TIP3    H251573   6.543   6.104  12.647 -0.1787 -0.4778 -0.7952
10028TIP3   OH251574   2.349   3.459   2.516 -0.7300  0.0850 -0.6785
10028TIP3    H151575   2.425   3.517   2.511 -0.7635  0.2009  0.2077
10028TIP3    H251576   2.386   3.371   2.524 -0.6834  0.3002  1.6882
10029TIP3   OH251577   4.419   4.482   4.634 -0.3243 -0.3980  0.6717
10029TIP3    H151578   4.449   4.572   4.647  0.6239 -0.8528  1.6741
10029TIP3    H251579   4.408   4.446   4.722  2.6416 -2.3535  0.3082
10030TIP3   OH251580   4.146   6.051   5.810 -0.3238  0.2151  0.6217
10030TIP3    H151581   4.092   6.114   5.762 -1.1180  0.6745  2.1097
10030TIP3    H251582   4.190   6.102   5.878  1.4325 -0.2897 -0.0834
10031TIP3   OH251583   0.093   0.827  12.968  0.2386 -0.0556 -0.4604
10031TIP3    H151584   0.110   0.803  12.877  0.9686  2.2952 -0.9962
10031TIP3    H251585   0.046   0.911  12.962  0.3226  0.1486  1.3321
10032TIP3   OH251586   1.373   1.790  16.820 -0.3421  0.7247  0.0639
10032TIP3    H151587   1.455   1.837  16.810  0.0607  0.1385  0.6212
10032TIP3    H251588   1.322   1.843  16.881  0.4581 -0.0227  1.3798
10033TIP3   OH251589   1.676   5.436   4.828  0.1097 -0.3191  0.5122
10033TIP3    H151590   1.606   5.372   4.815  1.6880 -1.7754 -1.1315
10033TIP3    H251591   1.634   5.520   4.813 -1.6576 -1.0583  1.1697
10034TIP3   OH251592   5.123   1.248   3.362 -0.6627 -0.4030 -0.2133
10034TIP3    H151593   5.042   1.205   3.389 -2.1398  1.1749 -1.9366
10034TIP3    H251594   5.153   1.197   3.287 -1.2681  0.2765 -0.9327
10035TIP3   OH251595   3.508   2.412  10.738  0.1655  0.3291 -0.9979
10035TIP3    H151596   3.471   2.378  10.656 -0.9000  0.5790 -0.6368
10035TIP3    H251597   3.507   2.507  10.727  1.0630  0.3238 -1.1327
10036TIP3   OH251598   4.995   2.649  13.231 -0.2326  0.1920  0.5144
10036TIP3    H151599   5.038   2.734  13.243  1.0859 -0.6740  2.1390
10036TIP3    H251600   5.068   2.587  13.219 -1.0485 -1.1359  2.1854
10037TIP3   OH251601   0.160   0.661   3.736 -0.3576  0.6890  0.3867
10037TIP3    H151602   0.120   0.603   3.801  1.2837 -0.9598 -0.0449
10037TIP3    H251603   0.252   0.636   3.735  0.1623  2.5483 -0.6442
10038TIP3   OH251604   4.924   4.654  15.035 -0.0533  0.0636 -0.2837
10038TIP3    H151605   4.972   4.642  15.117  1.0777 -1.3277 -1.1167
10038TIP3    H251606   4.934   4.570  14.990 -1.9208  0.3059 -1.1906
10039TIP3   OH251607   3.398   0.510   0.094 -0.3315  0.3487 -0.0499
10039TIP3    H151608   3.468   0.507   0.029  1.4210  0.6543  1.7549
10039TIP3    H251609   3.433   0.566   0.164 -3.7586  3.4993 -0.6758
10040TIP3   OH251610   1.095   0.236   4.924 -0.4544 -0.2775 -0.0899
10040TIP3    H151611   1.113   0.171   4.856 -1.6946  0.6710 -1.3558
10040TIP3    H251612   1.064   0.313   4.876  0.3504  1.0352  1.4308
10041TIP3   OH251613   3.296   1.974  14.663  0.0908 -0.2179  0.5251
10041TIP3    H151614   3.240   1.980  14.741 -1.9324  0.9552 -0.9877
10041TIP3    H251615   3.246   1.920  14.602  0.9928  0.1554 -0.5506
10042TIP3   OH251616   5.010   6.372  15.398 -0.1956 -0.6853  0.6378
10042TIP3    H151617   4.950   6.298  15.407 -1.0850 -0.3089 -1.8070
10042TIP3    H251618   5.093   6.333  15.370 -0.1794 -0.9198  1.0161
10043TIP3   OH251619   4.359   0.049  13.122  0.0333  0.3084  0.3123
10043TIP3    H151620   4.281   0.042  13.066  0.7557  0.7584 -0.7684
10043TIP3    H251621   4.328   0.027  13.210 -1.2696  0.2864 -0.1473
10044TIP3   OH251622   5.984   5.083   0.885 -0.4424  0.3031 -0.1499
10044TIP3    H151623   5.981   5.163   0.938  0.1324 -0.2333  0.6865
10044TIP3    H251624   6.077   5.070   0.866 -0.5733  0.0535 -0.6311
10045TIP3   OH251625   1.132   5.047  13.604 -0.2315  0.0768 -1.2959
10045TIP3    H151626   1.218   5.034  13.563  1.7367  1.3363  2.2554
10045TIP3    H251627   1.090   4.961  13.599  1.8837 -0.9734 -1.6849
10046TIP3   OH251628   6.646   1.333   0.288  0.1720 -0.0454  0.6654
10046TIP3    H151629   6.667   1.324   0.381 -0.8806 -2.0902  0.7267
10046TIP3    H251630   6.590   1.259   0.268 -0.2174  0.7670 -1.4535
10047TIP3   OH251631   2.217   2.721   2.737  0.4179  0.3464  0.3214
10047TIP3    H151632   2.126   2.744   2.752  0.7597  1.5984  0.5545
10047TIP3    H251633   2.228   2.722   2.642  0.4124  1.1247  0.3255
10048TIP3   OH251634   3.957   1.999   1.223 -0.5383  0.2762 -0.3300
10048TIP3    H151635   4.006   2.014   1.304  0.9193  0.8070 -1.2976
10048TIP3    H251636   3.898   2.074   1.217 -0.5233  0.3271  0.1456
10049TIP3   OH251637   5.788   2.916   5.939  0.5510 -0.2201  0.6357
10049TIP3    H151638   5.823   2.956   5.859 -0.3761  1.9677  1.2561
10049TIP3    H251639   5.704   2.961   5.952  0.2886 -1.1779  2.3523
10050TIP3   OH251640   4.163   3.421  12.446 -0.3743  0.0205  0.0542
10050TIP3    H151641   4.167   3.517  12.441  0.7295  0.0908  1.5959
10050TIP3    H251642   4.089   3.403  12.504 -1.0011 -0.0924 -0.7738
10051TIP3   OH251643   1.728   2.741   2.253 -0.0525  0.3352 -0.1737
10051TIP3    H151644   1.649   2.691   2.276 -0.6626  1.2973 -0.1568
10051TIP3    H251645   1.723   2.751   2.158  1.3598 -1.7804 -0.4950
10052TIP3   OH251646   1.515   6.047  17.002 -0.1984  0.0722  0.1163
10052TIP3    H151647   1.490   5.957  17.023  2.4244  0.0653  3.7120
10052TIP3    H251648   1.474   6.101  17.069  0.7109  1.1980 -0.2015
10053TIP3   OH251649   0.725   3.890   2.243  0.2358  0.2927  0.0104
10053TIP3    H151650   0.762   3.815   2.289 -0.5217  0.2686  0.5811
10053TIP3    H251651   0.793   3.958   2.249  2.1680 -1.2488 -3.0156
10054TIP3   OH251652   4.118   6.052  13.470 -0.3066  0.2329 -0.6806
10054TIP3    H151653   4.040   5.996  13.464 -1.5145  1.5209  2.1811
10054TIP3    H251654   4.172   6.010  13.537 -0.2134  1.3007 -0.0863
10055TIP3   OH251655   5.178   2.239   3.165 -0.8190 -0.4154 -0.7010
10055TIP3    H151656   5.195   2.333   3.168 -1.0896 -0.3309 -1.6578
10055TIP3    H251657   5.134   2.220   3.249 -0.4603  0.2445 -0.3610
10056TIP3   OH251658   2.296   5.969  14.032  0.2056 -0.1484  0.1194
10056TIP3    H151659   2.387   5.998  14.027  0.3696 -0.7750 -0.7388
10056TIP3    H251660   2.247   6.038  13.986  0.4008 -0.4064 -0.4903
10057TIP3   OH251661   0.104   1.158  16.558  0.0241 -0.1614  0.5718
10057TIP3    H151662   0.081   1.234  16.611 -1.2497 -0.3250  0.2879
10057TIP3    H251663   0.039   1.092  16.582 -0.5310 -0.2689 -1.1245
10058TIP3   OH251664   0.074   1.570   0.153 -0.0167 -0.0598 -0.4525
10058TIP3    H151665  -0.008   1.620   0.157  0.3486  0.7421 -2.4458
10058TIP3    H251666   0.143   1.637   0.158  0.5017 -0.5988 -0.3806
10059TIP3   OH251667   2.274   6.123   3.396 -0.3182 -0.0903  0.2602
10059TIP3    H151668   2.235   6.167   3.472 -2.1163  0.9802 -1.2475
10059TIP3    H251669   2.331   6.189   3.357 -0.0493 -0.3737  0.1667
10060TIP3   OH251670   2.969   3.161   1.597  0.1473  0.2678 -0.8872
10060TIP3    H151671   2.972   3.150   1.692  0.5566  1.1275 -0.7936
10060TIP3    H251672   2.892   3.215   1.582  0.6484  0.9793 -0.9485
10061TIP3   OH251673   0.960   0.904  12.267 -0.2597  1.1406  0.6450
10061TIP3    H151674   0.868   0.926  12.263 -0.3181  0.9776  1.0116
10061TIP3    H251675   0.989   0.902  12.176 -0.7037  0.8336  0.5084
10062TIP3   OH251676   4.349   6.717  16.574 -0.6817  0.0470  0.1363
10062TIP3    H151677   4.401   6.688  16.649  0.0623 -0.5278 -0.5936
10062TIP3    H251678   4.346   6.640  16.516 -0.2414  0.8502 -0.9671
10063TIP3   OH251679   2.697   4.549  16.043  0.2659  0.2905 -0.2494
10063TIP3    H151680   2.742   4.538  16.127 -2.0871 -2.2729  0.7644
10063TIP3    H251681   2.763   4.586  15.985  2.4664  0.4278  2.2325
10064TIP3   OH251682   4.169   2.547   4.457 -0.4559 -0.0160  0.7398
10064TIP3    H151683   4.195   2.575   4.545 -2.2460 -1.8662  1.9101
10064TIP3    H251684   4.090   2.597   4.438 -0.7690 -0.5144  0.7126
10065TIP3   OH251685   6.777   0.269  16.814  0.4597 -0.1157  0.2157
10065TIP3    H151686   6.711   0.285  16.746  2.6233  1.3343 -1.5925
10065TIP3    H251687   6.811   0.182  16.794  1.2296  0.3909 -0.6569
10066TIP3   OH251688   5.306   4.219  13.015 -0.3491  0.6266 -0.0636
10066TIP3    H151689   5.238   4.152  13.016 -2.2935  2.5613  0.5109
10066TIP3    H251690   5.289   4.270  12.935 -0.0453  1.5919  0.4784
10067TIP3   OH251691   2.752   2.411   0.982 -0.0519  0.4634  0.4999
10067TIP3    H151692   2.757   2.441   1.072 -0.4577  2.1266 -0.0232
10067TIP3    H251693   2.751   2.491   0.929  3.9198 -0.5031 -1.1973
10068TIP3   OH251694   4.764   1.988   5.553 -0.3003 -0.1453 -0.3198
10068TIP3    H151695   4.852   1.965   5.584 -0.2859  0.5494  0.1735
10068TIP3    H251696   4.713   1.999   5.633 -1.6420 -3.5193 -0.6188
10069TIP3   OH251697   0.530   5.032   1.904  0.2029 -0.0544 -0.0700
10069TIP3    H151698   0.532   4.985   1.821  1.3025  0.6516 -0.4536
10069TIP3    H251699   0.523   5.124   1.880 -1.5649  0.0167  0.6669
10070TIP3   OH251700   1.952   2.073  11.155 -0.2715 -0.4242 -0.2123
10070TIP3    H151701   2.036   2.044  11.122 -0.0065  0.2326 -0.1196
10070TIP3    H251702   1.905   1.992  11.175  0.6381 -0.7844  0.5032
10071TIP3   OH251703   3.961   0.874  17.174 -0.0941  0.2438  0.2549
10071TIP3    H151704   3.891   0.867  17.109  0.4024  0.4237 -0.3020
10071TIP3    H251705   3.982   0.784  17.197 -0.6516  0.1938  0.5786
10072TIP3   OH251706   0.783   4.569   2.319  0.3806  0.4496 -0.5755
10072TIP3    H151707   0.735   4.619   2.253 -2.4500  0.0848  1.1167
10072TIP3    H251708   0.829   4.635   2.370  0.0173  0.9864 -0.9295
10073TIP3   OH251709   4.118   2.336  16.925  0.4224 -0.1019 -0.7479
10073TIP3    H151710   4.053   2.382  16.873 -0.6377 -0.4562  0.2447
10073TIP3    H251711   4.067   2.289  16.991  1.6003 -1.3885 -0.7350
10074TIP3   OH251712   6.291   1.002  16.373  0.4852 -0.3508  0.4857
10074TIP3    H151713   6.251   1.087  16.356 -0.6922 -0.8326  0.8118
10074TIP3    H251714   6.276   0.952  16.293  0.2171 -0.6218  0.7064
10075TIP3   OH251715   3.643   6.672   1.004 -0.2873  0.1146  0.1873
10075TIP3    H151716   3.625   6.766   0.999  0.8720  0.2940 -0.9244
10075TIP3    H251717   3.637   6.651   1.097 -0.7482  1.2477  0.4230
10076TIP3   OH251718   2.623   2.808  14.407 -0.2700  0.7782 -0.6343
10076TIP3    H151719   2.576   2.733  14.443  0.5754  1.0231  1.0100
10076TIP3    H251720   2.663   2.775  14.327  0.7885 -0.7710  0.5092
10077TIP3   OH251721   3.485   0.555  12.143 -0.6250 -0.1257  0.3582
10077TIP3    H151722   3.432   0.630  12.171 -2.1546 -0.9394 -0.2802
10077TIP3    H251723   3.538   0.532  12.219  0.1182  1.8158  0.4483
10078TIP3   OH251724   3.553   0.361   0.582 -0.0901  0.0814 -0.4935
10078TIP3    H151725   3.585   0.426   0.645 -0.9619 -3.1694  3.4601
10078TIP3    H251726   3.628   0.303   0.567 -0.2164  0.2016 -1.6756
10079TIP3   OH251727   4.872   6.611  12.216  0.0811 -0.1008 -0.4918
10079TIP3    H151728   4.792   6.598  12.165  0.2634  0.2440 -0.8677
10079TIP3    H251729   4.935   6.646  12.153  0.1530  0.8167  0.0889
10080TIP3   OH251730   2.161   0.227  15.135  0.6803  0.2195  0.1463
10080TIP3    H151731   2.096   0.289  15.167  1.9159  1.7722 -0.3134
10080TIP3    H251732   2.199   0.269  15.058  3.2032 -0.0351  1.2149
10081TIP3   OH251733   0.971   5.396  11.992  0.2499 -0.5094 -0.2122
10081TIP3    H151734   0.968   5.353  11.907  1.0227 -0.0214 -0.4966
10081TIP3    H251735   1.051   5.448  11.990  0.2794 -0.4975  0.8181
10082TIP3   OH251736   2.619   0.995  14.738  0.0558  0.2418  0.1010
10082TIP3    H151737   2.563   0.950  14.675 -1.0675  1.0955  0.4827
10082TIP3    H251738   2.562   1.010  14.814  0.8175  1.0535  0.5141
10083TIP3   OH251739   0.776   2.314  12.551  0.3930 -0.3187  0.3130
10083TIP3    H151740   0.726   2.368  12.490 -1.3604 -1.3588  0.8021
10083TIP3    H251741   0.758   2.224  12.525 -2.0731 -0.8656  3.5910
10084TIP3   OH251742   5.939   3.833  11.263 -0.6510 -0.2652  0.1453
10084TIP3    H151743   6.005   3.853  11.197 -0.0513  0.2227  0.8811
10084TIP3    H251744   5.936   3.737  11.267  1.7887 -0.3216  1.8283
10085TIP3   OH251745   5.228   4.463   1.021 -0.2643  0.1092 -0.3634
10085TIP3    H151746   5.256   4.554   1.012  0.2320 -0.1017 -0.9258
10085TIP3    H251747   5.135   4.469   1.044 -0.0724  0.7704  0.2723
10086TIP3   OH251748   4.728   3.123  15.944  0.4211  0.2150 -0.2080
10086TIP3    H151749   4.653   3.104  16.002  1.3091 -0.4524  0.7418
10086TIP3    H251750   4.798   3.149  16.004  1.3660 -0.5028 -0.9925
10087TIP3   OH251751   0.967   1.553   5.344 -0.0138 -0.6631 -0.1040
10087TIP3    H151752   1.024   1.521   5.413 -0.2602  2.1445  1.4868
10087TIP3    H251753   0.882   1.566   5.387 -0.1936  1.0487 -0.9278
10088TIP3   OH251754   0.677   1.717   4.106  0.1511 -0.4360 -0.0883
10088TIP3    H151755   0.659   1.657   4.179  1.7582 -1.7121 -0.7096
10088TIP3    H251756   0.702   1.660   4.034  0.9545  0.9504 -0.9310
10089TIP3   OH251757   1.829   0.916  14.678 -0.4515  0.7379 -0.0919
10089TIP3    H151758   1.862   0.996  14.637 -0.7155 -0.3973 -2.6068
10089TIP3    H251759   1.848   0.847  14.615 -3.2580 -0.6863  0.5159
10090TIP3   OH251760   5.827   2.959  12.348 -0.2793  0.6963 -0.3344
10090TIP3    H151761   5.902   3.015  12.368 -0.5568  0.3776  1.6659
10090TIP3    H251762   5.798   2.926  12.433 -0.5553 -1.9400 -1.4065
10091TIP3   OH251763   2.338   1.981  15.944 -0.1922 -0.2753  0.1266
10091TIP3    H151764   2.306   1.958  16.031  1.4643 -1.2953  0.4910
10091TIP3    H251765   2.274   1.945  15.884 -1.7362  1.0619  0.9236
10092TIP3   OH251766   2.658   6.683  14.131  0.3969  0.2813 -0.0596
10092TIP3    H151767   2.604   6.658  14.056  0.9226 -0.6266 -0.1443
10092TIP3    H251768   2.618   6.638  14.205  0.7790 -0.0677 -0.0571
10093TIP3   OH251769   5.080   5.923   0.993  0.0654  0.1713 -0.1052
10093TIP3    H151770   5.110   5.926   0.903 -1.6811 -0.3706 -0.7383
10093TIP3    H251771   5.156   5.895   1.044  0.3578 -2.1837 -1.7623
10094TIP3   OH251772   0.808   4.070   0.283  0.2380  0.1021 -0.0305
10094TIP3    H151773   0.868   4.086   0.356  0.0869 -1.0164  0.3543
10094TIP3    H251774   0.854   4.007   0.228 -0.3233 -0.2751 -0.0673
10095TIP3   OH251775   4.521   1.839   3.165  0.6480  0.2338  0.1739
10095TIP3    H151776   4.458   1.897   3.122  1.5882  1.3148  0.2378
10095TIP3    H251777   4.555   1.891   3.238  1.5290 -0.3884  0.2088
10096TIP3   OH251778   3.817   3.373   0.858  0.2722 -0.1589 -0.2781
10096TIP3    H151779   3.900   3.335   0.888  0.0679 -1.1714 -0.9469
10096TIP3    H251780   3.831   3.391   0.765 -0.3335 -0.5890 -0.4588
10097TIP3   OH251781   5.931   5.133   3.222  0.2728  0.2348 -0.0472
10097TIP3    H151782   5.841   5.162   3.238  0.3795  0.9405 -0.7172
10097TIP3    H251783   5.950   5.160   3.133  1.1582  0.0983  0.0942
10098TIP3   OH251784   5.626   3.853   5.060 -0.0573  0.0241 -0.4623
10098TIP3    H151785   5.701   3.797   5.082  0.4162  0.7516 -0.2129
10098TIP3    H251786   5.550   3.804   5.091  0.4512  0.1377  1.0036
10099TIP3   OH251787   6.170   1.808   4.587  0.5908  0.4302 -0.3280
10099TIP3    H151788   6.116   1.814   4.508 -0.4798 -0.3231  0.3204
10099TIP3    H251789   6.107   1.784   4.656  1.7265 -0.2157  0.4911
10100TIP3   OH251790   5.895   0.173  16.158 -0.3816 -0.1456 -0.0559
10100TIP3    H151791   5.986   0.198  16.140 -0.2392 -0.3150  0.4030
10100TIP3    H251792   5.850   0.255  16.176 -0.1146 -0.1409  0.5906
10101TIP3   OH251793   3.981   0.427  13.981  0.7100  0.7866  0.0147
10101TIP3    H151794   3.911   0.460  13.924 -0.3100  0.7581  1.2146
10101TIP3    H251795   3.970   0.332  13.979  1.2073  0.7373 -0.4032
10102TIP3   OH251796   1.134   6.601   6.072 -0.2666  0.0625 -0.3803
10102TIP3    H151797   1.156   6.674   6.130  2.2692 -1.9547  1.2969
10102TIP3    H251798   1.056   6.562   6.112  0.4826 -0.2927  0.7839
10103TIP3   OH251799   6.260   0.555  11.788 -0.4907 -0.1786 -0.1205
10103TIP3    H151800   6.223   0.473  11.756  1.9240 -1.2036 -0.4278
10103TIP3    H251801   6.350   0.534  11.811 -0.2235  2.0839  1.1298
10104TIP3   OH251802   3.765   3.338  14.404  0.6079 -0.1426 -0.2378
10104TIP3    H151803   3.686   3.365  14.451 -1.3293 -0.1611 -3.3307
10104TIP3    H251804   3.823   3.414  14.408 -1.7827  1.8919 -2.4454
10105TIP3   OH251805   5.333   3.961   0.303  0.3664 -0.5747  0.0632
10105TIP3    H151806   5.422   3.938   0.332  1.2226 -0.0300 -2.0362
10105TIP3    H251807   5.296   3.878   0.272 -0.3123 -1.0299  2.0118
10106TIP3   OH251808   3.078   2.774   3.143  0.5642 -0.4356 -0.2662
10106TIP3    H151809   3.103   2.715   3.214 -0.2758 -0.1814  0.2373
10106TIP3    H251810   3.142   2.845   3.147  0.1000 -0.0702  0.6691
10107TIP3   OH251811   0.772   6.144   4.165  0.2330  0.0996 -0.2006
10107TIP3    H151812   0.756   6.234   4.193  4.5728  0.7380  0.6125
10107TIP3    H251813   0.793   6.097   4.246 -1.4810 -1.5617 -0.6823
10108TIP3   OH251814   5.960   1.112   3.393 -0.0905  0.0234 -0.0916
10108TIP3    H151815   5.892   1.178   3.384  0.6061  0.7583 -0.0045
10108TIP3    H251816   5.990   1.096   3.303  0.1670  0.2707 -0.0482
10109TIP3   OH251817   3.375   6.229   4.687 -0.0516  0.1790 -0.2983
10109TIP3    H151818   3.349   6.265   4.602  0.2330 -1.4308 -1.0874
10109TIP3    H251819   3.293   6.206   4.730 -0.2893  2.5618  0.5999
10110TIP3   OH251820   2.174   1.914  16.897  0.2279  0.2408  0.3544
10110TIP3    H151821   2.106   1.850  16.917  1.5595 -0.7371  1.8656
10110TIP3    H251822   2.152   1.945  16.809 -2.2930  0.1286  0.8901
10111TIP3   OH251823   3.397   3.831   4.435 -0.1650 -0.1853 -0.2222
10111TIP3    H151824   3.419   3.738   4.428  0.6463 -0.0043 -0.1160
10111TIP3    H251825   3.325   3.843   4.372 -0.1236 -0.8356 -0.3996
10112TIP3   OH251826   3.126   1.429  13.986  0.1254  0.1175  0.1915
10112TIP3    H151827   3.204   1.377  14.005 -0.0921 -0.5734 -0.7838
10112TIP3    H251828   3.053   1.369  14.002 -0.1085 -0.0800 -1.4909
10113TIP3   OH251829   2.967   6.315  13.527 -0.6817 -0.3415  0.2643
10113TIP3    H151830   2.877   6.295  13.500 -1.3687  2.2133  0.5539
10113TIP3    H251831   3.019   6.298  13.448 -1.6846  0.0080 -0.4921
10114TIP3   OH251832   0.746   4.593  12.728 -0.0258 -0.4868  0.1125
10114TIP3    H151833   0.702   4.609  12.644  1.5216  0.6727 -0.5020
10114TIP3    H251834   0.794   4.674  12.745  2.4403 -1.9685  0.4151
10115TIP3   OH251835   2.717   2.486  13.848  0.1259  0.3036  0.3286
10115TIP3    H151836   2.717   2.557  13.783 -1.7495  0.6716  0.6842
10115TIP3    H251837   2.798   2.438  13.831  0.1793  1.0172 -1.6076
10116TIP3   OH251838   5.075   1.398  12.329 -0.7549  0.1687  0.1986
10116TIP3    H151839   5.103   1.360  12.412 -0.4507 -0.8915 -0.3752
10116TIP3    H251840   5.151   1.448  12.298 -1.6355  2.4654  1.6448
10117TIP3   OH251841   0.933   4.605  14.220 -0.1055  0.0353 -0.6215
10117TIP3    H151842   0.871   4.620  14.291  0.4918 -1.2242  0.1848
10117TIP3    H251843   0.920   4.513  14.197  1.7162 -0.3439 -0.1783
10118TIP3   OH251844   0.638   1.703   5.446 -0.3653 -0.7765 -0.2317
10118TIP3    H151845   0.701   1.736   5.382 -0.3332 -0.5653 -0.0936
10118TIP3    H251846   0.575   1.775   5.457 -1.0977 -1.2916 -0.9830
10119TIP3   OH251847   1.026   1.686  12.606 -0.4438  0.2920 -0.0556
10119TIP3    H151848   1.093   1.673  12.673  0.3640  0.8139 -0.7668
10119TIP3    H251849   0.944   1.687  12.655  0.0384 -0.5657  0.7918
10120TIP3   OH251850   0.541   2.360   6.194  0.6838  0.0802  0.0090
10120TIP3    H151851   0.589   2.435   6.229  0.8857 -0.7529  1.5572
10120TIP3    H251852   0.574   2.351   6.104  2.8618  0.0299  0.7691
10121TIP3   OH251853   5.751   5.309   5.434 -0.4515 -0.9519 -0.1822
10121TIP3    H151854   5.809   5.245   5.392  0.1599 -0.8559  0.5087
10121TIP3    H251855   5.745   5.281   5.525 -1.5134 -0.9716 -0.2515
10122TIP3   OH251856   3.574   3.210  15.331  0.6802  0.1465 -0.3495
10122TIP3    H151857   3.490   3.173  15.360  0.2547  0.6137 -0.9668
10122TIP3    H251858   3.603   3.153  15.260  1.6882 -0.9547  0.9127
10123TIP3   OH251859   2.453   1.238  15.596 -0.3079 -0.6961  0.2982
10123TIP3    H151860   2.367   1.238  15.638 -0.4818 -1.5482 -0.0308
10123TIP3    H251861   2.449   1.311  15.534 -0.0727  0.5148  1.6815
10124TIP3   OH251862   0.060   6.697   0.914 -0.1944 -0.4181  0.5044
10124TIP3    H151863   0.008   6.617   0.901  1.3789 -1.2089 -1.0866
10124TIP3    H251864   0.040   6.724   1.004  0.2189 -3.3099  1.5061
10125TIP3   OH251865   3.924   2.886   1.462 -0.3178  0.0204 -0.2398
10125TIP3    H151866   4.017   2.894   1.480 -0.5596  2.0669  0.2743
10125TIP3    H251867   3.907   2.792   1.464  1.3331 -0.2832  1.7251
10126TIP3   OH251868   6.768   3.192  12.955  0.6278 -0.2240  0.3794
10126TIP3    H151869   6.697   3.254  12.970  0.4556 -0.3380  0.0341
10126TIP3    H251870   6.848   3.241  12.978  0.5559  0.3708 -0.5734
10127TIP3   OH251871   4.630   6.789  13.098  0.0680 -0.2224  0.4457
10127TIP3    H151872   4.636   6.826  13.186 -0.5771 -1.1692  0.8954
10127TIP3    H251873   4.540   6.808  13.071  0.0830 -0.4663  0.2290
10128TIP3   OH251874   2.587   3.070   6.243 -0.0432  0.0245  0.3243
10128TIP3    H151875   2.590   3.165   6.257 -2.1940 -0.1833  2.4437
10128TIP3    H251876   2.551   3.035   6.324  0.9120 -2.6573 -0.3675
10129TIP3   OH251877   5.102   1.634  11.613 -0.1035 -0.3641  0.4973
10129TIP3    H151878   5.169   1.600  11.672 -1.2213 -2.5187  0.6084
10129TIP3    H251879   5.090   1.564  11.548 -2.4459 -0.1724  0.6772
10130TIP3   OH251880   1.540   4.731   4.119  0.0346 -0.4318 -0.4026
10130TIP3    H151881   1.601   4.766   4.183 -0.0584  0.2140 -0.6690
10130TIP3    H251882   1.590   4.725   4.038  0.6223 -2.7721  0.1069
10131TIP3   OH251883   1.048   3.808   5.159 -0.3208 -0.4910 -0.2567
10131TIP3    H151884   1.121   3.837   5.213  0.7295  1.8695 -2.8580
10131TIP3    H251885   0.975   3.866   5.184 -0.0735  0.0452 -0.7831
10132TIP3   OH251886   6.076   4.754   5.321 -0.4430  0.3988  0.0913
10132TIP3    H151887   6.064   4.832   5.267 -1.0037 -0.4906 -1.1117
10132TIP3    H251888   5.999   4.700   5.303  0.9323 -1.3594 -0.7280
10133TIP3   OH251889   2.062   1.409   2.600 -0.4798  0.0737 -0.3388
10133TIP3    H151890   2.103   1.444   2.678 -1.8423 -1.7518  1.2482
10133TIP3    H251891   1.987   1.466   2.584 -0.0384  0.6140 -0.4910
10134TIP3   OH251892   0.774   1.125  12.669 -0.5633  0.2930  0.2275
10134TIP3    H151893   0.726   1.107  12.588  3.0260 -1.7495 -1.5601
10134TIP3    H251894   0.783   1.221  12.670  0.4510  0.2558 -2.4801
10135TIP3   OH251895   2.670   4.936  13.194  0.0176  0.0553  0.6535
10135TIP3    H151896   2.731   5.009  13.205 -1.2807  1.2393  0.1273
10135TIP3    H251897   2.619   4.935  13.275 -0.9812  0.7033  0.0430
10136TIP3   OH251898   1.296   2.022   0.588 -0.3869  0.7947 -0.5329
10136TIP3    H151899   1.248   2.003   0.507 -0.0383  0.4236 -0.6494
10136TIP3    H251900   1.380   2.056   0.558 -0.1824  0.4709 -0.3255
10137TIP3   OH251901   4.730   0.212  15.775 -0.5083  0.1411 -0.3914
10137TIP3    H151902   4.644   0.188  15.810 -0.7175  1.0367 -0.2767
10137TIP3    H251903   4.775   0.129  15.762 -0.4927 -0.2197  1.8274
10138TIP3   OH251904   1.240   1.298   3.941  0.0350 -0.2763 -0.6862
10138TIP3    H151905   1.260   1.353   3.865  0.1705  0.8494  0.1580
10138TIP3    H251906   1.156   1.331   3.973  0.5521  0.0352  0.3655
10139TIP3   OH251907   4.262   0.969   0.569  0.0666  0.1105  0.1400
10139TIP3    H151908   4.192   0.919   0.527 -0.4250  1.5354 -0.7485
10139TIP3    H251909   4.235   0.975   0.661  0.4186 -1.7367  0.3966
10140TIP3   OH251910   3.931   2.963   6.363 -0.1105 -0.9084  0.7366
10140TIP3    H151911   3.993   3.027   6.396 -1.4871  0.3038  1.0637
10140TIP3    H251912   3.873   2.945   6.437 -2.9860  1.5468 -0.8077
10141TIP3   OH251913   2.803   2.143  10.984 -0.3646 -0.2009  0.2173
10141TIP3    H151914   2.882   2.196  10.999  0.2863 -1.1077  0.0154
10141TIP3    H251915   2.762   2.183  10.908  0.1268  0.0173  0.0633
10142TIP3   OH251916   1.621   3.298   4.001 -0.0746 -0.0050 -0.3096
10142TIP3    H151917   1.608   3.347   3.919 -1.0307 -0.7922 -0.6407
10142TIP3    H251918   1.674   3.223   3.976 -0.2522 -0.1738 -0.1796
10143TIP3   OH251919   2.714   4.001  15.292 -0.0641 -0.3461 -0.3786
10143TIP3    H151920   2.735   4.094  15.302 -0.5903 -0.1970 -0.6570
10143TIP3    H251921   2.726   3.984  15.199 -2.7265  0.1247 -0.8358
10144TIP3   OH251922   3.446   3.841   4.732  0.5449  0.2061  0.0913
10144TIP3    H151923   3.529   3.796   4.718 -1.2761 -3.1478 -0.5188
10144TIP3    H251924   3.445   3.910   4.666  2.1262 -0.8018 -1.0378
10145TIP3   OH251925   4.865   1.662   4.311 -0.5906  0.0895 -1.3962
10145TIP3    H151926   4.832   1.634   4.396 -0.0406  2.2124 -0.4571
10145TIP3    H251927   4.951   1.621   4.303  0.6810  2.3257  0.4417
10146TIP3   OH251928   4.298   2.628   2.103  0.2361  0.1905 -0.2619
10146TIP3    H151929   4.214   2.601   2.065 -0.0840  1.9790 -0.8660
10146TIP3    H251930   4.279   2.645   2.195  0.0195  0.2081 -0.3089
10147TIP3   OH251931   4.184   4.389  14.599  0.0635  0.0865  0.1451
10147TIP3    H151932   4.139   4.472  14.582  0.1664 -0.1680 -1.4381
10147TIP3    H251933   4.150   4.329  14.533  1.1505 -0.6848  0.2700
10148TIP3   OH251934   2.664   2.448  11.187 -0.0762 -0.1563 -0.0456
10148TIP3    H151935   2.758   2.463  11.198 -0.0219  0.3824 -1.1253
10148TIP3    H251936   2.657   2.402  11.103 -0.9419  1.9945 -1.1934
10149TIP3   OH251937   5.779   3.354  16.390  0.2916  0.4198  0.5811
10149TIP3    H151938   5.699   3.342  16.440  0.9514 -1.2770  1.2907
10149TIP3    H251939   5.826   3.424  16.435  0.5532 -0.6128  1.9511
10150TIP3   OH251940   5.811   6.402  15.673 -0.1499  0.5550  0.3812
10150TIP3    H151941   5.855   6.343  15.735  0.0343  1.0890  0.7587
10150TIP3    H251942   5.869   6.478  15.667  0.0887  0.2810 -0.8487
10151TIP3   OH251943   1.145   2.605   3.782 -0.0117  0.0159 -0.0072
10151TIP3    H151944   1.139   2.690   3.825 -4.4840  0.3373 -1.0506
10151TIP3    H251945   1.176   2.625   3.693 -0.0181  0.4122  0.0793
10152TIP3   OH251946   2.974   1.785   1.156  0.6801 -0.1584  0.5998
10152TIP3    H151947   3.030   1.863   1.155 -0.3277  0.6271  2.7319
10152TIP3    H251948   2.965   1.761   1.064  3.5914  0.3599  0.1384
10153TIP3   OH251949   0.129   6.312  12.130  0.6476 -0.2788  0.2246
10153TIP3    H151950   0.178   6.232  12.146  0.6725 -1.0084 -3.0960
10153TIP3    H251951   0.040   6.283  12.109  0.4340  0.6112 -0.1519
10154TIP3   OH251952   6.541   0.945   2.177 -0.5627  0.0752 -0.0976
10154TIP3    H151953   6.450   0.971   2.189 -0.4245  0.7646 -0.5339
10154TIP3    H251954   6.591   1.021   2.205 -0.0657 -0.9794  2.0086
10155TIP3   OH251955   0.977   1.932   3.537 -0.3454  0.5542 -0.1177
10155TIP3    H151956   0.917   1.953   3.609 -2.3878  1.8821 -2.1630
10155TIP3    H251957   1.018   2.015   3.515  0.6862  0.0447 -0.1503
10156TIP3   OH251958   3.441   4.149  13.572 -0.4464  0.1427 -0.5193
10156TIP3    H151959   3.518   4.092  13.575  0.7944  1.8168  2.5252
10156TIP3    H251960   3.367   4.089  13.577  0.6810 -1.4332 -2.1108
10157TIP3   OH251961   6.231   5.355   2.439 -0.0495 -0.0899 -0.3678
10157TIP3    H151962   6.257   5.433   2.391  2.4218 -1.1737 -0.8967
10157TIP3    H251963   6.136   5.357   2.439 -0.0327  2.2867 -1.3956
10158TIP3   OH251964   6.646   5.717   0.376  0.0471  0.6470 -0.0664
10158TIP3    H151965   6.730   5.677   0.353 -0.0379  0.3016  0.2160
10158TIP3    H251966   6.662   5.811   0.373  0.5536  0.5753  0.4083
10159TIP3   OH251967   1.532   5.363  15.758 -0.2710 -0.3292 -0.3258
10159TIP3    H151968   1.569   5.436  15.807 -0.6265 -1.0070  0.9705
10159TIP3    H251969   1.540   5.288  15.816 -1.4192 -0.9900 -0.9940
10160TIP3   OH251970   3.706   1.680  12.463 -0.5410  0.2278 -0.8597
10160TIP3    H151971   3.720   1.632  12.544 -0.8021 -0.9347 -1.4806
10160TIP3    H251972   3.675   1.613  12.401  1.1852  0.7764 -2.3708
10161TIP3   OH251973   0.587   3.737  12.987  0.1421  0.1127  0.5950
10161TIP3    H151974   0.577   3.805  13.054 -1.4973  1.2977 -0.7957
10161TIP3    H251975   0.562   3.656  13.032 -2.2574  1.0737  1.0921
10162TIP3   OH251976   5.529   1.947   2.827 -0.9231 -0.1790 -0.5272
10162TIP3    H151977   5.527   2.016   2.761 -1.4562  0.9401  0.6170
10162TIP3    H251978   5.437   1.935   2.852 -0.7888 -1.0170 -0.4350
10163TIP3   OH251979   5.252   2.508   3.175  0.1627 -0.4098 -0.2857
10163TIP3    H151980   5.204   2.569   3.119  0.9810  1.9588  1.5193
10163TIP3    H251981   5.335   2.493   3.130 -0.2076 -0.5314 -0.9332
10164TIP3   OH251982   1.586   1.317  16.996  0.6124 -0.1591  0.2797
10164TIP3    H151983   1.602   1.358  17.081  0.2615 -0.6765  0.6023
10164TIP3    H251984   1.512   1.366  16.959  0.9280  0.2264  0.1631
10165TIP3   OH251985   6.078   6.063   5.836 -0.6198  0.3092 -0.4068
10165TIP3    H151986   6.051   6.043   5.925 -0.4371  0.8613 -0.2241
10165TIP3    H251987   6.037   6.147   5.817  3.0776  2.5304  0.8392
10166TIP3   OH251988   4.769   3.528   4.031  0.8836  0.5006 -0.1675
10166TIP3    H151989   4.721   3.473   3.969  0.6992  0.2747  0.1659
10166TIP3    H251990   4.794   3.467   4.101  0.4569  0.8902  0.3284
10167TIP3   OH251991   3.217   0.777  13.886  0.1359  0.4723  0.0150
10167TIP3    H151992   3.289   0.802  13.828  1.0709 -0.6702  0.6527
10167TIP3    H251993   3.172   0.706  13.840  0.6485 -0.1801  0.5212
10168TIP3   OH251994   1.027   4.664  12.329  0.4711  0.2328 -0.3806
10168TIP3    H151995   0.980   4.584  12.304 -0.3290  1.0224 -1.4464
10168TIP3    H251996   0.975   4.701  12.400 -0.4848  1.0432 -1.4802
10169TIP3   OH251997   2.657   2.863  11.823  0.1926 -0.3673 -0.0125
10169TIP3    H151998   2.624   2.773  11.819 -0.0801 -0.2936  0.5444
10169TIP3    H251999   2.716   2.865  11.898 -1.6218  0.5022  1.4366
10170TIP3   OH252000   6.793   0.206  12.447  0.4220 -0.0253  0.1543
10170TIP3    H152001   6.865   0.269  12.445  0.7283 -0.3782  0.0152
10170TIP3    H252002   6.715   0.258  12.428  0.7642  0.1868 -0.6813
10171TIP3   OH252003   1.044   1.942   4.577 -0.2701 -0.3500 -0.5366
10171TIP3    H152004   1.022   1.929   4.485 -2.7810  0.1648 -0.0480
10171TIP3    H252005   1.076   2.032   4.582 -2.7279  0.5517 -0.4822
10172TIP3   OH252006   3.419   1.766   4.351 -0.1656 -0.0563  0.3915
10172TIP3    H152007   3.412   1.675   4.381  0.9583 -0.1493  0.4115
10172TIP3    H252008   3.329   1.799   4.353 -0.8715 -1.7132 -1.3803
10173TIP3   OH252009   0.765   2.923   5.900 -0.1083 -0.0769 -0.5233
10173TIP3    H152010   0.797   2.845   5.944  1.1522 -0.8624 -2.7640
10173TIP3    H252011   0.669   2.913   5.902  0.0052 -1.1905  0.0299
10174TIP3   OH252012   6.215   0.456  13.719  0.2350  0.2252 -0.2276
10174TIP3    H152013   6.146   0.521  13.729  0.8295  0.8589 -0.1432
10174TIP3    H252014   6.289   0.492  13.768  0.1660 -1.1261  0.9044
10175TIP3   OH252015   1.600   1.337   2.213  0.2889  0.7767 -0.0667
10175TIP3    H152016   1.549   1.389   2.275  1.9479  1.2928  0.9013
10175TIP3    H252017   1.635   1.401   2.151  1.5506  0.7162  0.5689
10176TIP3   OH252018   3.183   4.321   4.968  0.2892  0.1213  0.2982
10176TIP3    H152019   3.147   4.261   4.903 -1.8360  2.2066 -0.5368
10176TIP3    H252020   3.278   4.311   4.961  0.0715 -0.4321 -2.4180
10177TIP3   OH252021   2.615   4.757   2.750 -0.2427 -0.0592 -0.4007
10177TIP3    H152022   2.613   4.758   2.846 -0.3225 -2.4295 -0.3587
10177TIP3    H252023   2.667   4.834   2.727  0.0775  0.3389  1.5468
10178TIP3   OH252024   6.814   5.189  12.857  0.4397  0.4060 -0.0290
10178TIP3    H152025   6.810   5.094  12.861  0.2835  0.4486  1.1651
10178TIP3    H252026   6.901   5.211  12.892  0.8680  0.6602 -1.2382
10179TIP3   OH252027   1.134   0.612  13.587 -0.2293 -0.3613  0.3210
10179TIP3    H152028   1.208   0.553  13.573 -0.1316 -0.1048 -0.2643
10179TIP3    H252029   1.077   0.597  13.511 -0.4203 -0.0258  0.3964
10180TIP3   OH252030   6.522   4.518   2.604  0.0904  0.2414 -0.0094
10180TIP3    H152031   6.487   4.431   2.582  1.0529 -0.2587  0.3856
10180TIP3    H252032   6.445   4.575   2.606 -0.6617 -0.7677  0.5486
10181TIP3   OH252033   3.567   3.386   5.207  0.1995 -0.0361 -0.1562
10181TIP3    H152034   3.495   3.431   5.252 -0.1472  0.0266 -0.7625
10181TIP3    H252035   3.533   3.297   5.193  0.6295 -0.3021  0.4512
10182TIP3   OH252036   5.149   3.809   1.224  0.3999  0.5738  0.7471
10182TIP3    H152037   5.148   3.848   1.312  1.9907  0.5266  0.7956
10182TIP3    H252038   5.117   3.880   1.167 -1.0237  0.4739  1.3956
10183TIP3   OH252039   3.642   5.127   5.483  0.2887  0.3462 -0.0759
10183TIP3    H152040   3.697   5.092   5.413  2.0173  0.5136  1.1620
10183TIP3    H252041   3.573   5.062   5.495  0.2278  0.1156 -1.6238
10184TIP3   OH252042   5.089   5.097   5.818  0.3814 -0.4664  0.2333
10184TIP3    H152043   5.067   5.186   5.846  0.8667 -0.7124  1.4225
10184TIP3    H252044   5.032   5.040   5.869 -1.4414 -0.7745 -2.0555
10185TIP3   OH252045   4.048   4.608  11.394  0.3100 -0.0549  0.2230
10185TIP3    H152046   4.072   4.653  11.313  0.7039  0.9251  0.8808
10185TIP3    H252047   4.030   4.678  11.457 -1.4702 -0.7916  0.5679
10186TIP3   OH252048   1.575   2.825  14.282 -0.1712  0.4564 -0.3639
10186TIP3    H152049   1.665   2.813  14.312 -1.3708 -1.2659  2.7888
10186TIP3    H252050   1.560   2.753  14.221  0.2811  0.1247 -0.0861
10187TIP3   OH252051   1.743   4.229   5.018 -0.1007 -0.1713 -0.4395
10187TIP3    H152052   1.825   4.274   5.001  0.5671 -1.4387 -0.6743
10187TIP3    H252053   1.729   4.175   4.940 -0.2851 -1.2383  0.3151
10188TIP3   OH252054   0.466   2.088  13.927 -0.0438 -0.0681  0.2594
10188TIP3    H152055   0.538   2.147  13.948 -0.0822 -0.5368  1.7503
10188TIP3    H252056   0.505   2.001  13.924 -0.4509 -0.2595  0.4938
10189TIP3   OH252057   3.473   0.390   2.919  0.4397 -0.2080 -0.5863
10189TIP3    H152058   3.444   0.345   2.840  1.1167 -0.5847 -0.6172
10189TIP3    H252059   3.395   0.391   2.975  0.4042 -1.3965 -0.5964
10190TIP3   OH252060   1.751   0.434   1.109 -0.1744  0.1402  0.1313
10190TIP3    H152061   1.780   0.352   1.070  2.5349  0.0354  2.2417
10190TIP3    H252062   1.687   0.408   1.175  0.3746 -0.2403  0.5146
10191TIP3   OH252063   6.531   1.857  12.238  0.3654  0.7463 -0.4085
10191TIP3    H152064   6.441   1.834  12.260  1.2227 -0.3647  2.0919
10191TIP3    H252065   6.539   1.949  12.262 -0.7196  1.5121 -2.7906
10192TIP3   OH252066   1.838   1.294  12.321  0.4785  0.3213 -0.1020
10192TIP3    H152067   1.823   1.286  12.226  2.8488  0.1197 -0.4966
10192TIP3    H252068   1.900   1.224  12.341 -0.5964 -0.1152  1.7547
10193TIP3   OH252069   3.130   3.692   0.968  0.4022  0.7098  0.0321
10193TIP3    H152070   3.180   3.624   1.013  0.6230 -0.3385 -1.7438
10193TIP3    H252071   3.052   3.705   1.022  0.1633 -1.2490  0.1797
10194TIP3   OH252072   1.934   2.777   2.771  0.2838 -0.5024  0.6617
10194TIP3    H152073   1.890   2.694   2.787 -0.6896 -0.4490 -1.4897
10194TIP3    H252074   1.905   2.802   2.683  3.9798 -0.0491 -0.4904
10195TIP3   OH252075   1.066   1.762  13.103 -0.0583  0.4038 -0.4734
10195TIP3    H152076   1.105   1.700  13.042  0.4876  0.6575 -0.3838
10195TIP3    H252077   1.127   1.767  13.176 -0.7973 -0.0318  0.1852
10196TIP3   OH252078   6.517   5.808  11.455  0.4758 -0.0124  0.2256
10196TIP3    H152079   6.529   5.874  11.523 -1.5480 -0.7348  1.3296
10196TIP3    H252080   6.422   5.797  11.448  0.7515 -2.5244 -0.1872
10197TIP3   OH252081   6.049   5.059   0.549 -0.0779 -0.0875 -0.3326
10197TIP3    H152082   6.043   4.964   0.560 -1.2899 -0.2400 -2.0555
10197TIP3    H252083   5.997   5.095   0.621  0.3949 -0.7188  0.3349
10198TIP3   OH252084   3.283   6.697   5.371  1.1810  0.4727 -0.1522
10198TIP3    H152085   3.321   6.758   5.434  0.5123  0.4671  0.2631
10198TIP3    H252086   3.252   6.754   5.299 -0.2556  0.7195  0.6467
10199TIP3   OH252087   6.404   6.200  12.938 -0.2536 -0.1902  0.2339
10199TIP3    H152088   6.431   6.165  13.023  1.0924 -1.1895 -0.5901
10199TIP3    H252089   6.396   6.295  12.953  1.7656 -0.1187  1.0285
10200TIP3   OH252090   1.912   5.014  12.942  0.3908 -0.1700  0.3741
10200TIP3    H152091   1.878   4.954  13.007 -1.2085 -1.1912 -1.3457
10200TIP3    H252092   1.891   5.101  12.976  0.9609 -0.6238  1.9348
10201TIP3   OH252093   3.978   6.466  10.978 -0.4390 -0.0961 -0.9844
10201TIP3    H152094   4.015   6.382  10.951 -2.5298 -1.8407  1.3538
10201TIP3    H252095   4.052   6.516  11.011  0.7025 -1.2700 -1.7354
10202TIP3   OH252096   2.305   1.698  15.032  0.1883 -1.0084 -0.3420
10202TIP3    H152097   2.371   1.754  15.072 -0.5869 -0.3437  0.0338
10202TIP3    H252098   2.249   1.759  14.982 -0.5709 -1.4633 -0.0548
10203TIP3   OH252099   4.380   2.589  14.877  0.4440  0.2896  0.0258
10203TIP3    H152100   4.372   2.548  14.791  3.4117  1.4886 -0.8543
10203TIP3    H252101   4.410   2.678  14.859 -0.2795  1.0162  2.2436
10204TIP3   OH252102   6.322   1.930  16.236 -0.1723 -0.3751  0.6317
10204TIP3    H152103   6.300   2.014  16.197  1.9354  0.8192  1.9377
10204TIP3    H252104   6.248   1.909  16.293 -1.3330 -0.1113 -0.7503
10205TIP3   OH252105   6.419   1.734   3.811 -0.0439 -0.5061 -0.1965
10205TIP3    H152106   6.510   1.732   3.840  0.4665 -0.5060 -1.7302
10205TIP3    H252107   6.405   1.825   3.783 -0.1956 -0.7425 -0.9077
10206TIP3   OH252108   4.421   2.708   3.765 -0.0075 -0.1329  0.4987
10206TIP3    H152109   4.360   2.750   3.704  0.2189  0.1491  0.4667
10206TIP3    H252110   4.372   2.633   3.800 -0.0863 -0.3942 -0.1542
10207TIP3   OH252111   5.925   1.520  12.690  0.1289 -0.4083 -0.0373
10207TIP3    H152112   5.994   1.500  12.753  0.7969  0.0536 -0.6291
10207TIP3    H252113   5.969   1.562  12.617 -0.7779 -0.0858 -0.4122
10208TIP3   OH252114   6.813   0.850   4.406  0.4537 -0.4686 -0.1228
10208TIP3    H152115   6.721   0.858   4.381 -0.0779 -0.0977  1.8413
10208TIP3    H252116   6.819   0.764   4.449  1.0184 -0.4858 -0.2270
10209TIP3   OH252117   4.256   6.046   3.434 -0.4491 -0.3307  0.0982
10209TIP3    H152118   4.217   5.969   3.476  0.3498  0.3006  2.0740
10209TIP3    H252119   4.348   6.043   3.459 -0.3332  1.0690 -0.1035
10210TIP3   OH252120   2.009   1.488  15.370 -0.0687  0.3660 -0.5345
10210TIP3    H152121   1.915   1.472  15.360 -0.0628  0.4011 -0.6474
10210TIP3    H252122   2.036   1.430  15.441 -0.6410  2.0293  1.1214
10211TIP3   OH252123   0.944   5.003   2.310  0.3026 -0.3350  0.1103
10211TIP3    H152124   0.894   5.065   2.363  1.3176 -0.0444  0.7446
10211TIP3    H252125   0.980   5.056   2.239  2.2230  0.0983  1.3541
10212TIP3   OH252126   3.693   4.587   2.918  0.4328 -0.3086 -0.2754
10212TIP3    H152127   3.663   4.523   2.982 -1.1541  0.2065 -0.5038
10212TIP3    H252128   3.663   4.552   2.834  1.9865 -0.6747 -0.7061
10213TIP3   OH252129   0.396   2.534  10.607 -0.1969 -0.6481 -0.2187
10213TIP3    H152130   0.330   2.603  10.607  0.5493  0.1034 -2.1493
10213TIP3    H252131   0.347   2.453  10.619 -1.2897  0.0416  0.0484
10214TIP3   OH252132   5.770   6.026  13.744 -0.4074 -0.2684 -0.0563
10214TIP3    H152133   5.735   5.958  13.801 -0.4017  0.0588  0.3408
10214TIP3    H252134   5.818   5.979  13.677 -3.3940 -0.8712 -1.8664
10215TIP3   OH252135   4.956   2.658   1.610 -0.1593  0.2476 -0.1650
10215TIP3    H152136   5.028   2.602   1.581 -0.0371  0.9556 -1.2629
10215TIP3    H252137   4.880   2.599   1.613  0.3061 -0.3353  0.2935
10216TIP3   OH252138   0.938   4.109  13.063 -0.0320  0.2173 -0.2393
10216TIP3    H152139   0.861   4.064  13.099  0.1133  0.7508  0.7492
10216TIP3    H252140   0.905   4.157  12.987 -0.7763  0.8593  0.4829
10217TIP3   OH252141   2.493   5.239  13.272  0.1698 -0.3453  0.1524
10217TIP3    H152142   2.415   5.267  13.224 -0.9334 -0.4400  1.8338
10217TIP3    H252143   2.469   5.153  13.308  1.0825 -0.4193  0.5962
10218TIP3   OH252144   2.536   3.767   4.753  0.3953 -0.1341  0.3873
10218TIP3    H152145   2.469   3.772   4.822 -2.2724 -0.9537 -2.0175
10218TIP3    H252146   2.585   3.848   4.761 -1.4415  0.8955  1.7123
10219TIP3   OH252147   2.971   0.660  11.845 -0.0314 -0.5606 -0.7393
10219TIP3    H152148   2.917   0.662  11.925 -0.4345 -1.8622 -0.9703
10219TIP3    H252149   3.022   0.579  11.853 -0.4981 -0.9850 -2.0854
10220TIP3   OH252150   1.893   6.392  12.771  0.5797 -0.0165 -0.2576
10220TIP3    H152151   1.842   6.337  12.831  0.5017  0.8106  0.4445
10220TIP3    H252152   1.945   6.447  12.829  0.0982  1.1660 -0.9436
10221TIP3   OH252153   2.146   2.736  16.412  0.4676 -0.7787  0.3957
10221TIP3    H152154   2.204   2.670  16.374  1.6034 -0.4444  1.5351
10221TIP3    H252155   2.165   2.733  16.506 -0.9329 -0.2468  0.7083
10222TIP3   OH252156   6.628   2.166   5.086  0.0213  0.0852 -0.6457
10222TIP3    H152157   6.618   2.260   5.098 -3.6379 -0.5457  1.9833
10222TIP3    H252158   6.620   2.152   4.992 -4.2327  1.9975 -0.6563
10223TIP3   OH252159   3.367   1.471   2.052 -0.5943 -0.4694  0.4743
10223TIP3    H152160   3.377   1.562   2.023  3.6783 -0.5504  1.3619
10223TIP3    H252161   3.339   1.424   1.973  0.1112  1.1323 -0.7655
10224TIP3   OH252162   4.412   2.850   3.142 -0.2139  0.0036 -0.2194
10224TIP3    H152163   4.411   2.757   3.120 -1.1679  0.1578 -0.8406
10224TIP3    H252164   4.321   2.871   3.161  0.1532  0.5776  0.9301
10225TIP3   OH252165   3.646   0.057  10.595 -0.6570  0.2635 -0.3272
10225TIP3    H152166   3.563   0.050  10.643  0.1385 -1.1073  0.9001
10225TIP3    H252167   3.713   0.046  10.663  0.5031 -1.2465 -1.6738
10226TIP3   OH252168   0.106   3.578  13.427  0.0262 -1.3059  0.3164
10226TIP3    H152169   0.074   3.667  13.413 -1.4831 -2.0100 -0.8600
10226TIP3    H252170   0.178   3.588  13.489  0.5891  0.8540 -0.6343
10227TIP3   OH252171   5.805   5.610   2.986 -0.3002  0.0437 -0.1417
10227TIP3    H152172   5.766   5.524   2.998  0.0852  0.0560  1.2996
10227TIP3    H252173   5.888   5.606   3.034 -0.2596  1.2085 -0.0949
10228TIP3   OH252174   6.026   2.267  14.179  0.4171  0.4687 -0.3163
10228TIP3    H152175   6.029   2.311  14.094 -1.9149 -0.3707 -0.8714
10228TIP3    H252176   6.065   2.181  14.163  0.0259  0.3297 -0.5296
10229TIP3   OH252177   6.817   1.686  13.083  0.1455  0.0972  0.7227
10229TIP3    H152178   6.733   1.714  13.120  0.3360  0.2373  1.0473
10229TIP3    H252179   6.843   1.612  13.137  0.2801  0.1147  0.6821
10230TIP3   OH252180   3.511   5.177  11.369 -0.2330  0.5884  0.0424
10230TIP3    H152181   3.500   5.270  11.353  0.3787  0.3889 -1.6743
10230TIP3    H252182   3.423   5.145  11.389 -0.8602  1.1189 -1.7482
10231TIP3   OH252183   0.675   1.424  15.806  0.2584  0.5399  0.0294
10231TIP3    H152184   0.641   1.398  15.720  4.7297 -1.8969 -1.1536
10231TIP3    H252185   0.696   1.517  15.796  1.7731  0.0235 -1.9454
10232TIP3   OH252186   6.443   1.475   2.005 -0.1892 -0.6123  0.1237
10232TIP3    H152187   6.511   1.532   1.969 -1.4855  0.6450 -0.3658
10232TIP3    H252188   6.378   1.467   1.935 -0.7490 -1.4576  0.7307
10233TIP3   OH252189   5.412   3.324   5.137 -0.6776 -0.4883  0.5147
10233TIP3    H152190   5.398   3.319   5.231  1.5578  2.2712  1.0708
10233TIP3    H252191   5.506   3.308   5.126 -0.9750 -1.0911 -1.2569
10234TIP3   OH252192   3.957   5.693  16.013  0.6558 -0.8305 -0.9449
10234TIP3    H152193   3.910   5.639  15.950 -1.4582  0.1104 -0.2303
10234TIP3    H252194   4.018   5.633  16.056 -1.9479 -2.7849  0.1500
10235TIP3   OH252195   0.602   6.710   5.443  0.2703 -0.0782  0.5288
10235TIP3    H152196   0.609   6.692   5.537 -1.2182  0.0412  0.6699
10235TIP3    H252197   0.660   6.784   5.429  1.3987 -0.8173  1.1391
10236TIP3   OH252198   6.299   5.678  14.105  0.7168  0.3067 -0.3132
10236TIP3    H152199   6.266   5.684  14.195 -0.8642  1.0654 -0.9153
10236TIP3    H252200   6.300   5.768  14.074  0.4238 -0.0386 -1.3307
10237TIP3   OH252201   4.955   4.810   0.361  0.0117 -0.0254 -0.1831
10237TIP3    H152202   4.918   4.809   0.273  1.1401  1.2701 -0.6883
10237TIP3    H252203   4.931   4.897   0.395 -0.4814 -0.5478  0.8232
10238TIP3   OH252204   2.639   0.982   5.983 -0.1461  0.6026 -0.4678
10238TIP3    H152205   2.690   1.001   6.061 -0.7266  0.1184  0.0306
10238TIP3    H252206   2.701   0.990   5.910  1.0002 -1.5160  0.2515
10239TIP3   OH252207   5.078   6.690  15.036  0.5368  0.1432  0.7485
10239TIP3    H152208   5.076   6.741  15.117  1.9364  0.1586  0.7774
10239TIP3    H252209   5.171   6.683  15.014  0.2613 -1.2120 -0.0086
10240TIP3   OH252210   0.850   3.503  12.228  0.1572 -0.4197  0.4500
10240TIP3    H152211   0.863   3.593  12.257 -1.7327  0.1766 -0.4820
10240TIP3    H252212   0.894   3.499  12.143  1.0287 -0.6457  0.9045
10241TIP3   OH252213   4.406   1.376   4.406 -0.0518  0.1211 -0.1582
10241TIP3    H152214   4.393   1.391   4.312 -0.2094  1.0611  0.0167
10241TIP3    H252215   4.472   1.306   4.410 -0.2941 -0.1627 -0.9693
10242TIP3   OH252216   3.565   4.594   5.218  0.1452 -0.0371 -0.1229
10242TIP3    H152217   3.570   4.526   5.285  1.5835 -0.1966 -0.3625
10242TIP3    H252218   3.643   4.580   5.164 -0.9242  0.1624 -1.7611
10243TIP3   OH252219   1.974   3.059   5.289  0.6379  0.0265  0.2988
10243TIP3    H152220   1.974   2.994   5.359  3.4407  0.3652  0.6911
10243TIP3    H252221   2.057   3.044   5.243 -0.4662  0.8021 -2.0020
10244TIP3   OH252222   3.292   3.886  17.278 -0.2705 -0.0463  0.2979
10244TIP3    H152223   3.342   3.871  17.359 -2.9637 -0.6997  1.9168
10244TIP3    H252224   3.309   3.978  17.257  1.1904 -0.1143  1.0984
10245TIP3   OH252225   3.281   5.190  15.532 -0.1209  0.0846  0.0711
10245TIP3    H152226   3.252   5.276  15.561  1.1414  0.5951 -0.1520
10245TIP3    H252227   3.339   5.159  15.601 -0.5035 -0.5562  0.1101
10246TIP3   OH252228   0.241   0.312  12.335 -1.2143 -0.4923  0.4703
10246TIP3    H152229   0.253   0.402  12.303  0.5949 -1.3650 -1.4531
10246TIP3    H252230   0.307   0.302  12.404  0.2747 -1.0849 -1.0011
10247TIP3   OH252231   3.501   5.614  16.559 -0.4723 -0.3109 -0.4925
10247TIP3    H152232   3.455   5.617  16.475  0.3986 -1.4513 -1.0255
10247TIP3    H252233   3.437   5.579  16.621 -1.5495  1.8130 -0.3769
10248TIP3   OH252234   3.126   3.694   4.727 -0.6955 -0.6778  0.5359
10248TIP3    H152235   3.145   3.764   4.789 -0.5033 -2.0463  2.0712
10248TIP3    H252236   3.206   3.641   4.726 -1.5002 -1.9336  0.8770
10249TIP3   OH252237   2.508   3.201   0.202  0.4445 -0.1850  0.3129
10249TIP3    H152238   2.588   3.194   0.254  0.6894 -1.8053 -0.2712
10249TIP3    H252239   2.531   3.261   0.131  1.0812 -0.4916  0.2544
10250TIP3   OH252240   5.483   4.815   5.419 -0.0704  0.0725 -0.4385
10250TIP3    H152241   5.429   4.813   5.498  1.0664  1.4111  0.3880
10250TIP3    H252242   5.505   4.908   5.408  0.5517 -0.2268 -1.8066
10251TIP3   OH252243   4.371   4.534   4.368  0.1296  0.6540 -0.0543
10251TIP3    H152244   4.427   4.611   4.371 -0.8437  1.3208  1.2239
10251TIP3    H252245   4.380   4.494   4.454 -1.8494  1.1266  0.3966
10252TIP3   OH252246   4.436   5.071  13.861  0.5493  0.1037 -0.0580
10252TIP3    H152247   4.475   5.103  13.779  0.6563  0.9499  0.3219
10252TIP3    H252248   4.441   4.975  13.854  1.0694  0.1809 -0.7946
10253TIP3   OH252249   1.281   0.842  13.501 -0.2827  0.1905 -0.0065
10253TIP3    H152250   1.223   0.916  13.482  0.9156  1.3799  0.8637
10253TIP3    H252251   1.222   0.768  13.516 -1.5825  1.3647  0.7758
10254TIP3   OH252252   0.211   0.568   6.192 -0.5631  0.8372  0.4517
10254TIP3    H152253   0.250   0.643   6.236  1.5729 -0.4561  0.8343
10254TIP3    H252254   0.222   0.496   6.254 -0.1544 -0.3693 -1.0090
10255TIP3   OH252255   4.361   1.806  16.827  0.3533 -0.2072  0.3199
10255TIP3    H152256   4.325   1.776  16.744  1.0166 -0.2851  0.0553
10255TIP3    H252257   4.320   1.891  16.842  0.8181  0.1554 -0.4717
10256TIP3   OH252258   3.632   0.074   2.865 -0.6876  0.1148 -0.3343
10256TIP3    H152259   3.644  -0.019   2.844  1.9578  0.8109 -2.0645
10256TIP3    H252260   3.601   0.074   2.955 -0.5786 -2.4419 -0.2586
10257TIP3   OH252261   4.009   6.088   1.157 -0.1961 -0.4608  0.4355
10257TIP3    H152262   4.093   6.047   1.178 -0.3170 -0.1993  1.4795
10257TIP3    H252263   4.007   6.093   1.062  1.4115  0.4561  0.4329
10258TIP3   OH252264   1.997   6.387  15.160 -0.1448  0.2600 -0.0856
10258TIP3    H152265   1.969   6.476  15.177  1.3019  1.2228 -2.4741
10258TIP3    H252266   2.077   6.396  15.108 -0.8868 -2.3938 -1.8120
10259TIP3   OH252267   3.036   1.297   3.405 -0.7541  0.2357 -0.0771
10259TIP3    H152268   3.069   1.213   3.372 -1.0003 -0.0595  0.4053
10259TIP3    H252269   2.972   1.272   3.472  0.4828  0.8093  1.3572
10260TIP3   OH252270   0.287   5.549  13.507 -0.3500  0.2243  0.1336
10260TIP3    H152271   0.262   5.457  13.498 -0.0257  0.1720 -0.2971
10260TIP3    H252272   0.220   5.587  13.564  0.3641 -0.6302  1.5882
10261TIP3   OH252273   6.470   6.790   0.145 -0.4186  0.6891 -0.3815
10261TIP3    H152274   6.394   6.748   0.107 -0.9907  0.6061  0.8379
10261TIP3    H252275   6.442   6.880   0.162  0.2980  1.1434 -1.5005
10262TIP3   OH252276   3.885   0.763   0.728  0.0744  0.0675 -0.2979
10262TIP3    H152277   3.824   0.817   0.677  0.1592  0.5182  0.0755
10262TIP3    H252278   3.965   0.761   0.674 -0.2330 -0.4364 -0.7373
10263TIP3   OH252279   5.535   0.503   5.222  0.2984 -0.0207 -0.4391
10263TIP3    H152280   5.559   0.576   5.279 -0.6699  0.5154 -0.7078
10263TIP3    H252281   5.618   0.459   5.203  1.0650  1.7152 -1.2534
10264TIP3   OH252282   0.593   5.411   1.063  0.2004 -0.0283  0.2696
10264TIP3    H152283   0.505   5.412   1.025  0.7763  0.5117 -1.0776
10264TIP3    H252284   0.651   5.394   0.990  1.1804 -1.0827  1.2734
10265TIP3   OH252285   0.104   1.055  13.476  0.0863  0.2297  0.4529
10265TIP3    H152286   0.143   1.142  13.470 -0.4976  0.3374 -3.1176
10265TIP3    H252287   0.138   1.018  13.558  1.7884  3.0911  1.0903
10266TIP3   OH252288   1.034   1.203   0.476 -0.2834 -0.1185 -0.1506
10266TIP3    H152289   0.979   1.220   0.552  0.5293 -0.9350  0.6355
10266TIP3    H252290   1.066   1.289   0.449 -1.1343  0.2490 -0.0077
10267TIP3   OH252291   4.576   3.002   2.712  1.0642  0.0542  0.7731
10267TIP3    H152292   4.604   2.911   2.715  1.2590  0.1318  1.4342
10267TIP3    H252293   4.488   2.999   2.675  1.8665 -0.2004 -1.1603
10268TIP3   OH252294   5.272   2.433  14.484 -0.4584  0.0179  0.2118
10268TIP3    H152295   5.243   2.342  14.484  2.5146 -0.9750  0.5150
10268TIP3    H252296   5.271   2.457  14.391  2.0270 -1.4557 -0.2335
10269TIP3   OH252297   2.173   0.446  13.709  0.0872 -0.6513 -0.0944
10269TIP3    H152298   2.084   0.445  13.674  0.0820 -1.7541 -0.0820
10269TIP3    H252299   2.206   0.357  13.693  0.2995 -1.0011  2.1792
10270TIP3   OH252300   3.268   2.885  15.246 -0.1854  0.7108  0.2912
10270TIP3    H152301   3.286   2.962  15.192 -1.0443  0.5490 -0.2276
10270TIP3    H252302   3.209   2.831  15.193 -0.6169  0.3002  1.1775
10271TIP3   OH252303   0.704   3.147  11.700 -0.0639  0.3381 -0.2938
10271TIP3    H152304   0.616   3.137  11.737  0.0629 -0.8949 -0.2962
10271TIP3    H252305   0.689   3.191  11.616 -0.2988  3.7131  1.4267
10272TIP3   OH252306   6.026   1.170  14.703 -0.1555 -0.3947  0.2558
10272TIP3    H152307   5.951   1.157  14.760 -0.4728  0.9082  0.1460
10272TIP3    H252308   6.051   1.082  14.675 -1.8009 -0.8027  0.0736
10273TIP3   OH252309   1.439   3.476   1.410 -0.4284 -0.0537  0.3123
10273TIP3    H152310   1.393   3.541   1.356  0.1216  0.8709  0.9265
10273TIP3    H252311   1.531   3.504   1.407 -0.2965 -0.3720  1.1873
10274TIP3   OH252312   0.007   4.705  13.991 -0.0340  0.1847 -0.4816
10274TIP3    H152313  -0.041   4.622  13.991  0.1407  0.0694  1.2543
10274TIP3    H252314   0.017   4.727  14.083  0.5032  1.8137 -0.9129
10275TIP3   OH252315   5.235   1.087   0.123  0.2172  0.0704 -0.6476
10275TIP3    H152316   5.275   1.169   0.095  0.3024  0.4661  0.5816
10275TIP3    H252317   5.197   1.107   0.209  0.6478 -1.2918 -0.1201
10276TIP3   OH252318   2.175   5.867   1.338  0.1877  0.8078 -0.8170
10276TIP3    H152319   2.215   5.954   1.341 -0.7630  1.2254 -0.2406
10276TIP3    H252320   2.090   5.882   1.298  0.7837 -0.1588 -2.5203
10277TIP3   OH252321   5.389   1.117  13.555 -0.1647  1.0090 -0.3507
10277TIP3    H152322   5.426   1.159  13.477  0.2829  1.0148 -0.1387
10277TIP3    H252323   5.295   1.134  13.549 -0.4978 -1.2149 -2.2547
10278TIP3   OH252324   5.403   3.337  13.981  0.5221  0.3881  0.4858
10278TIP3    H152325   5.371   3.250  13.957  1.5379 -0.7663  3.0296
10278TIP3    H252326   5.466   3.360  13.913 -1.6271  0.3137 -1.6080
10279TIP3   OH252327   3.333   5.193   0.845 -0.0550 -0.2739  0.0031
10279TIP3    H152328   3.350   5.100   0.858 -1.9935 -1.0778 -2.6463
10279TIP3    H252329   3.410   5.238   0.880  0.5576 -2.8206  2.0124
10280TIP3   OH252330   0.510   5.181   2.330 -0.1450  0.3984 -0.1153
10280TIP3    H152331   0.556   5.098   2.343 -0.9157 -0.1523 -0.8806
10280TIP3    H252332   0.534   5.208   2.242  0.5063  1.2513  0.3146
10281TIP3   OH252333   0.736   0.025  14.516 -0.2004  0.5755 -0.3265
10281TIP3    H152334   0.755  -0.059  14.475  2.1740  0.4620  0.8824
10281TIP3    H252335   0.728   0.005  14.610 -1.2037  1.4504 -0.2169
10282TIP3   OH252336   1.619   1.716   3.900  0.3845  0.3041 -1.1368
10282TIP3    H152337   1.685   1.780   3.925  0.9915 -0.4499 -0.7831
10282TIP3    H252338   1.669   1.635   3.885 -0.5616 -0.4800 -0.0624
10283TIP3   OH252339   5.729   6.136  13.318  0.0421  0.0811 -0.2669
10283TIP3    H152340   5.691   6.177  13.396  0.9688  0.5280 -0.0486
10283TIP3    H252341   5.824   6.141  13.331  0.1846 -2.0776 -0.2687
10284TIP3   OH252342   2.934   3.529  16.709  0.4637  0.3229 -0.0164
10284TIP3    H152343   2.954   3.554  16.799  1.6985  0.5883 -0.3553
10284TIP3    H252344   2.958   3.436  16.705  0.8043  0.4162 -0.1792
10285TIP3   OH252345   5.546   2.960  13.888  0.3490  0.8336  0.3056
10285TIP3    H152346   5.454   2.934  13.875  0.8481 -0.4093 -0.8224
10285TIP3    H252347   5.549   2.993  13.978 -0.6494 -1.5956  1.2666
10286TIP3   OH252348   6.388   5.364  14.528  0.1866 -0.4286  0.0017
10286TIP3    H152349   6.408   5.320  14.611  1.2210  1.3665  0.7126
10286TIP3    H252350   6.467   5.412  14.506 -0.6720  0.4711 -1.1777
10287TIP3   OH252351   1.104   4.678   1.100 -0.4696  0.3862 -0.0742
10287TIP3    H152352   1.106   4.756   1.154  0.5358  1.3446 -1.4503
10287TIP3    H252353   1.193   4.670   1.065 -0.9509 -0.4952 -1.1595
10288TIP3   OH252354   3.464   5.160  15.744  0.4716 -0.3911  0.5426
10288TIP3    H152355   3.496   5.074  15.774  0.9468 -0.3248  0.2374
10288TIP3    H252356   3.543   5.213  15.736  0.5891 -0.9258 -2.5367
10289TIP3   OH252357   1.254   1.317   4.255  0.1373  0.1413 -0.0138
10289TIP3    H152358   1.266   1.266   4.175  0.2713 -0.3007  0.2846
10289TIP3    H252359   1.282   1.405   4.232 -0.3905  0.1556 -0.6274
10290TIP3   OH252360   3.825   0.475  14.653 -0.1774  0.4887  0.0106
10290TIP3    H152361   3.854   0.398  14.701 -0.9249  1.3767  1.9466
10290TIP3    H252362   3.730   0.464  14.645 -0.1966  0.8600 -0.3014
10291TIP3   OH252363   6.451   1.956   0.702 -0.0320 -0.3843 -0.1901
10291TIP3    H152364   6.480   1.869   0.727 -0.2022 -0.7030 -1.0937
10291TIP3    H252365   6.508   2.015   0.751  1.4679 -1.0077 -1.1630
10292TIP3   OH252366   6.092   2.925   3.260 -0.2292  0.4864  0.0713
10292TIP3    H152367   6.115   2.859   3.325 -0.0991 -0.0791 -0.5381
10292TIP3    H252368   6.054   2.996   3.311  1.4525  0.7956  0.9481
10293TIP3   OH252369   5.254   1.017  15.500 -0.1271  0.3211 -0.2135
10293TIP3    H152370   5.342   1.045  15.476  0.3822 -1.2083 -0.1602
10293TIP3    H252371   5.267   0.942  15.557 -1.4516  0.7822  0.7378
10294TIP3   OH252372   5.391   6.169   1.471 -0.1424 -0.4817  0.0928
10294TIP3    H152373   5.343   6.161   1.388 -0.6357  0.0706  0.3245
10294TIP3    H252374   5.428   6.082   1.485 -1.0351 -0.8987 -0.1085
10295TIP3   OH252375   3.230   6.327  14.227 -0.1179  0.6028  0.6742
10295TIP3    H152376   3.157   6.271  14.254 -1.0246  1.4674  0.0817
10295TIP3    H252377   3.228   6.325  14.131  2.2870 -1.4486  0.6253
10296TIP3   OH252378   5.988   3.047   0.812 -0.7613  0.4014  0.3968
10296TIP3    H152379   6.057   3.088   0.864 -1.2450  2.0190 -0.1962
10296TIP3    H252380   5.924   3.017   0.876  0.1422 -0.4629  0.9071
10297TIP3   OH252381   6.565   2.259  16.891 -0.8717  0.2772  0.2682
10297TIP3    H152382   6.498   2.267  16.959 -0.9241 -0.1635  0.2719
10297TIP3    H252383   6.633   2.321  16.917 -0.9974  0.2785  0.6008
10298TIP3   OH252384   1.891   0.758  15.208  0.1640  0.0125 -0.0370
10298TIP3    H152385   1.866   0.842  15.247  0.0883  0.0504 -0.1678
10298TIP3    H252386   1.930   0.781  15.124  1.4749  0.0167  0.5492
10299TIP3   OH252387   6.262   4.141  11.858  0.5102  0.1311  0.4490
10299TIP3    H152388   6.171   4.135  11.887  1.1422  1.4672  2.9262
10299TIP3    H252389   6.263   4.217  11.799  0.4091  1.5338  2.2070
10300TIP3   OH252390   6.616   1.482  15.734  0.1038 -0.0071 -0.1319
10300TIP3    H152391   6.654   1.520  15.813 -0.9518  2.7860 -0.9141
10300TIP3    H252392   6.522   1.480  15.750  0.0383 -1.1813 -0.5963
10301TIP3   OH252393   5.879   2.661  11.359  0.0267  0.0335  0.2519
10301TIP3    H152394   5.802   2.623  11.318  0.8944  1.2352 -2.5800
10301TIP3    H252395   5.947   2.594  11.350  0.1566  0.2100 -0.0866
10302TIP3   OH252396   2.726   2.554  11.574 -0.8377 -0.4283  0.3954
10302TIP3    H152397   2.789   2.623  11.591 -2.1411  0.3997  1.9936
10302TIP3    H252398   2.654   2.598  11.528 -0.6028 -1.2123 -0.7494
10303TIP3   OH252399   0.928   1.686  11.822 -0.6110 -0.2687  0.3015
10303TIP3    H152400   0.844   1.695  11.776  0.4257  2.9205 -1.1621
10303TIP3    H252401   0.980   1.630  11.766 -2.2388 -3.6382  2.0277
10304TIP3   OH252402   6.542   5.452   3.508 -0.3596  0.5454 -0.3390
10304TIP3    H152403   6.626   5.409   3.525 -0.9935  0.1351  1.8202
10304TIP3    H252404   6.546   5.533   3.557 -1.6717 -0.0051  0.7044
10305TIP3   OH252405   3.074   1.568   6.012 -0.3495  0.3353  0.2793
10305TIP3    H152406   3.027   1.612   5.941 -2.5997 -0.7711  1.0133
10305TIP3    H252407   3.094   1.638   6.074 -0.2406  0.9788 -0.4702
10306TIP3   OH252408   1.370   6.762  12.660 -0.3586  0.3003  0.0631
10306TIP3    H152409   1.317   6.683  12.646  0.3132 -0.0777 -0.3919
10306TIP3    H252410   1.409   6.780  12.574  0.3354  0.5041  0.4172
10307TIP3   OH252411   0.848   4.282  13.765 -0.2278 -0.1189  0.6749
10307TIP3    H152412   0.922   4.329  13.727 -1.1963  1.0382  0.1650
10307TIP3    H252413   0.866   4.190  13.747  0.5171  0.2367 -0.4506
10308TIP3   OH252414   6.249   3.274   2.196  0.1948  0.1301 -0.6995
10308TIP3    H152415   6.317   3.217   2.160 -1.1746 -0.2706 -2.7215
10308TIP3    H252416   6.292   3.359   2.207  1.6432 -0.7003  0.2819
10309TIP3   OH252417   1.396   6.492   3.812 -0.5229 -0.8937  0.0977
10309TIP3    H152418   1.393   6.462   3.722 -1.0125  0.0512 -0.2047
10309TIP3    H252419   1.476   6.544   3.817 -1.1384  0.0919 -0.1291
10310TIP3   OH252420   1.566   6.721  13.361  0.0093 -0.3733 -0.5936
10310TIP3    H152421   1.589   6.689  13.273 -0.6471 -0.4282 -0.7463
10310TIP3    H252422   1.638   6.691  13.416  0.8394  0.3645 -1.2628
10311TIP3   OH252423   2.531   2.235  12.241  0.3923 -0.3845 -0.9009
10311TIP3    H152424   2.518   2.253  12.334 -1.1754  0.0081 -1.1780
10311TIP3    H252425   2.447   2.257  12.201  0.7200 -1.5592 -2.2639
10312TIP3   OH252426   5.754   0.622  14.794 -0.4463 -0.5127 -0.2562
10312TIP3    H152427   5.678   0.665  14.831 -1.0949 -0.5040 -1.5642
10312TIP3    H252428   5.725   0.532  14.776  0.6087 -1.2385  1.5641
10313TIP3   OH252429   4.176   5.548  13.024 -0.2918  0.1463  0.5221
10313TIP3    H152430   4.198   5.638  13.048 -1.6307  0.3162  1.1752
10313TIP3    H252431   4.186   5.545  12.929 -0.7752  1.1404  0.4368
10314TIP3   OH252432   0.143   5.948  16.164  0.3067  0.2369 -0.2173
10314TIP3    H152433   0.121   5.867  16.211 -1.7714  2.1658  2.3258
10314TIP3    H252434   0.211   5.989  16.217  1.3319  0.2073 -1.4835
10315TIP3   OH252435   1.883   2.420  11.322 -0.0341 -0.4286 -0.0628
10315TIP3    H152436   1.797   2.445  11.288 -0.2618 -0.8743  0.1824
10315TIP3    H252437   1.866   2.342  11.376  0.6462 -1.0059 -0.6789
10316TIP3   OH252438   1.304   0.534  16.729 -0.7431  0.0580 -0.3494
10316TIP3    H152439   1.261   0.518  16.645 -0.9647 -2.4849  0.2171
10316TIP3    H252440   1.285   0.626  16.749 -4.1204 -0.4195 -1.1319
10317TIP3   OH252441   3.001   1.814  14.779  0.2405 -0.1557 -0.4228
10317TIP3    H152442   3.027   1.737  14.728  0.7693 -0.2662  0.0162
10317TIP3    H252443   2.973   1.778  14.863  0.9072  0.1713 -0.0596
10318TIP3   OH252444   0.874   6.793   6.014  0.0342  0.3518  0.2956
10318TIP3    H152445   0.803   6.804   5.951  1.0421  0.7378 -0.7903
10318TIP3    H252446   0.843   6.724   6.073 -1.5868  1.0925  0.3427
10319TIP3   OH252447   1.718   6.562   3.519  0.5243 -0.2646  0.1438
10319TIP3    H152448   1.786   6.616   3.559 -0.4790  0.9523  0.2719
10319TIP3    H252449   1.765   6.490   3.477  1.8445  0.3271  0.5828
10320TIP3   OH252450   1.788   5.328  14.718 -0.4330  0.1698  0.1886
10320TIP3    H152451   1.767   5.405  14.664  0.9237 -0.3668 -1.1544
10320TIP3    H252452   1.844   5.363  14.788  2.0002  0.0929 -1.6652
10321TIP3   OH252453   5.870   2.536  12.447 -0.0886 -0.5145 -0.3258
10321TIP3    H152454   5.834   2.451  12.471 -0.3030  0.3743  2.7708
10321TIP3    H252455   5.808   2.599  12.483  1.5304  0.9625 -0.0534
10322TIP3   OH252456   1.176   1.179  14.865  0.5038 -0.1498  0.1667
10322TIP3    H152457   1.203   1.130  14.787 -1.4896  1.7422 -1.7952
10322TIP3    H252458   1.080   1.181  14.860  0.4079  1.1767  1.9204
10323TIP3   OH252459   4.600   1.340   2.748  0.2336  0.4288  0.1915
10323TIP3    H152460   4.533   1.272   2.743 -0.4388  1.1805 -1.5554
10323TIP3    H252461   4.566   1.402   2.812  0.6498 -0.6391  1.4711
10324TIP3   OH252462   2.775   2.929  12.652  0.0850 -0.3313 -0.3181
10324TIP3    H152463   2.685   2.961  12.641 -0.1601 -1.3166 -1.2718
10324TIP3    H252464   2.772   2.838  12.620  1.1856 -0.6997  0.6098
10325TIP3   OH252465   4.693   5.231  10.957 -0.4446 -0.0485  0.2155
10325TIP3    H152466   4.616   5.176  10.939  1.0725 -2.4957  0.9676
10325TIP3    H252467   4.695   5.240  11.052 -0.3224  0.8136  0.1399
10326TIP3   OH252468   5.600   4.662   4.498  0.2852 -0.3507  0.0892
10326TIP3    H152469   5.529   4.726   4.491  1.2168  0.5928 -0.8995
10326TIP3    H252470   5.610   4.647   4.592 -0.2944  0.5607  0.2985
10327TIP3   OH252471   4.238   3.284  12.684 -0.0080  0.0916 -0.5630
10327TIP3    H152472   4.184   3.304  12.760  2.1161 -0.9158  1.2702
10327TIP3    H252473   4.193   3.213  12.640  0.7464 -2.0739  2.0307
10328TIP3   OH252474   6.039   2.132  13.057 -0.0714  0.6179 -0.2571
10328TIP3    H152475   6.122   2.087  13.041 -0.4343  0.1931 -0.9251
10328TIP3    H252476   5.991   2.073  13.116  1.1608  2.0597  2.2922
10329TIP3   OH252477   3.228   5.542   0.284 -0.1418 -0.0705 -0.1713
10329TIP3    H152478   3.248   5.449   0.270  0.9503  0.2535 -0.7391
10329TIP3    H252479   3.311   5.587   0.274 -0.9267  1.1432 -1.3583
10330TIP3   OH252480   6.561   3.150   3.969  0.7024  0.2082  0.1033
10330TIP3    H152481   6.517   3.186   4.045  0.6616  0.1719  0.0970
10330TIP3    H252482   6.511   3.181   3.894  0.7161  0.2075  0.0936
10331TIP3   OH252483   5.271   3.973  11.540 -0.3136  0.0048  0.2152
10331TIP3    H152484   5.325   3.965  11.619 -0.6176  0.4968  0.4768
10331TIP3    H252485   5.261   3.883  11.509 -0.3287 -0.2131  0.8299
10332TIP3   OH252486   1.016   0.407  11.132  0.4941 -0.0542 -0.1852
10332TIP3    H152487   1.067   0.441  11.059 -1.7838 -0.5397 -2.0362
10332TIP3    H252488   1.026   0.312  11.127  0.6972 -0.0742  0.4365
10333TIP3   OH252489   2.095   0.937   0.016  0.3016  0.7367 -0.1993
10333TIP3    H152490   2.060   0.885  -0.057  1.4754  0.5585 -0.6479
10333TIP3    H252491   2.059   0.895   0.094  0.3004 -0.0324 -0.6068
10334TIP3   OH252492   6.045   5.885  10.782  0.9600  0.3632 -0.7831
10334TIP3    H152493   6.097   5.930  10.849  1.5968 -1.5795  0.0570
10334TIP3    H252494   6.070   5.927  10.700  1.8220  1.2863 -0.0605
10335TIP3   OH252495   2.938   1.989  11.904  0.0413 -0.7765  0.0225
10335TIP3    H152496   2.897   2.072  11.879 -0.1111 -1.0536 -0.6326
10335TIP3    H252497   2.920   1.930  11.831 -0.3937 -1.5738  0.7657
10336TIP3   OH252498   1.287   3.409   0.190  0.3701 -0.2869  0.0421
10336TIP3    H152499   1.297   3.504   0.186 -1.8866 -0.0805 -1.1463
10336TIP3    H252500   1.307   3.379   0.101 -1.6958 -0.6095 -0.3417
10337TIP3   OH252501   6.557   2.851   3.498  0.0963  0.2526  0.0801
10337TIP3    H152502   6.496   2.896   3.439 -1.3839 -0.2081  1.2365
10337TIP3    H252503   6.501   2.801   3.557  1.6422 -1.1573  0.3972
10338TIP3   OH252504   5.864   1.351   3.512  0.2867 -0.9050 -0.3195
10338TIP3    H152505   5.884   1.440   3.541  1.3800 -0.7920 -1.3604
10338TIP3    H252506   5.914   1.294   3.570  0.6305 -0.7786 -0.4904
10339TIP3   OH252507   4.118   1.803  15.190 -0.1053  0.0116 -0.5862
10339TIP3    H152508   4.030   1.795  15.229 -0.2298  1.5719 -0.5243
10339TIP3    H252509   4.148   1.890  15.216  1.6142 -0.6337 -0.3301
10340TIP3   OH252510   3.789   2.165   0.641 -0.5223 -0.4439 -0.0717
10340TIP3    H152511   3.750   2.236   0.692 -0.0848  0.1803 -0.5946
10340TIP3    H252512   3.719   2.137   0.582 -0.2324  0.6020 -0.9316
10341TIP3   OH252513   3.786   4.774   5.030  0.5648 -0.0954  0.6850
10341TIP3    H152514   3.761   4.688   4.995  0.9838 -0.4449  1.2457
10341TIP3    H252515   3.862   4.800   4.978 -0.8663  0.9181 -0.9458
10342TIP3   OH252516   3.765   3.529  11.210  0.2666  0.0017 -0.0298
10342TIP3    H152517   3.776   3.573  11.125 -1.1570 -0.5782 -0.5374
10342TIP3    H252518   3.849   3.488  11.227 -0.2280 -2.1418 -2.4948
10343TIP3   OH252519   0.581   4.911   2.397  0.0950  0.3900  0.7144
10343TIP3    H152520   0.533   4.846   2.345 -0.5106  1.1500  0.3121
10343TIP3    H252521   0.660   4.929   2.346  0.3808 -0.1893  0.9385
10344TIP3   OH252522   6.306   4.451  17.081 -0.0852 -0.3870 -0.1882
10344TIP3    H152523   6.266   4.493  17.005  0.8653  1.6138  0.3858
10344TIP3    H252524   6.271   4.498  17.156 -1.9166 -3.1036  0.7329
10345TIP3   OH252525   4.469   0.737  11.285  0.0016  0.3648 -0.0637
10345TIP3    H152526   4.390   0.788  11.267 -0.2387 -0.2172 -0.6810
10345TIP3    H252527   4.518   0.739  11.202  0.0694 -0.2689 -0.0434
10346TIP3   OH252528   0.533   2.350   3.257  0.0223 -0.1304  0.2307
10346TIP3    H152529   0.576   2.357   3.172  2.3020 -2.2898  1.1532
10346TIP3    H252530   0.546   2.436   3.298  0.5914  0.2951 -0.8158
10347TIP3   OH252531   6.299   3.582   6.335 -0.4685 -1.2596  0.5156
10347TIP3    H152532   6.386   3.621   6.335 -0.9341 -0.2133  0.5513
10347TIP3    H252533   6.315   3.488   6.323  0.5386 -0.8032 -1.9473
10348TIP3   OH252534   5.481   6.120   4.525 -0.1138  0.4925  0.1485
10348TIP3    H152535   5.483   6.182   4.598  0.8789 -0.4058  0.8947
10348TIP3    H252536   5.431   6.046   4.557 -1.6755  1.0636 -0.8995
10349TIP3   OH252537   1.053   4.079  12.721  0.0458  0.6356 -0.2089
10349TIP3    H152538   1.143   4.110  12.724  0.2414  0.0458  0.0406
10349TIP3    H252539   1.001   4.155  12.747  0.5128  0.8050  0.2336
10350TIP3   OH252540   3.789   2.683  12.850 -0.5267 -0.7594  0.4074
10350TIP3    H152541   3.869   2.714  12.808 -1.4260 -0.3326 -1.0093
10350TIP3    H252542   3.812   2.595  12.881  0.1096 -1.1643 -1.1349
10351TIP3   OH252543   5.276   2.030   0.151 -0.3946 -0.2425  0.6621
10351TIP3    H152544   5.268   1.955   0.211 -0.8502  0.1600  1.0998
10351TIP3    H252545   5.186   2.054   0.130 -0.2349 -0.6281 -0.5001
10352TIP3   OH252546   4.153   1.463  14.460  0.1374  0.4489  0.4303
10352TIP3    H152547   4.108   1.429  14.537  0.0337 -0.5625 -0.0673
10352TIP3    H252548   4.173   1.385  14.407 -0.1909  1.1746 -0.7799
10353TIP3   OH252549   3.042   4.285   2.772  0.4030  0.1531  0.3427
10353TIP3    H152550   3.038   4.265   2.679  2.7535 -0.0756  0.2633
10353TIP3    H252551   2.978   4.227   2.812 -1.6472  1.2339 -1.2694
10354TIP3   OH252552   1.754   1.118  16.309 -0.5998  0.2199 -0.0035
10354TIP3    H152553   1.773   1.205  16.344  0.8382  0.1180 -0.4962
10354TIP3    H252554   1.805   1.058  16.364 -0.5627 -0.1929 -0.4843
10355TIP3   OH252555   3.998   0.142   3.475  0.0464 -0.0767  0.6485
10355TIP3    H152556   3.950   0.114   3.553 -1.6239  1.1141  0.0776
10355TIP3    H252557   4.058   0.209   3.506 -0.8038  0.5829  0.8648
10356TIP3   OH252558   0.381   1.347  16.464 -0.4403  0.4714  0.3307
10356TIP3    H152559   0.434   1.426  16.473  0.8154 -0.5547  2.5586
10356TIP3    H252560   0.319   1.352  16.537 -1.7028  0.3920 -0.7313
10357TIP3   OH252561   5.536   2.325  14.486  0.4552  0.1914 -0.3953
10357TIP3    H152562   5.553   2.401  14.541  1.8998 -1.4997  1.5756
10357TIP3    H252563   5.451   2.343  14.445 -0.0188  2.0679  1.3439
10358TIP3   OH252564   5.809   3.252  11.860 -0.3060 -0.5820 -0.2876
10358TIP3    H152565   5.796   3.159  11.845 -2.8585 -0.1359 -1.1565
10358TIP3    H252566   5.877   3.278  11.798 -1.1461 -1.4542 -1.5881
10359TIP3   OH252567   0.854   2.804  11.329 -0.4683 -0.3404 -0.3014
10359TIP3    H152568   0.851   2.708  11.332 -3.3465 -0.3615 -1.5022
10359TIP3    H252569   0.861   2.831  11.420  0.9374 -1.6816  0.0101
10360TIP3   OH252570   1.770   3.291  16.568 -0.0558 -0.1678  0.2765
10360TIP3    H152571   1.720   3.210  16.569  0.7434 -0.6605  0.7338
10360TIP3    H252572   1.768   3.322  16.658  1.6605 -0.9487  0.6094
10361TIP3   OH252573   3.498   1.771  17.024 -0.2111 -0.2883  0.0079
10361TIP3    H152574   3.496   1.727  17.108  2.4947 -0.4135  0.0285
10361TIP3    H252575   3.578   1.824  17.025 -0.6572  0.5048 -2.0731
10362TIP3   OH252576   0.564   2.693   1.067 -0.3522  0.8485  0.1979
10362TIP3    H152577   0.580   2.735   0.983 -0.8523 -0.6264 -0.6329
10362TIP3    H252578   0.602   2.606   1.059 -2.7136 -0.2638  0.5624
10363TIP3   OH252579   1.196   2.673  13.057 -0.0133 -0.0622  0.3038
10363TIP3    H152580   1.127   2.652  13.120  1.0429 -0.6462  1.2746
10363TIP3    H252581   1.149   2.694  12.977 -1.3868  1.0473  1.3822
10364TIP3   OH252582   0.992   2.982   0.785 -0.7485 -0.4271 -0.1216
10364TIP3    H152583   1.005   3.072   0.756 -0.9597 -0.5004 -0.4481
10364TIP3    H252584   0.966   2.935   0.706 -3.0656 -0.2895  0.5196
10365TIP3   OH252585   5.895   3.854  14.412 -0.2922 -0.3321  0.6224
10365TIP3    H152586   5.842   3.850  14.332 -0.2863 -0.7079  0.6401
10365TIP3    H252587   5.911   3.948  14.424  0.6974 -0.3342 -0.4767
10366TIP3   OH252588   1.705   4.137   5.695  0.4474  0.1452 -0.4062
10366TIP3    H152589   1.786   4.187   5.686  0.7561 -0.0916  1.0473
10366TIP3    H252590   1.644   4.198   5.735 -0.1269  0.3358 -1.5406
10367TIP3   OH252591   2.539   1.742   3.486 -0.4381 -0.1386 -0.1518
10367TIP3    H152592   2.610   1.798   3.517 -0.7521  0.3815 -0.3780
10367TIP3    H252593   2.470   1.752   3.552 -0.1530 -0.9381  0.2676
10368TIP3   OH252594   5.238   3.393   1.127  0.3065 -0.3223 -0.2671
10368TIP3    H152595   5.219   3.300   1.117  1.3058 -0.4694 -0.8935
10368TIP3    H252596   5.232   3.408   1.222 -0.5743 -0.8640 -0.2345
10369TIP3   OH252597   1.899   6.035   5.281  0.2396  0.3146 -0.1367
10369TIP3    H152598   1.807   6.017   5.260 -0.3456  2.0517  0.8290
10369TIP3    H252599   1.908   6.008   5.372  1.6658 -3.2222 -1.2394
10370TIP3   OH252600   3.606   0.207  12.206  0.3037 -0.7944  0.0055
10370TIP3    H152601   3.532   0.264  12.185 -0.3168 -1.1255  1.2669
10370TIP3    H252602   3.596   0.132  12.148 -1.4592 -1.7611  1.5202
10371TIP3   OH252603   2.427   6.027   0.315  0.1826 -0.3019 -0.0665
10371TIP3    H152604   2.366   6.091   0.277 -2.0142 -1.7314  0.9283
10371TIP3    H252605   2.414   5.948   0.263  1.0647 -0.6960  0.2990
10372TIP3   OH252606   4.201   4.890  11.399  0.5635 -0.3931 -0.0964
10372TIP3    H152607   4.232   4.939  11.475 -0.2748 -0.5677  0.3555
10372TIP3    H252608   4.107   4.883  11.411  0.5682 -1.3845 -0.5821
10373TIP3   OH252609   3.200   1.087   1.468  0.1990  0.1040 -0.1137
10373TIP3    H152610   3.235   1.088   1.557  1.1776  0.1995 -0.4898
10373TIP3    H252611   3.158   1.172   1.458 -1.1280 -0.4294  0.7137
10374TIP3   OH252612   5.191   1.868  12.165 -0.7143 -0.4242 -0.1904
10374TIP3    H152613   5.169   1.863  12.258 -0.1481  1.1858  0.0397
10374TIP3    H252614   5.116   1.912  12.125 -0.7014 -0.5979 -0.4058
10375TIP3   OH252615   0.409   3.596  16.334 -0.0307 -0.4819  0.1759
10375TIP3    H152616   0.431   3.639  16.252 -0.1498  0.2391  0.5184
10375TIP3    H252617   0.332   3.643  16.366 -0.9732 -1.8084 -0.1070
10376TIP3   OH252618   3.378   4.537   2.329  0.0189 -0.0626  0.1597
10376TIP3    H152619   3.379   4.458   2.276 -0.3540 -0.6808  1.0538
10376TIP3    H252620   3.322   4.598   2.282 -0.6590 -0.7563  0.0690
10377TIP3   OH252621   5.101   5.818  12.020 -0.0076 -0.4317 -0.2877
10377TIP3    H152622   5.109   5.829  11.925  1.0954  0.5339 -0.0993
10377TIP3    H252623   5.049   5.739  12.031  0.9162 -1.2511 -1.6975
10378TIP3   OH252624   0.218   2.754  10.610  0.4358  0.0895 -0.0827
10378TIP3    H152625   0.189   2.816  10.676  4.6536  2.0867  0.0185
10378TIP3    H252626   0.166   2.775  10.533 -2.5221 -0.3982  1.7009
10379TIP3   OH252627   5.440   0.241   4.403  0.0345 -0.1570  0.3184
10379TIP3    H152628   5.384   0.301   4.453 -0.5169  0.4584 -1.0278
10379TIP3    H252629   5.392   0.225   4.322  1.2307 -0.6264 -0.3079
10380TIP3   OH252630   4.754   6.733   5.038  0.1234  0.2155 -0.5225
10380TIP3    H152631   4.707   6.660   5.080  0.7405  0.6876  0.9928
10380TIP3    H252632   4.728   6.727   4.946 -2.1869 -0.1012  0.1138
10381TIP3   OH252633   4.101   0.066  13.037  0.1605  0.4854 -0.2361
10381TIP3    H152634   4.025   0.027  13.080  1.6619 -1.8861  0.3835
10381TIP3    H252635   4.081   0.160  13.034 -0.5225  0.6816  4.7524
10382TIP3   OH252636   6.764   2.451  16.932 -0.4162  0.0307  0.2549
10382TIP3    H152637   6.733   2.515  16.868  2.9248 -0.8107 -2.3529
10382TIP3    H252638   6.808   2.503  16.999 -2.1438  0.7725  0.8415
10383TIP3   OH252639   3.921   5.512   3.629  0.3868  0.3190  0.1450
10383TIP3    H152640   3.900   5.605   3.641 -0.3496 -0.0766  2.1058
10383TIP3    H252641   4.016   5.509   3.623  0.4661  1.1262  0.9152
10384TIP3   OH252642   5.923   2.540  17.283  0.0056 -0.6462  0.2670
10384TIP3    H152643   5.938   2.573  17.194 -0.4505 -3.8169 -1.0774
10384TIP3    H252644   5.828   2.537  17.291  0.0468  0.2489  1.1194
10385TIP3   OH252645   2.862   0.778  16.079  0.1566 -0.1115 -0.5025
10385TIP3    H152646   2.938   0.791  16.135 -0.1882 -0.5633  0.0712
10385TIP3    H252647   2.895   0.726  16.006  0.4692 -0.0457 -0.4113
10386TIP3   OH252648   3.310   4.017  11.943 -0.2411  0.4960  0.4754
10386TIP3    H152649   3.258   3.998  12.021  0.0684 -0.5543  0.4399
10386TIP3    H252650   3.247   4.013  11.871 -0.8564  3.1132  0.8071
10387TIP3   OH252651   2.250   3.267   5.031  0.1511  0.1976  0.3131
10387TIP3    H152652   2.267   3.232   4.944  0.0243 -0.8001  0.6851
10387TIP3    H252653   2.166   3.311   5.022 -0.3647 -0.7933  0.1790
10388TIP3   OH252654   3.772   2.057   4.117 -0.2661  0.1111  0.4454
10388TIP3    H152655   3.692   2.009   4.140 -0.4966  0.5578  0.5663
10388TIP3    H252656   3.811   2.079   4.201 -1.2889  2.0535  0.4398
10389TIP3   OH252657   4.822   0.290   1.775 -0.5889 -0.0095 -0.4042
10389TIP3    H152658   4.730   0.317   1.784 -0.5812  0.3610 -1.4475
10389TIP3    H252659   4.825   0.240   1.694 -0.1299 -1.1897  0.3289
10390TIP3   OH252660   5.013   5.002  16.173  0.6097 -0.8659  0.1492
10390TIP3    H152661   4.960   4.928  16.142  0.5480 -1.0356  0.6518
10390TIP3    H252662   5.099   4.988  16.133  0.4442 -0.9133 -0.1904
10391TIP3   OH252663   6.717   2.037  12.417  0.3225  0.2246  0.6006
10391TIP3    H152664   6.793   1.980  12.423  2.3647  3.0108  2.1157
10391TIP3    H252665   6.665   2.015  12.495 -0.5009 -1.6514 -0.4207
10392TIP3   OH252666   5.926   5.064  15.579  0.0202  0.5803  0.5837
10392TIP3    H152667   5.870   5.022  15.644  1.3954 -0.7541  0.9316
10392TIP3    H252668   5.887   5.039  15.495 -1.0429  1.2958  0.8521
10393TIP3   OH252669   6.697   0.151   5.252  0.4313  0.1808 -0.2824
10393TIP3    H152670   6.736   0.101   5.324  0.0230 -0.9614 -0.8415
10393TIP3    H252671   6.712   0.096   5.174  0.0416  0.9686 -0.9126
10394TIP3   OH252672   6.664   0.264   2.491 -0.2669  0.5710  0.1449
10394TIP3    H152673   6.758   0.250   2.498 -0.3578 -0.0933  0.0414
10394TIP3    H252674   6.640   0.226   2.407 -1.5718 -4.6656  2.6430
10395TIP3   OH252675   3.474   2.227  12.632 -0.5569  0.5251  0.4796
10395TIP3    H152676   3.493   2.268  12.717 -1.5661 -0.2644  1.1020
10395TIP3    H252677   3.379   2.213  12.633 -0.1856 -2.2849  0.5048
10396TIP3   OH252678   4.994   4.762  14.644  0.1000  0.6100  0.3603
10396TIP3    H152679   5.080   4.729  14.670  0.1919 -0.2149 -0.9328
10396TIP3    H252680   4.988   4.742  14.550 -1.0709  1.6105  0.2082
10397TIP3   OH252681   0.296   1.877  15.848 -0.1238 -0.3664  0.0818
10397TIP3    H152682   0.268   1.787  15.837 -0.8043  0.1928 -3.3143
10397TIP3    H252683   0.239   1.913  15.916  0.8062 -2.7197  2.1591
10398TIP3   OH252684   3.417   0.596  15.000  0.0929  0.2822 -0.3883
10398TIP3    H152685   3.434   0.598  14.906  0.1124  2.0142 -0.3647
10398TIP3    H252686   3.374   0.679  15.019 -3.1898 -1.5164  0.5419
10399TIP3   OH252687   1.334   0.039  13.560  0.3488 -0.3989  0.2322
10399TIP3    H152688   1.283  -0.040  13.544  1.1272 -0.9342  0.3703
10399TIP3    H252689   1.402   0.039  13.493 -0.3842  0.8044 -0.5407
10400TIP3   OH252690   4.515   1.696  12.909  0.1673 -0.0562  0.6896
10400TIP3    H152691   4.481   1.608  12.927  0.4709  0.1153  2.1804
10400TIP3    H252692   4.497   1.710  12.816 -3.1427 -0.2643  1.2382
10401TIP3   OH252693   3.786   5.218   2.123  0.0182 -0.2760 -0.4245
10401TIP3    H152694   3.824   5.144   2.171 -2.1047 -1.1689 -0.0621
10401TIP3    H252695   3.725   5.258   2.185 -0.1028  0.7665 -1.1923
10402TIP3   OH252696   4.527   1.694  16.507  0.2450  0.2740  0.1063
10402TIP3    H152697   4.571   1.679  16.424  0.2172  0.8460 -0.0124
10402TIP3    H252698   4.535   1.788  16.522  0.7953  0.0889  1.0577
10403TIP3   OH252699   0.328   4.281  14.462  0.8480  0.1774  0.3128
10403TIP3    H152700   0.382   4.305  14.386 -1.9822  1.0289 -1.5149
10403TIP3    H252701   0.337   4.185  14.467  2.7206  0.3188  0.2441
10404TIP3   OH252702   0.488   4.506  13.211 -0.2360 -0.4226  0.3894
10404TIP3    H152703   0.547   4.503  13.135  0.0288 -0.8619  0.6077
10404TIP3    H252704   0.406   4.541  13.177 -0.3675 -1.3433 -0.2673
10405TIP3   OH252705   6.807   2.585  11.761  0.1479  0.2709 -0.2306
10405TIP3    H152706   6.735   2.545  11.713 -1.7214  1.4905  1.4799
10405TIP3    H252707   6.821   2.670  11.718  0.0846  0.3365 -0.1219
10406TIP3   OH252708   0.149   5.157   1.079 -0.1411  0.0294  0.4909
10406TIP3    H152709   0.201   5.221   1.031  0.3802  0.6289  1.8274
10406TIP3    H252710   0.059   5.186   1.066 -0.0364 -0.0275 -0.4187
10407TIP3   OH252711   3.347   4.701   6.257 -0.3580  0.0469  0.1819
10407TIP3    H152712   3.438   4.687   6.233  0.5238  0.1402  3.2638
10407TIP3    H252713   3.311   4.612   6.265  0.3711 -0.1021  2.1102
10408TIP3   OH252714   3.706   4.465  13.357 -0.3903  0.0672  0.4721
10408TIP3    H152715   3.692   4.555  13.385 -0.1899  0.2417  0.0160
10408TIP3    H252716   3.628   4.418  13.388 -0.8509  0.5502  0.0642
10409TIP3   OH252717   4.227   4.696  13.547 -0.1367  0.6772 -0.8305
10409TIP3    H152718   4.188   4.732  13.627  0.9042 -1.7411  0.8240
10409TIP3    H252719   4.204   4.759  13.478 -1.4213  2.5793  1.2835
10410TIP3   OH252720   5.868   2.918  14.050 -0.0637  0.8188 -0.3760
10410TIP3    H152721   5.819   2.896  13.971 -0.7373  2.0883 -0.3247
10410TIP3    H252722   5.911   2.837  14.075  0.7771  0.5948 -2.4687
10411TIP3   OH252723   5.871   1.806   0.024  0.5751  0.0718 -0.2260
10411TIP3    H152724   5.811   1.745   0.067 -2.5541  2.1316 -1.4315
10411TIP3    H252725   5.928   1.751  -0.030  1.5262 -2.1500  2.9219
10412TIP3   OH252726   2.984   3.070  16.426 -0.5102 -0.2217 -0.2680
10412TIP3    H152727   3.048   3.011  16.467 -0.0508 -1.6304 -2.8843
10412TIP3    H252728   2.900   3.027  16.439 -0.8375  1.0759  2.1916
10413TIP3   OH252729   2.629   1.583  15.710 -0.1553  0.3600  0.5761
10413TIP3    H152730   2.674   1.666  15.690  0.8520 -0.4526 -0.5818
10413TIP3    H252731   2.605   1.591  15.802  0.4908  1.6914  0.6459
10414TIP3   OH252732   6.642   6.505  15.440  0.0793 -0.0857 -0.4870
10414TIP3    H152733   6.729   6.543  15.444  0.8817 -1.6954 -1.9689
10414TIP3    H252734   6.599   6.533  15.521  2.0009  0.6389  0.2941
10415TIP3   OH252735   6.065   2.070  17.255 -0.5603 -0.6480 -0.0890
10415TIP3    H152736   5.996   2.047  17.317 -1.0703 -1.2703 -0.8771
10415TIP3    H252737   6.079   1.991  17.204  0.9922 -0.6377  0.2893
10416TIP3   OH252738   3.256   3.902  13.573  0.2898  0.2065 -0.1953
10416TIP3    H152739   3.237   3.928  13.483 -0.4305  0.9505  0.1519
10416TIP3    H252740   3.217   3.816  13.582  0.2769  0.1724 -0.5671
10417TIP3   OH252741   1.751   5.542   2.440 -0.0139  0.0262  0.1982
10417TIP3    H152742   1.802   5.462   2.449  0.1544 -0.0960 -1.7154
10417TIP3    H252743   1.795   5.591   2.370 -2.0929  0.2325 -0.9919
10418TIP3   OH252744   0.725   5.633  16.949  0.7688 -0.2017  0.2488
10418TIP3    H152745   0.698   5.722  16.971 -1.0916 -0.6747 -0.1007
10418TIP3    H252746   0.692   5.578  17.020  0.9485 -0.7696 -0.0985
10419TIP3   OH252747   0.254   4.176  15.356 -0.1354  0.1151 -0.0626
10419TIP3    H152748   0.269   4.262  15.395 -0.5141  0.5472 -0.8654
10419TIP3    H252749   0.181   4.139  15.406 -0.3475  0.4968 -0.0922
10420TIP3   OH252750   5.973   6.664   5.373 -0.4107  0.3343  0.3835
10420TIP3    H152751   5.896   6.707   5.410 -1.6803 -0.7701 -0.9707
10420TIP3    H252752   5.965   6.676   5.279 -0.0726 -1.7304  0.0891
10421TIP3   OH252753   2.606   1.685   5.808  0.1568  0.4169  0.8146
10421TIP3    H152754   2.554   1.764   5.791 -0.2824  0.1658  0.9765
10421TIP3    H252755   2.545   1.613   5.791  0.7490  0.1022  0.0231
10422TIP3   OH252756   1.691   2.771  13.665 -0.3807 -0.3484  0.0954
10422TIP3    H152757   1.690   2.694  13.607  1.1760  0.4021 -0.9490
10422TIP3    H252758   1.634   2.746  13.738 -1.1321 -1.9064 -0.9836
10423TIP3   OH252759   2.913   3.797   1.638  0.4231  0.4495 -0.1417
10423TIP3    H152760   2.877   3.877   1.600  1.5358  1.0470  0.0347
10423TIP3    H252761   2.923   3.817   1.731  2.2410  0.6850 -0.3759
10424TIP3   OH252762   1.219   2.528  14.454  0.4154  0.1321  0.5687
10424TIP3    H152763   1.249   2.619  14.453  0.6925  0.0381  0.3273
10424TIP3    H252764   1.189   2.514  14.544  1.2970  0.1648  0.8795
10425TIP3   OH252765   3.519   3.305   4.043 -0.1425  0.5616  0.3934
10425TIP3    H152766   3.495   3.378   4.101 -0.1490  1.2269 -0.4407
10425TIP3    H252767   3.467   3.319   3.964 -0.0193 -0.2662  0.1601
10426TIP3   OH252768   1.346   4.944   0.395 -0.1409  0.1771  0.0364
10426TIP3    H152769   1.324   4.851   0.405 -0.2622  0.2381  0.3726
10426TIP3    H252770   1.362   4.974   0.485 -1.6951  0.8633  0.1174
10427TIP3   OH252771   6.641   0.472   4.975 -0.0233  0.1265 -0.4800
10427TIP3    H152772   6.651   0.488   5.069  1.0444 -1.7371 -0.2640
10427TIP3    H252773   6.726   0.495   4.938  0.3844 -1.6429 -0.6389
10428TIP3   OH252774   0.761   0.321   1.092  0.0208 -0.2787 -0.5367
10428TIP3    H152775   0.803   0.405   1.110  2.2072 -0.8020 -2.9023
10428TIP3    H252776   0.673   0.330   1.129  0.5616  2.6546  0.1783
10429TIP3   OH252777   2.167   3.051  14.961  0.2181  0.1440  0.6302
10429TIP3    H152778   2.147   3.096  14.878  1.2317  0.8257  0.7498
10429TIP3    H252779   2.261   3.065  14.974  0.2710 -0.8551  1.3720
10430TIP3   OH252780   0.258   2.280  12.254 -0.3452 -0.5562 -0.1877
10430TIP3    H152781   0.242   2.189  12.229  3.3129 -1.0817 -0.9595
10430TIP3    H252782   0.333   2.306  12.200  0.6778  1.8764  2.3247
10431TIP3   OH252783   3.188   6.263  13.948  0.0846  0.2166 -0.3416
10431TIP3    H152784   3.102   6.250  13.908  0.8720 -0.0999 -1.9926
10431TIP3    H252785   3.249   6.226  13.884  1.3286 -1.0519  1.5512
10432TIP3   OH252786   2.111   2.264  11.298 -0.0475  0.0888  0.4890
10432TIP3    H152787   2.067   2.188  11.260 -0.4436 -0.4806  2.0447
10432TIP3    H252788   2.063   2.339  11.263  0.7888 -0.3388 -1.6024
10433TIP3   OH252789   3.231   1.258  11.831  0.4373  0.1432  0.0878
10433TIP3    H152790   3.227   1.229  11.740 -1.5813  1.8939 -0.4184
10433TIP3    H252791   3.209   1.180  11.882  1.1712 -0.7428 -0.9227
10434TIP3   OH252792   0.525   1.694  13.208 -0.1910 -0.1628 -0.1417
10434TIP3    H152793   0.510   1.786  13.186 -0.8499 -0.2659 -0.1171
10434TIP3    H252794   0.605   1.671  13.161 -0.0229  0.4234 -0.1455
10435TIP3   OH252795   2.656   2.774  15.987  0.1355  0.0200  0.2265
10435TIP3    H152796   2.664   2.693  15.936 -2.7064 -0.8203  0.9950
10435TIP3    H252797   2.651   2.744  16.078  1.3067  1.2348  0.7091
10436TIP3   OH252798   5.373   6.683  16.668  0.0930  0.3999  0.1017
10436TIP3    H152799   5.426   6.731  16.603  0.2613 -0.7155 -0.5918
10436TIP3    H252800   5.283   6.693  16.637  0.1754 -0.1517 -0.3167
10437TIP3   OH252801   0.239   0.923  13.696 -0.5496  0.3798  0.0483
10437TIP3    H152802   0.259   1.014  13.720 -0.7023  0.3062  0.4606
10437TIP3    H252803   0.196   0.887  13.774  2.2441 -0.9796  1.0242
10438TIP3   OH252804   2.219   5.992   4.931  0.0626  0.4459  0.7061
10438TIP3    H152805   2.151   6.049   4.969 -0.0118 -0.1021  1.3931
10438TIP3    H252806   2.238   5.928   4.999 -0.0572 -0.5424 -0.1749
10439TIP3   OH252807   5.336   0.469   1.510  0.2314  0.0592  0.3120
10439TIP3    H152808   5.426   0.503   1.507  0.0895  0.4203  0.0697
10439TIP3    H252809   5.285   0.539   1.551  0.0553 -0.1250  0.4074
10440TIP3   OH252810   1.213   3.379  12.379 -0.4494  0.2985  0.5676
10440TIP3    H152811   1.179   3.464  12.408  0.3402  0.7699  0.1151
10440TIP3    H252812   1.231   3.332  12.460 -1.9133  0.1454  0.8273
10441TIP3   OH252813   5.448   4.696   4.953 -0.6953  0.1936  0.7487
10441TIP3    H152814   5.512   4.696   4.881 -1.2224 -0.8979  0.2739
10441TIP3    H252815   5.500   4.672   5.030 -0.1783  1.1153  0.6989
10442TIP3   OH252816   6.344   6.652  13.804  0.0317 -0.7963 -0.3170
10442TIP3    H152817   6.383   6.641  13.890 -0.7868 -1.4473 -0.0183
10442TIP3    H252818   6.303   6.567  13.785 -1.3388 -0.0937 -0.5594
10443TIP3   OH252819   3.380   2.186   1.734  1.0887 -0.3382 -0.2082
10443TIP3    H152820   3.285   2.177   1.738  1.0010  0.4119 -0.5882
10443TIP3    H252821   3.401   2.249   1.803  1.2694 -0.2014 -0.3878
10444TIP3   OH252822   2.048   2.382  16.849 -0.1491 -0.2899  0.2026
10444TIP3    H152823   1.968   2.342  16.882 -0.9322  0.9569 -0.1335
10444TIP3    H252824   2.018   2.454  16.793  1.1844 -0.9926 -1.4466
10445TIP3   OH252825   0.924   1.741  14.347 -0.2190  0.0963 -0.4386
10445TIP3    H152826   0.921   1.832  14.374  1.5746 -0.4756  1.8873
10445TIP3    H252827   0.847   1.701  14.388  0.2786  0.0686  0.4589
10446TIP3   OH252828   5.526   2.871  14.789 -0.0094  0.2662  0.2285
10446TIP3    H152829   5.543   2.853  14.697 -0.6312  1.2296 -0.0766
10446TIP3    H252830   5.437   2.905  14.792  0.1512  0.6425  1.1298
10447TIP3   OH252831   4.235   2.674  12.496  0.1765 -0.4817 -0.1645
10447TIP3    H152832   4.148   2.706  12.473  0.7393  0.8941 -0.4529
10447TIP3    H252833   4.243   2.590  12.451 -1.0778 -0.7107  0.0357
10448TIP3   OH252834   4.806   6.242  15.141  0.3827 -0.3762 -0.3589
10448TIP3    H152835   4.812   6.177  15.211  0.1936 -1.9855 -1.7870
10448TIP3    H252836   4.893   6.283  15.139  0.4684 -0.5010  0.6490
10449TIP3   OH252837   4.727   0.834  12.332 -0.3194  0.2813 -0.4191
10449TIP3    H152838   4.696   0.759  12.282  2.2896  1.3866 -3.8327
10449TIP3    H252839   4.734   0.905  12.268  1.4203  2.2558  1.8611
10450TIP3   OH252840   2.753   5.133   0.207 -0.4891  0.1941 -0.5690
10450TIP3    H152841   2.732   5.126   0.114 -0.8896  0.5307 -0.5081
10450TIP3    H252842   2.677   5.178   0.245  0.8183  2.4373 -0.5170
10451TIP3   OH252843   2.613   4.889  11.772 -0.0864  0.5919  0.0689
10451TIP3    H152844   2.532   4.922  11.812  0.4060  0.2277  1.3902
10451TIP3    H252845   2.635   4.812  11.824  0.8280  0.3746 -0.6313
10452TIP3   OH252846   5.098   0.573  16.325  0.2711 -0.0777 -0.2883
10452TIP3    H152847   5.179   0.592  16.278  0.9123 -0.8213  0.4918
10452TIP3    H252848   5.030   0.617  16.274  1.3444  1.8760 -0.0867
10453TIP3   OH252849   0.396   4.142   3.681  0.3271  0.6723 -0.1365
10453TIP3    H152850   0.443   4.108   3.605 -2.2137 -1.1978 -0.9560
10453TIP3    H252851   0.359   4.225   3.651  0.2284  0.4604 -0.6093
10454TIP3   OH252852   0.376   2.869  10.871 -0.0717 -0.1194  0.9412
10454TIP3    H152853   0.283   2.881  10.850 -0.2117  2.2474  2.7381
10454TIP3    H252854   0.422   2.891  10.790 -0.9187  2.5441  1.1457
10455TIP3   OH252855   4.365   2.364  15.411  0.4867  0.8980 -0.1965
10455TIP3    H152856   4.427   2.309  15.362  0.2245  1.2313 -0.9189
10455TIP3    H252857   4.356   2.321  15.496  3.3284  1.9366  0.7217
10456TIP3   OH252858   0.605   4.106  15.528  0.1115 -0.1667 -0.1792
10456TIP3    H152859   0.649   4.186  15.496  2.4095 -1.8958 -1.4984
10456TIP3    H252860   0.522   4.138  15.564  1.4596  2.9708  0.3939
10457TIP3   OH252861   5.458   0.122   1.004 -0.1645 -0.0551 -0.2955
10457TIP3    H152862   5.438   0.146   0.913 -1.5076 -2.6718 -0.7418
10457TIP3    H252863   5.425   0.195   1.056 -2.2053  0.0754 -1.7180
10458TIP3   OH252864   5.816   4.788   6.588  0.2389  0.4027  0.0280
10458TIP3    H152865   5.826   4.831   6.673  0.6845  0.2029  0.0767
10458TIP3    H252866   5.784   4.701   6.608  1.0052  0.1165  0.0385
10459TIP3   OH252867   6.793   3.462  14.583 -0.5910 -0.0840 -0.1320
10459TIP3    H152868   6.824   3.543  14.541 -1.0500 -0.2828 -0.8506
10459TIP3    H252869   6.873   3.411  14.597 -0.4683 -0.1281 -0.9877
10460TIP3   OH252870   1.617   5.091  13.155  0.0885 -0.1664  0.1139
10460TIP3    H152871   1.572   5.150  13.216  0.9409  0.0140  0.5688
10460TIP3    H252872   1.694   5.139  13.127  0.4664 -0.8292  0.0144
10461TIP3   OH252873   6.706   6.571  12.058 -0.4416  0.2207 -0.4612
10461TIP3    H152874   6.749   6.590  11.975  1.1327 -1.9984 -0.2221
10461TIP3    H252875   6.723   6.648  12.112  0.2942  0.8269 -1.5413
10462TIP3   OH252876   3.951   0.969  16.858  0.3212  0.0540 -0.0528
10462TIP3    H152877   3.911   1.024  16.790  2.9620  1.2415 -0.7263
10462TIP3    H252878   3.897   0.983  16.935 -0.4707  1.7443 -0.8865
10463TIP3   OH252879   5.375   2.928   2.303 -0.7762  0.6322  0.0421
10463TIP3    H152880   5.312   2.948   2.372 -3.7310  0.0447 -2.3927
10463TIP3    H252881   5.350   2.842   2.271  1.2255  0.4218 -1.0571
10464TIP3   OH252882   2.156   6.088   2.825 -0.4160  0.3278 -0.0293
10464TIP3    H152883   2.248   6.113   2.815 -0.4274  0.5181  0.3084
10464TIP3    H252884   2.109   6.142   2.762 -0.5115  1.6031  1.1099
10465TIP3   OH252885   3.519   5.085   1.689 -0.2362  0.1535  0.0130
10465TIP3    H152886   3.435   5.121   1.719  0.2780 -0.3301  2.1097
10465TIP3    H252887   3.570   5.162   1.664 -1.4299  0.4258 -1.7018
10466TIP3   OH252888   3.435   0.493  13.609 -1.0546 -0.7222  0.2227
10466TIP3    H152889   3.356   0.452  13.643 -0.5516 -3.7623 -2.0266
10466TIP3    H252890   3.499   0.422  13.605  1.0804  1.1612 -0.2212
10467TIP3   OH252891   1.969   5.329   2.003 -0.1400  0.4692 -0.3928
10467TIP3    H152892   1.975   5.424   1.994  0.4619  0.5197  0.3940
10467TIP3    H252893   2.056   5.298   1.979 -0.2664  0.1369 -0.4145
10468TIP3   OH252894   3.792   4.933   1.984  0.1134  0.5208  0.3542
10468TIP3    H152895   3.817   5.014   1.940  0.4706 -0.1850 -0.7646
10468TIP3    H252896   3.864   4.873   1.966 -0.6781 -0.3922  0.2230
10469TIP3   OH252897   6.103   5.292  12.094  0.0159 -0.0774  0.0659
10469TIP3    H152898   6.197   5.275  12.089 -0.2784 -2.0149  0.4338
10469TIP3    H252899   6.075   5.248  12.175 -1.4635 -0.9214 -0.8590
10470TIP3   OH252900   6.494   5.474   3.807  0.3236  0.1672 -0.4770
10470TIP3    H152901   6.512   5.412   3.736  0.7328  0.1450 -0.3548
10470TIP3    H252902   6.508   5.560   3.768 -0.7825  0.2112 -0.8025
10471TIP3   OH252903   4.071   6.443   5.383  0.6252 -0.5577  0.2088
10471TIP3    H152904   4.025   6.374   5.336 -0.0329 -1.2279  1.8203
10471TIP3    H252905   4.002   6.501   5.415  0.9375 -1.0714  1.8491
10472TIP3   OH252906   4.786   4.406  12.856 -0.1126  0.5184  0.5268
10472TIP3    H152907   4.707   4.356  12.839 -0.7160  2.1030 -1.5906
10472TIP3    H252908   4.799   4.400  12.951 -2.8837  0.4408  0.9346
10473TIP3   OH252909   2.745   2.951   2.246 -0.2710  0.0362  0.3130
10473TIP3    H152910   2.734   2.884   2.178 -1.0532 -0.5343  0.9850
10473TIP3    H252911   2.834   2.983   2.235 -1.0980  1.5879 -2.4658
10474TIP3   OH252912   0.834   3.647   2.336  0.1303  0.3411  0.5149
10474TIP3    H152913   0.919   3.635   2.294  0.5722 -1.3175  1.8215
10474TIP3    H252914   0.844   3.606   2.422 -1.8287  0.6102  0.8886
10475TIP3   OH252915   6.574   0.760   1.000 -0.0616  0.0290  0.3879
10475TIP3    H152916   6.497   0.781   0.947 -0.5587 -3.0594 -0.2053
10475TIP3    H252917   6.539   0.737   1.086  0.0549 -2.3623 -0.1681
10476TIP3   OH252918   4.607   5.699  12.562 -0.5688 -0.4800  0.8666
10476TIP3    H152919   4.698   5.703  12.593 -0.0427  0.9410 -0.7993
10476TIP3    H252920   4.563   5.770  12.608  0.3082  1.8948 -1.8222
10477TIP3   OH252921   0.569   1.195   3.635  0.5062  0.4962 -0.4904
10477TIP3    H152922   0.556   1.231   3.547  1.4334  0.0592 -0.8111
10477TIP3    H252923   0.484   1.205   3.677 -0.0136  0.4974 -1.5171
10478TIP3   OH252924   4.435   3.251  16.187  0.1521 -0.1254 -0.1219
10478TIP3    H152925   4.356   3.237  16.238  0.6190 -0.0433  0.6373
10478TIP3    H252926   4.412   3.320  16.125 -1.1746 -1.9349 -1.7006
10479TIP3   OH252927   6.183   1.170  13.044  0.3599  0.5155 -0.3119
10479TIP3    H152928   6.116   1.101  13.039  0.1495  0.5615  1.4865
10479TIP3    H252929   6.133   1.252  13.044  0.4150  0.5584  0.7539
10480TIP3   OH252930   3.236   0.631   0.352  0.1497  0.2707 -0.1529
10480TIP3    H152931   3.280   0.567   0.295  0.5280  1.0195 -0.7053
10480TIP3    H252932   3.182   0.683   0.293 -2.0294 -1.0526  0.6044
10481TIP3   OH252933   4.021   6.002  15.663 -0.1298 -0.0495  0.2424
10481TIP3    H152934   3.933   5.975  15.638  0.5310 -1.2023 -0.8335
10481TIP3    H252935   4.043   5.947  15.738 -0.1918  0.0104  0.3044
10482TIP3   OH252936   4.050   4.458   0.424 -0.1492  0.5367 -0.4216
10482TIP3    H152937   4.114   4.448   0.354  1.9005 -0.1773  1.4943
10482TIP3    H252938   4.102   4.484   0.500 -2.2197  0.4631  1.0592
10483TIP3   OH252939   5.856   5.611  15.207 -0.7431 -0.4626 -0.0246
10483TIP3    H152940   5.817   5.523  15.210 -0.8498 -0.3904  1.7775
10483TIP3    H252941   5.933   5.601  15.152 -1.4832 -1.3827 -0.9152
10484TIP3   OH252942   6.711   5.692  12.048  0.2849 -0.5202  0.6469
10484TIP3    H152943   6.783   5.673  11.989  0.8339 -0.8694  1.4182
10484TIP3    H252944   6.652   5.747  11.998  1.8734  1.1149  0.5381
10485TIP3   OH252945   3.838   4.715  16.549  0.1818 -0.2584  0.0393
10485TIP3    H152946   3.882   4.718  16.465  1.4318  0.9779  0.7205
10485TIP3    H252947   3.817   4.623  16.562  3.2201 -0.9950  0.0387
10486TIP3   OH252948   2.982   2.687  13.789 -0.0294  0.1123 -0.3487
10486TIP3    H152949   3.007   2.606  13.833 -3.4531 -1.4140 -1.0781
10486TIP3    H252950   3.010   2.675  13.698 -1.5656 -0.7737 -0.7194
10487TIP3   OH252951   4.299   0.915  14.811 -0.2921 -0.4067 -0.0370
10487TIP3    H152952   4.230   0.893  14.874 -0.7684  1.6250  0.1831
10487TIP3    H252953   4.255   0.918  14.726  0.2721 -2.7498 -0.4358
10488TIP3   OH252954   2.824   0.924  14.951  0.1262 -0.1500  1.1117
10488TIP3    H152955   2.842   0.967  14.868 -0.2950  0.5471  1.3823
10488TIP3    H252956   2.886   0.851  14.955  0.1775 -0.1517  0.2115
10489TIP3   OH252957   5.562   0.622   1.568 -0.0685  0.4842  0.4413
10489TIP3    H152958   5.526   0.665   1.491  0.4161  1.4012  0.7205
10489TIP3    H252959   5.657   0.630   1.559  0.0393 -0.7006  0.4074
10490TIP3   OH252960   1.238   0.255   0.363 -0.2045 -0.3220 -0.2835
10490TIP3    H152961   1.297   0.322   0.328 -1.0608  1.9453  2.4410
10490TIP3    H252962   1.225   0.194   0.291  2.4407  1.2073 -2.1157
10491TIP3   OH252963   4.670   1.266  15.442  0.2322 -0.1776  0.0326
10491TIP3    H152964   4.584   1.284  15.405  0.5415 -1.0809 -1.1776
10491TIP3    H252965   4.653   1.243  15.533 -0.6955  0.6904  0.0806
10492TIP3   OH252966   0.730   6.485   2.005  0.1781  0.2019  0.3561
10492TIP3    H152967   0.804   6.425   2.001  1.6895  1.7809  3.1863
10492TIP3    H252968   0.740   6.542   1.929  1.9076  0.4484  0.7587
10493TIP3   OH252969   1.304   5.613  13.275  0.1013 -0.2210 -0.3102
10493TIP3    H152970   1.380   5.644  13.225 -0.4721  1.0904 -0.3882
10493TIP3    H252971   1.341   5.553  13.340  1.0122 -0.9143 -1.4374
10494TIP3   OH252972   3.656   4.928   2.688  0.2858  0.2725  0.1281
10494TIP3    H152973   3.679   5.008   2.736 -1.4838  2.5114 -2.5971
10494TIP3    H252974   3.625   4.959   2.603 -3.9893 -3.0318  0.3130
10495TIP3   OH252975   4.569   2.542   4.598  0.0648  0.0498  0.5584
10495TIP3    H152976   4.572   2.493   4.516 -0.8981  1.9176 -0.6352
10495TIP3    H252977   4.547   2.477   4.665 -0.6468 -1.2373 -0.9029
10496TIP3   OH252978   2.677   4.686  13.599  0.1793  0.2537 -0.6421
10496TIP3    H152979   2.757   4.696  13.547  0.7022  0.2139  0.1406
10496TIP3    H252980   2.663   4.591  13.602  0.3684  0.2323 -0.3908
10497TIP3   OH252981   2.011   5.504  13.288 -0.3552 -0.1914 -0.4789
10497TIP3    H152982   2.065   5.547  13.354 -0.5895  0.2275 -0.5593
10497TIP3    H252983   1.938   5.467  13.337 -0.5518  0.1570 -0.5111
10498TIP3   OH252984   0.278   3.291  13.874 -0.6757 -0.0088  0.6382
10498TIP3    H152985   0.310   3.275  13.963 -1.1115 -0.1709  0.7734
10498TIP3    H252986   0.183   3.296  13.884 -0.6931  0.4967  0.2595
10499TIP3   OH252987   3.571   0.099  15.013 -0.4933  0.0401 -0.0320
10499TIP3    H152988   3.510   0.044  14.963 -0.2641 -0.2357 -0.0129
10499TIP3    H252989   3.622   0.145  14.947 -1.7446  1.4232 -0.0474
10500TIP3   OH252990   0.510   6.719   0.584  0.1346 -0.2543 -0.9848
10500TIP3    H152991   0.466   6.802   0.604  2.5421  0.4609  1.8923
10500TIP3    H252992   0.496   6.665   0.662  0.6337 -1.6445 -1.8351
10501TIP3   OH252993   0.987   5.934  14.772  0.2552  0.2791 -0.8826
10501TIP3    H152994   0.944   5.897  14.849 -0.4606  1.3183 -0.7764
10501TIP3    H252995   1.074   5.960  14.804 -0.9974  3.2366  0.3036
10502TIP3   OH252996   1.133   5.369  13.101 -0.1627 -0.2423  0.4599
10502TIP3    H152997   1.161   5.279  13.084 -1.6010 -0.2107 -2.2641
10502TIP3    H252998   1.214   5.417  13.117  0.7264 -1.7288  0.5010
10503TIP3   OH252999   3.144   4.967  10.977  1.0342  0.0917 -0.4694
10503TIP3    H153000   3.207   4.926  10.918  0.3531 -0.5632 -0.7501
10503TIP3    H253001   3.060   4.962  10.930  0.6047  0.1238  0.2887
10504TIP3   OH253002   2.331   2.205  10.863  0.3592 -0.3803 -0.3213
10504TIP3    H153003   2.290   2.292  10.860 -1.1165 -1.0372 -0.0750
10504TIP3    H253004   2.260   2.145  10.839  1.7387 -1.4098 -1.9305
10505TIP3   OH253005   2.197   0.728   1.467 -0.7502 -0.2127 -0.1087
10505TIP3    H153006   2.235   0.661   1.411 -0.6106  0.4487 -0.8118
10505TIP3    H253007   2.263   0.797   1.472 -1.1796  0.2001  0.0201
10506TIP3   OH253008   5.161   6.712  13.760 -0.3803 -0.5883 -0.0339
10506TIP3    H153009   5.065   6.714  13.754 -0.2195  0.9844 -2.4434
10506TIP3    H253010   5.190   6.683  13.674  1.3725  0.8881  0.0335
10507TIP3   OH253011   2.168   0.173  15.412  0.0972 -0.2046 -0.3573
10507TIP3    H153012   2.153   0.183  15.319 -0.9940  2.9487  0.1182
10507TIP3    H253013   2.242   0.231  15.431  0.9553 -1.5639  0.5919
10508TIP3   OH253014   1.819   3.485   3.627 -0.4143  0.4267  0.3381
10508TIP3    H153015   1.894   3.502   3.685 -0.0238 -1.5391  0.4329
10508TIP3    H253016   1.858   3.465   3.542 -0.9014  0.9859 -0.0191
10509TIP3   OH253017   1.954   6.480   0.073  0.5491  0.5307 -0.2862
10509TIP3    H153018   1.998   6.398   0.046  0.7839  0.6143 -0.1624
10509TIP3    H253019   1.958   6.478   0.168  1.3456  1.1103 -0.2982
10510TIP3   OH253020   4.528   1.559  13.778 -0.0343 -0.0566  0.1038
10510TIP3    H153021   4.613   1.602  13.781 -0.5766  0.9244  2.5160
10510TIP3    H253022   4.486   1.595  13.700  1.8144 -0.7317 -1.2572
10511TIP3   OH253023   0.529   2.610  12.992 -0.0723 -0.1611 -0.3955
10511TIP3    H153024   0.583   2.689  13.000  0.7653 -0.7927  0.2972
10511TIP3    H253025   0.451   2.629  13.045  0.5581 -0.1591  0.5425
10512TIP3   OH253026   4.493   4.050  13.051 -0.2651  0.1974  0.1137
10512TIP3    H153027   4.555   4.007  13.109  0.4890  1.3488  0.1839
10512TIP3    H253028   4.420   3.989  13.044  0.4207 -0.7252  0.8482
10513TIP3   OH253029   4.888   4.513   4.789 -0.3692 -0.0003 -0.3722
10513TIP3    H153030   4.844   4.430   4.808 -0.3389 -0.3350 -1.6811
10513TIP3    H253031   4.923   4.502   4.700 -0.8844  1.6348 -0.8006
10514TIP3   OH253032   3.646   0.599   2.822  0.2901 -0.2087 -0.3498
10514TIP3    H153033   3.597   0.517   2.830 -0.4293  0.0235 -1.9917
10514TIP3    H253034   3.600   0.660   2.879  0.8464 -0.9527  0.9042
10515TIP3   OH253035   0.808   6.520   6.662 -0.2699  0.0709  0.3453
10515TIP3    H153036   0.862   6.569   6.601  0.6105  0.1107  1.1473
10515TIP3    H253037   0.795   6.580   6.736  1.2839 -1.0803  1.5880
10516TIP3   OH253038   5.416   3.636   5.702 -0.3619 -0.1559 -0.2353
10516TIP3    H153039   5.338   3.688   5.681 -1.6456 -2.0354 -0.1822
10516TIP3    H253040   5.384   3.546   5.706  1.4490 -0.7383  1.6565
10517TIP3   OH253041   0.971   6.455   0.145  0.2233  0.3475  0.1911
10517TIP3    H153042   0.912   6.523   0.112 -0.6870  0.0366  1.1591
10517TIP3    H253043   0.968   6.464   0.240 -0.9708 -1.9292  0.4064
10518TIP3   OH253044   5.620   2.187   2.690 -0.1821  0.0713  0.5194
10518TIP3    H153045   5.643   2.170   2.598 -1.0219  1.0159  0.1164
10518TIP3    H253046   5.701   2.219   2.729  0.3898 -1.1260  0.3120
10519TIP3   OH253047   0.230   5.118  13.672 -0.1547  0.4457  0.3035
10519TIP3    H153048   0.181   5.041  13.702 -0.4905  0.3845 -0.3926
10519TIP3    H253049   0.322   5.093  13.684 -0.2427 -0.3844 -0.6842
10520TIP3   OH253050   1.074   3.372   4.027 -0.1374 -0.1360  0.1574
10520TIP3    H153051   1.153   3.403   4.071 -0.1600  0.8242 -0.4642
10520TIP3    H253052   1.008   3.438   4.048 -0.3710 -0.1278 -0.5995
10521TIP3   OH253053   6.216   5.833   5.875  0.2285 -0.4233 -0.0469
10521TIP3    H153054   6.263   5.873   5.948  0.7663  0.5479 -0.9037
10521TIP3    H253055   6.160   5.903   5.841 -1.3470 -1.3832  0.5419
10522TIP3   OH253056   5.367   0.626   4.738 -0.3765  0.2423  0.0934
10522TIP3    H153057   5.277   0.613   4.710 -0.2189  0.7931 -0.7165
10522TIP3    H253058   5.362   0.638   4.833 -1.1653  0.3981  0.0341
10523TIP3   OH253059   0.901   1.148   0.177 -0.5725 -0.4514 -0.2547
10523TIP3    H153060   0.880   1.239   0.199 -2.6861 -1.4680  2.1653
10523TIP3    H253061   0.996   1.145   0.181 -0.5238  1.3603  0.9746
10524TIP3   OH253062   0.394   2.346  15.317  0.1263  0.2577 -0.2803
10524TIP3    H153063   0.349   2.264  15.334 -0.0980  0.3321 -0.5141
10524TIP3    H253064   0.342   2.389  15.249  0.1019  0.7021  0.0096
10525TIP3   OH253065   4.247   4.923  15.617  0.0813 -0.1426 -0.0300
10525TIP3    H153066   4.178   4.937  15.681  0.1293 -0.0147 -0.0060
10525TIP3    H253067   4.242   4.830  15.595  0.9274 -0.4781  1.1661
10526TIP3   OH253068   6.575   0.689  16.938 -0.1970 -0.1760 -0.6317
10526TIP3    H153069   6.551   0.650  17.022  0.5473  0.0433 -0.3094
10526TIP3    H253070   6.520   0.645  16.874 -1.6793  0.5524  0.1210
10527TIP3   OH253071   3.612   2.091   3.062  0.0314 -0.0316  0.2546
10527TIP3    H153072   3.550   2.098   2.989 -0.3263  1.1228  0.6702
10527TIP3    H253073   3.615   1.997   3.081 -0.3653 -0.2725 -0.8147
10528TIP3   OH253074   3.506   2.829  11.502  0.0548 -0.0034  0.4637
10528TIP3    H153075   3.457   2.776  11.565  0.5430 -1.4405 -0.3414
10528TIP3    H253076   3.447   2.838  11.427  0.6081 -0.8098 -0.0671
10529TIP3   OH253077   2.849   5.122   3.703  0.6514  0.4782 -0.2407
10529TIP3    H153078   2.880   5.064   3.633  0.9240  0.1347  0.1551
10529TIP3    H253079   2.802   5.064   3.763  0.2880  0.7965 -0.2164
10530TIP3   OH253080   5.303   1.418  16.543 -0.2482  0.4003  1.0870
10530TIP3    H153081   5.280   1.418  16.636  2.0457  1.0299  1.6774
10530TIP3    H253082   5.354   1.337  16.531  0.8059  1.1049  0.7487
10531TIP3   OH253083   0.028   4.892   2.948  0.4875  0.6155 -0.3655
10531TIP3    H153084  -0.036   4.959   2.972  0.2678  0.1896  0.2433
10531TIP3    H253085  -0.004   4.812   2.989  0.0485 -0.1567 -2.1640
10532TIP3   OH253086   0.972   6.699   1.230  0.2777 -0.1573 -0.5625
10532TIP3    H153087   1.002   6.788   1.212 -1.4457  0.2802 -1.4633
10532TIP3    H253088   1.023   6.644   1.171  1.0945  0.2744 -0.2630
10533TIP3   OH253089   1.806   4.565   3.278  0.2265 -0.0076  0.2231
10533TIP3    H153090   1.869   4.611   3.223  0.9329  0.1887  1.1929
10533TIP3    H253091   1.783   4.627   3.347 -0.3038 -0.4153  0.4203
10534TIP3   OH253092   4.130   4.855   4.634  0.4382 -0.0362  0.1017
10534TIP3    H153093   4.046   4.822   4.667  0.2413  0.8589  0.5184
10534TIP3    H253094   4.136   4.820   4.545 -0.6535  0.3609 -0.1413
10535TIP3   OH253095   2.675   6.229   2.668 -0.0352 -0.1423 -0.6563
10535TIP3    H153096   2.747   6.291   2.668  1.3897 -1.6773 -3.6647
10535TIP3    H253097   2.711   6.150   2.708 -1.1643  0.1923  1.0948
10536TIP3   OH253098   4.639   1.376   5.426 -0.0928 -0.1523 -0.2124
10536TIP3    H153099   4.631   1.340   5.338  1.7061 -1.6367  0.2044
10536TIP3    H253100   4.662   1.468   5.412 -0.5620 -0.1915 -1.2746
10537TIP3   OH253101   5.606   1.212  11.457  0.1567  0.2204 -0.4104
10537TIP3    H153102   5.538   1.146  11.473 -0.2032  0.3483 -1.4150
10537TIP3    H253103   5.569   1.269  11.390 -0.1336  2.3509  1.5209
10538TIP3   OH253104   5.655   4.433   4.346  0.4878  0.4701 -0.2005
10538TIP3    H153105   5.574   4.383   4.348  0.8784 -0.1790 -0.3721
10538TIP3    H253106   5.632   4.519   4.380 -0.2313  0.2275 -0.0807
10539TIP3   OH253107   3.847   3.919  12.734 -0.0544 -0.6077 -0.8758
10539TIP3    H153108   3.806   3.834  12.751 -1.9698  0.0733 -1.8699
10539TIP3    H253109   3.793   3.981  12.783  1.9453 -0.0562  0.6651
10540TIP3   OH253110   6.509   3.273   1.222 -0.2734  0.5991 -0.2402
10540TIP3    H153111   6.492   3.272   1.316  0.3266 -1.0213 -0.1295
10540TIP3    H253112   6.562   3.351   1.208  1.1554 -0.0990  1.0731
10541TIP3   OH253113   2.638   1.276  14.801  0.8899  0.4399  0.2190
10541TIP3    H153114   2.614   1.193  14.761 -1.1363  1.4694 -0.8000
10541TIP3    H253115   2.731   1.267  14.823  1.2745 -1.2431 -1.9734
10542TIP3   OH253116   3.875   1.122  17.241 -0.1996 -0.4038 -0.7125
10542TIP3    H153117   3.936   1.188  17.207 -0.1379 -0.5457 -0.8814
10542TIP3    H253118   3.919   1.039  17.224  0.6557 -0.3948  1.3818
10543TIP3   OH253119   5.975   0.029  13.602  0.8362  0.4575  0.0093
10543TIP3    H153120   5.908   0.097  13.609  0.7772  0.5195 -1.0286
10543TIP3    H253121   5.947  -0.038  13.664 -1.7899 -0.8093 -2.3804
10544TIP3   OH253122   5.383   3.635   1.364  0.4049 -0.5880  0.5292
10544TIP3    H153123   5.302   3.599   1.401  0.9371 -0.6988  1.6287
10544TIP3    H253124   5.365   3.645   1.271 -1.5719  1.3165  1.0702
10545TIP3   OH253125   0.927   3.734   2.631 -0.0241  0.4878 -0.0531
10545TIP3    H153126   0.977   3.784   2.696 -1.5766  1.7299  0.2125
10545TIP3    H253127   0.855   3.792   2.607 -0.3484 -0.5881 -1.7334
10546TIP3   OH253128   3.878   1.453   0.472 -0.2403  0.6172  0.0810
10546TIP3    H153129   3.906   1.426   0.560  0.8922 -0.5240 -0.6059
10546TIP3    H253130   3.825   1.531   0.486 -1.0036 -0.2130  1.8768
10547TIP3   OH253131   4.710   3.722  11.582 -0.0448  0.5526 -0.0072
10547TIP3    H153132   4.667   3.735  11.497 -0.4403  0.2078  0.1399
10547TIP3    H253133   4.763   3.801  11.594  0.8365  0.1479 -1.0572
10548TIP3   OH253134   5.783   4.543  11.098  0.2676 -0.4978 -0.3731
10548TIP3    H153135   5.826   4.466  11.136  2.6503  0.8000 -0.3037
10548TIP3    H253136   5.855   4.605  11.083 -1.6922  2.0324  0.3475
10549TIP3   OH253137   6.590   5.676  13.745  0.1976  0.1392 -0.8110
10549TIP3    H153138   6.538   5.609  13.789 -2.3916  2.7348  0.2402
10549TIP3    H253139   6.646   5.713  13.814  0.3485  0.2592 -0.9974
10550TIP3   OH253140   3.737   6.556  13.471  0.0514 -0.1896 -0.3748
10550TIP3    H153141   3.805   6.619  13.497 -0.0806 -0.0434 -0.3757
10550TIP3    H253142   3.708   6.516  13.553  1.7968 -1.9759 -0.6139
10551TIP3   OH253143   3.752   0.738   4.267  0.4488 -0.7673  0.6981
10551TIP3    H153144   3.803   0.658   4.251 -0.9645 -1.2597 -1.6434
10551TIP3    H253145   3.713   0.758   4.182 -0.5899  1.4758  1.6705
10552TIP3   OH253146   6.222   0.077   4.918 -0.0510  0.4554 -0.0578
10552TIP3    H153147   6.229  -0.006   4.870  1.3219  0.8425 -0.5748
10552TIP3    H253148   6.310   0.091   4.953 -0.3502  1.5534  0.2611
10553TIP3   OH253149   1.736   0.665  15.704  0.7470 -1.1936  0.1549
10553TIP3    H153150   1.708   0.747  15.664 -0.5125 -1.5664  0.2321
10553TIP3    H253151   1.682   0.598  15.662  2.9294 -2.2179 -1.1287
10554TIP3   OH253152   2.502   3.697   4.467 -0.2005 -0.4281  0.0215
10554TIP3    H153153   2.413   3.673   4.440  0.1387 -0.0530 -1.5087
10554TIP3    H253154   2.500   3.696   4.562 -1.1853 -2.8469  0.0014
10555TIP3   OH253155   1.104   2.661   2.366 -0.2528 -0.2681 -0.1489
10555TIP3    H153156   1.109   2.751   2.333 -1.0004  0.1340  0.7904
10555TIP3    H253157   1.094   2.607   2.288  0.8824  0.4007 -0.7757
10556TIP3   OH253158   1.408   6.029  11.852 -0.2293  0.0136  0.0039
10556TIP3    H153159   1.437   5.975  11.780 -1.1798  0.2255 -0.5468
10556TIP3    H253160   1.466   6.105  11.851 -0.6777  0.3495 -0.9752
10557TIP3   OH253161   5.116   1.455  12.587 -0.3480  0.3605 -0.5479
10557TIP3    H153162   5.207   1.473  12.612 -0.0740  0.1441 -1.3631
10557TIP3    H253163   5.083   1.397  12.655 -0.2222  1.3479  0.3554
10558TIP3   OH253164   4.823   2.126   4.032 -0.1212  0.7605  0.1758
10558TIP3    H153165   4.746   2.135   4.089 -0.5694 -0.6347 -0.1902
10558TIP3    H253166   4.881   2.067   4.080  1.8452  3.7342  1.5924
10559TIP3   OH253167   0.841   2.545  11.291  0.4514  1.1435 -0.5351
10559TIP3    H153168   0.870   2.573  11.204 -0.4650 -1.0850 -1.5877
10559TIP3    H253169   0.890   2.465  11.308 -0.6760  0.6066  0.2352
10560TIP3   OH253170   0.712   5.102  11.214 -0.1187 -0.0423  0.7786
10560TIP3    H153171   0.759   5.067  11.138 -0.3748  1.6153 -0.1643
10560TIP3    H253172   0.759   5.183  11.236 -2.2526  1.4600  0.0429
10561TIP3   OH253173   6.001   3.339  12.616 -0.1147 -0.1400 -0.6435
10561TIP3    H153174   6.020   3.269  12.555 -0.0451  1.4026 -2.4358
10561TIP3    H253175   5.921   3.380  12.583  1.0853  2.0459 -0.9568
10562TIP3   OH253176   4.849   1.520   1.697 -0.1183  0.3305 -0.2730
10562TIP3    H153177   4.830   1.455   1.628  2.7268  0.1181 -0.9256
10562TIP3    H253178   4.837   1.472   1.779 -4.2779  0.7827 -0.4762
10563TIP3   OH253179   4.291   3.589  15.348  0.6580  0.2100 -0.1694
10563TIP3    H153180   4.205   3.609  15.385  1.1691 -0.7294  1.5672
10563TIP3    H253181   4.353   3.631  15.407  1.4033  0.9946 -1.4855
10564TIP3   OH253182   3.493   2.379  16.966  0.0752 -0.6478 -0.0572
10564TIP3    H153183   3.456   2.290  16.968 -0.6366 -0.3510 -0.0726
10564TIP3    H253184   3.478   2.409  16.876  2.6285 -1.4870 -0.7957
10565TIP3   OH253185   5.975   6.142   1.953 -0.0811  0.1104 -0.1371
10565TIP3    H153186   5.911   6.125   1.884  1.0001 -0.3800 -1.0508
10565TIP3    H253187   6.047   6.081   1.934 -0.3339 -0.9543  2.2209
10566TIP3   OH253188   0.203   3.034  16.198  0.1447 -0.7077  0.3087
10566TIP3    H153189   0.277   3.094  16.193  1.9001 -2.9739 -1.9818
10566TIP3    H253190   0.132   3.081  16.155  0.6960  0.7821  0.9542
10567TIP3   OH253191   6.630   0.427  13.404  0.1438  0.4924 -0.3970
10567TIP3    H153192   6.573   0.351  13.390 -1.6349  1.8058 -0.3084
10567TIP3    H253193   6.669   0.444  13.318 -1.6150  1.2029 -1.0646
10568TIP3   OH253194   4.706   1.374  12.445 -0.1876 -0.0271 -0.5451
10568TIP3    H153195   4.794   1.400  12.420 -0.0499  0.1471  0.1313
10568TIP3    H253196   4.655   1.381  12.364  0.4861 -0.4386 -1.0073
10569TIP3   OH253197   0.911   4.190   4.358 -0.3451  0.5988  0.0857
10569TIP3    H153198   0.826   4.232   4.348  0.1485  2.1161  1.9730
10569TIP3    H253199   0.892   4.107   4.403 -0.9851  0.2111 -0.8977
10570TIP3   OH253200   3.773   4.713  14.443  0.3246 -0.2394 -0.4681
10570TIP3    H153201   3.752   4.788  14.388 -1.3819  0.4932  1.1112
10570TIP3    H253202   3.736   4.638  14.397 -1.2773  0.3886 -0.2433
10571TIP3   OH253203   6.754   0.700  13.172 -0.4312  0.6310  0.0430
10571TIP3    H153204   6.804   0.733  13.098  2.9267 -1.3442  1.3312
10571TIP3    H253205   6.734   0.609  13.149  1.8391 -0.4387  2.0509
10572TIP3   OH253206   1.046   6.813  14.831 -0.2379  0.0783  0.3080
10572TIP3    H153207   1.060   6.880  14.898  0.4032 -0.0799  0.3376
10572TIP3    H253208   1.040   6.863  14.749  2.2751  0.0377  0.0703
10573TIP3   OH253209   0.383   2.198   1.032  0.2187  0.0091  0.1705
10573TIP3    H153210   0.298   2.155   1.028 -2.2644  4.4893  1.2478
10573TIP3    H253211   0.389   2.247   0.950  2.0017 -0.7204 -0.1442
10574TIP3   OH253212   0.180   4.242  10.978 -0.0573 -0.2441  0.3348
10574TIP3    H153213   0.088   4.217  10.990  0.1341 -0.6073  1.0799
10574TIP3    H253214   0.200   4.297  11.054  0.5751 -0.8350  0.6032
10575TIP3   OH253215   1.656   1.511  12.364  0.1409  0.5577  0.9379
10575TIP3    H153216   1.718   1.439  12.359  0.9537  1.3695 -2.3324
10575TIP3    H253217   1.577   1.478  12.322  0.0254  1.0940  0.7275
10576TIP3   OH253218   1.259   5.199  15.950 -0.2733 -0.6512  0.1017
10576TIP3    H153219   1.301   5.285  15.951 -0.6464 -0.4356 -1.3743
10576TIP3    H253220   1.235   5.182  16.041  1.0261  0.1967  0.6110
10577TIP3   OH253221   5.914   3.569   5.344  0.0650 -0.0387  0.0827
10577TIP3    H153222   5.846   3.597   5.406 -0.1915 -0.1821 -0.1300
10577TIP3    H253223   5.912   3.473   5.350  0.9664 -0.0156  0.8356
10578TIP3   OH253224   3.842   2.914   4.467  0.0284  0.7704 -0.0959
10578TIP3    H153225   3.797   2.832   4.447 -0.8724  1.6110 -1.5775
10578TIP3    H253226   3.932   2.887   4.487 -0.1236 -0.5317 -1.0597
10579TIP3   OH253227   1.786   1.557  12.700  0.3045 -0.5680  0.1829
10579TIP3    H153228   1.766   1.629  12.639 -2.0634 -1.8899 -0.6616
10579TIP3    H253229   1.871   1.525  12.671  1.3636  1.8039  0.5061
10580TIP3   OH253230   0.775   2.637   5.342  0.1853 -0.1560 -0.3381
10580TIP3    H153231   0.681   2.638   5.358 -0.2369  1.3292 -2.6733
10580TIP3    H253232   0.784   2.657   5.249  2.8785  0.8939  0.0923
10581TIP3   OH253233   0.267   3.355   5.410 -0.8906 -0.0838  0.5055
10581TIP3    H153234   0.221   3.309   5.480  0.1877 -1.2202  0.4879
10581TIP3    H253235   0.203   3.361   5.339 -1.2389 -1.0376  0.7329
10582TIP3   OH253236   5.232   6.177   6.674  0.4352  0.1849 -0.6066
10582TIP3    H153237   5.167   6.150   6.609  0.5992 -0.7309 -0.4055
10582TIP3    H253238   5.183   6.186   6.755  0.5074 -0.2429 -0.5134
10583TIP3   OH253239   4.142   4.691   4.418 -0.3240  0.0607  0.1368
10583TIP3    H153240   4.220   4.637   4.403 -0.0201  0.0331  1.7381
10583TIP3    H253241   4.087   4.674   4.342  1.1193 -0.1143 -0.9098
10584TIP3   OH253242   3.651   1.280  13.521  0.7800 -0.0899 -0.3017
10584TIP3    H153243   3.698   1.307  13.600  0.5713 -0.9848  0.1218
10584TIP3    H253244   3.669   1.187  13.512  0.0385 -0.1870 -0.7981
10585TIP3   OH253245   1.231   6.506  13.153 -0.1846  0.4643 -0.6722
10585TIP3    H153246   1.295   6.577  13.157 -0.4695  0.6873  0.1370
10585TIP3    H253247   1.147   6.550  13.136 -0.6164  0.4995  1.4144
10586TIP3   OH253248   3.983   2.065  16.787  1.5817  0.2812 -0.3477
10586TIP3    H153249   4.022   2.054  16.701  1.6531 -0.0175 -0.2819
10586TIP3    H253250   3.890   2.076  16.770  1.4050 -1.1485 -0.3983
10587TIP3   OH253251   0.651   4.382   4.998  0.6248 -0.3378  0.0139
10587TIP3    H153252   0.720   4.375   4.931  0.4764  0.2070 -0.1920
10587TIP3    H253253   0.699   4.378   5.081  0.9972  0.9963 -0.1325
10588TIP3   OH253254   2.240   0.693   2.423 -0.0636  0.3673 -0.1051
10588TIP3    H153255   2.159   0.698   2.371 -0.7159  0.9610  0.9621
10588TIP3    H253256   2.288   0.772   2.398  0.4446 -0.2457 -1.1312
10589TIP3   OH253257   2.620   1.524  16.234  0.2437  0.2312  1.0715
10589TIP3    H153258   2.691   1.460  16.239  0.3560  0.2268 -0.2882
10589TIP3    H253259   2.546   1.480  16.277  0.9494  0.0844  2.1434
10590TIP3   OH253260   6.622   4.108  12.955 -0.4843  0.4269 -0.7178
10590TIP3    H153261   6.639   4.024  12.912 -0.1993  0.8469 -1.4374
10590TIP3    H253262   6.597   4.085  13.045 -0.8178 -0.4428 -1.0339
10591TIP3   OH253263   2.582   2.168  10.775  0.3153  0.3334  0.4381
10591TIP3    H153264   2.540   2.097  10.727  2.7846 -0.3953 -0.7621
10591TIP3    H253265   2.512   2.208  10.826 -1.8181 -0.7144 -1.5777
10592TIP3   OH253266   3.578   0.985   5.616 -0.1615 -0.0326 -0.6669
10592TIP3    H153267   3.643   0.935   5.664 -0.9482 -0.0591  0.3995
10592TIP3    H253268   3.512   0.921   5.591 -0.8131  0.3226  0.0822
10593TIP3   OH253269   4.135   5.730  15.767  0.8848  0.6592 -0.3107
10593TIP3    H153270   4.216   5.683  15.742 -0.0270  0.2410 -2.6356
10593TIP3    H253271   4.138   5.732  15.863  3.9791  1.2319 -0.3434
10594TIP3   OH253272   6.459   6.115  13.750 -0.6014 -0.4226  0.0761
10594TIP3    H153273   6.408   6.177  13.801  1.0359 -0.3021  1.6438
10594TIP3    H253274   6.489   6.165  13.674  0.0475  0.4820  0.9247
10595TIP3   OH253275   6.488   1.681  11.618  0.0838  0.3477 -0.2862
10595TIP3    H153276   6.428   1.753  11.640 -0.7391 -0.7569  1.0913
10595TIP3    H253277   6.528   1.656  11.701  1.0259 -0.2177 -0.9000
10596TIP3   OH253278   5.863   0.216  14.463  0.3863 -0.5060  0.2730
10596TIP3    H153279   5.877   0.266  14.383  0.7140 -0.6106  0.2654
10596TIP3    H253280   5.809   0.273  14.518  0.7091 -0.1706  0.2416
10597TIP3   OH253281   0.033   0.524  17.188 -0.1808 -0.6190 -0.3839
10597TIP3    H153282   0.057   0.528  17.096 -0.1269  0.6138 -0.3239
10597TIP3    H253283   0.082   0.450  17.222 -1.3518 -2.0068 -1.6641
10598TIP3   OH253284   1.102   5.727  15.806 -0.2451 -0.4998  0.4223
10598TIP3    H153285   1.181   5.711  15.858 -0.1866  1.0618  0.8538
10598TIP3    H253286   1.134   5.738  15.717  0.3693  2.6567  0.9676
10599TIP3   OH253287   1.800   6.339  11.112 -0.4604 -0.6842  0.5909
10599TIP3    H153288   1.766   6.364  11.198 -3.2761  0.4839 -0.8240
10599TIP3    H253289   1.723   6.329  11.057  1.3739  0.9844 -2.4515
10600TIP3   OH253290   4.104   5.296  15.180 -0.6172  0.2326  0.3006
10600TIP3    H153291   4.041   5.268  15.114 -1.4204  2.0449  0.2903
10600TIP3    H253292   4.170   5.346  15.132  0.8911 -1.6743  0.3042
10601TIP3   OH253293   0.371   3.700  13.281 -0.3080  0.1669  0.0404
10601TIP3    H153294   0.297   3.678  13.337 -0.0906  1.5434  0.8971
10601TIP3    H253295   0.407   3.616  13.254 -1.1784 -0.5059  0.9584
10602TIP3   OH253296   1.908   6.676   6.256  0.4313 -0.1413  0.3972
10602TIP3    H153297   1.929   6.620   6.330 -1.6020 -1.4655  0.0264
10602TIP3    H253298   1.927   6.622   6.179 -0.2787  0.1235  0.0228
10603TIP3   OH253299   4.211   0.736  11.505  0.6610  0.0341 -0.1524
10603TIP3    H153300   4.297   0.763  11.537  0.7686  0.3788 -0.7400
10603TIP3    H253301   4.169   0.817  11.478 -0.5505  0.1165  1.8136
10604TIP3   OH253302   3.539   0.713  11.943  0.2711  0.3496 -0.2220
10604TIP3    H153303   3.551   0.653  12.017 -0.5942  0.3974 -0.0384
10604TIP3    H253304   3.448   0.699  11.915  0.3594  0.8836 -0.7914
10605TIP3   OH253305   4.553   2.440   3.963  0.3213 -0.2484 -0.6496
10605TIP3    H153306   4.548   2.476   4.052 -1.2397  1.1690 -1.3114
10605TIP3    H253307   4.526   2.348   3.973 -0.6984  0.1380  0.1968
10606TIP3   OH253308   6.533   3.591   0.646 -0.4083 -1.0968  0.9856
10606TIP3    H153309   6.452   3.548   0.673 -0.8066 -0.4017  0.9056
10606TIP3    H253310   6.518   3.684   0.665 -0.1500 -0.7886 -0.3241
10607TIP3   OH253311   0.352   6.289  14.753  0.3784  0.2391  0.2023
10607TIP3    H153312   0.377   6.204  14.787  1.2159 -0.0982 -1.2133
10607TIP3    H253313   0.413   6.351  14.792 -0.4681  0.2565  1.5265
10608TIP3   OH253314   6.563   2.092   1.126  0.0714  0.3288  0.4631
10608TIP3    H153315   6.579   1.999   1.144  0.8853 -0.2578 -3.0703
10608TIP3    H253316   6.487   2.093   1.068  1.0687  1.7666 -0.8504
10609TIP3   OH253317   2.572   4.674   1.508 -0.3987 -0.6694  0.3391
10609TIP3    H153318   2.506   4.688   1.439  1.3939 -0.5377 -1.3824
10609TIP3    H253319   2.619   4.757   1.512  0.8740 -1.3898  0.2666
10610TIP3   OH253320   0.146   3.412  15.291  0.1198  0.2033  0.1039
10610TIP3    H153321   0.158   3.480  15.357 -0.0424  0.9813 -0.6519
10610TIP3    H253322   0.123   3.460  15.211 -1.5519 -0.8088 -0.0678
10611TIP3   OH253323   0.360   3.113   5.097 -0.2661  0.7047 -0.2116
10611TIP3    H153324   0.393   3.140   5.182 -0.0542  0.0671 -0.0854
10611TIP3    H253325   0.318   3.029   5.113 -1.0434  1.0193 -0.5659
10612TIP3   OH253326   6.320   3.772  16.350 -0.1394  0.5499 -0.9750
10612TIP3    H153327   6.228   3.788  16.326 -1.1690 -3.3173  0.0137
10612TIP3    H253328   6.355   3.722  16.276  0.1770 -0.8393  0.0916
10613TIP3   OH253329   5.768   4.234   6.447  0.0761  0.5707  0.4095
10613TIP3    H153330   5.794   4.151   6.407 -1.1325 -0.3885  1.5705
10613TIP3    H253331   5.689   4.213   6.496  0.5393  2.1058  1.8567
10614TIP3   OH253332   5.555   5.610  15.758  0.3211  0.0484  0.2585
10614TIP3    H153333   5.581   5.561  15.836 -1.3292 -1.9281 -0.3887
10614TIP3    H253334   5.470   5.648  15.780  0.7406  1.1001  0.0942
10615TIP3   OH253335   3.458   4.408  13.465  0.2227 -0.4832  0.0295
10615TIP3    H153336   3.446   4.318  13.498 -2.3232 -0.0489  0.3762
10615TIP3    H253337   3.424   4.464  13.534 -1.5312  0.6148 -1.6806
10616TIP3   OH253338   6.457   2.687  12.788 -0.5310  0.2193 -0.1226
10616TIP3    H153339   6.491   2.619  12.847  0.3779  0.5475 -0.2497
10616TIP3    H253340   6.518   2.760  12.798 -0.5392  0.3946 -1.2394
10617TIP3   OH253341   4.706   6.156  13.505  0.6961 -0.8430 -0.6202
10617TIP3    H153342   4.791   6.160  13.548  0.7874  3.3265 -0.9628
10617TIP3    H253343   4.713   6.219  13.432 -3.1372  0.8766  0.3557
10618TIP3   OH253344   5.028   4.898   1.216  0.8608  0.0571 -0.1522
10618TIP3    H153345   5.053   4.960   1.284 -1.8032  0.9966  0.0213
10618TIP3    H253346   5.035   4.948   1.134 -2.6003  1.0922  0.1068
10619TIP3   OH253347   2.782   5.755  14.690 -0.0684 -0.2428 -0.8318
10619TIP3    H153348   2.871   5.728  14.666  0.6824  0.5268  0.9912
10619TIP3    H253349   2.730   5.675  14.685  0.8361 -0.8086 -1.3736
10620TIP3   OH253350   4.309   0.395   3.136  0.2655  0.0677 -0.2338
10620TIP3    H153351   4.280   0.450   3.063  0.6108  1.4348  0.6212
10620TIP3    H253352   4.361   0.455   3.190 -1.0983 -0.5796  1.8345
10621TIP3   OH253353   4.071   4.760   1.403  0.4215  0.5037 -0.5002
10621TIP3    H153354   3.999   4.804   1.448 -0.6733 -0.9096 -0.8331
10621TIP3    H253355   4.150   4.794   1.445 -0.5336  0.1041  1.6833
10622TIP3   OH253356   4.174   4.237   2.919  0.1098 -0.0637  0.2364
10622TIP3    H153357   4.115   4.312   2.914 -0.0869 -0.2359 -0.0091
10622TIP3    H253358   4.246   4.259   2.860 -0.9034 -0.9210 -1.3463
10623TIP3   OH253359   4.851   1.505   3.658  0.0130 -0.1462 -0.8358
10623TIP3    H153360   4.762   1.488   3.690  1.6932 -1.8515  3.2073
10623TIP3    H253361   4.868   1.596   3.683 -0.9789  0.6297 -2.8039
10624TIP3   OH253362   2.736   2.265  12.762  0.5908  0.0058 -0.2192
10624TIP3    H153363   2.650   2.253  12.720  1.2080 -1.4797 -1.1009
10624TIP3    H253364   2.768   2.349  12.727  1.3236 -1.4428 -3.2216
10625TIP3   OH253365   0.333   4.302  12.067 -0.6674 -0.0816 -0.8104
10625TIP3    H153366   0.364   4.280  11.979  1.6716 -0.7235  0.1599
10625TIP3    H253367   0.362   4.392  12.081 -1.1130  0.0484 -0.7201
10626TIP3   OH253368   3.490   5.302  13.043  0.1443  0.1055 -0.7062
10626TIP3    H153369   3.513   5.357  12.968  1.1686 -1.1280 -1.2993
10626TIP3    H253370   3.404   5.336  13.071  0.0606  1.0164 -1.9993
10627TIP3   OH253371   2.597   0.867   0.310 -0.8371 -0.0272  0.2745
10627TIP3    H153372   2.519   0.909   0.273 -0.1633  0.2932 -0.7883
10627TIP3    H253373   2.669   0.926   0.288 -0.3778  0.0324  1.8610
10628TIP3   OH253374   4.945   3.436  13.766 -0.2151  0.2206 -0.1358
10628TIP3    H153375   4.995   3.372  13.715 -1.4197  0.3242 -1.4913
10628TIP3    H253376   4.912   3.387  13.841  2.1961  0.2385  1.0014
10629TIP3   OH253377   2.778   2.948   6.097  0.0794 -0.3362  0.6983
10629TIP3    H153378   2.779   2.856   6.123 -2.8373 -0.1285  1.7987
10629TIP3    H253379   2.704   2.986   6.145 -0.2355  2.0284 -1.4890
10630TIP3   OH253380   5.780   1.850   0.882 -0.1636 -0.4878 -0.1956
10630TIP3    H153381   5.834   1.775   0.857  1.3308  0.8388 -0.9422
10630TIP3    H253382   5.750   1.887   0.799  0.0798  0.4615  0.1365
10631TIP3   OH253383   2.900   5.805  14.267 -0.3143  0.1686  0.0188
10631TIP3    H153384   2.850   5.845  14.197 -0.7064  2.2557  1.4282
10631TIP3    H253385   2.914   5.715  14.239 -0.8749  0.8208 -2.4893
10632TIP3   OH253386   5.102   3.667   5.861 -0.3730 -0.3171 -0.3835
10632TIP3    H153387   5.088   3.691   5.952 -1.4241 -0.1754 -0.5699
10632TIP3    H253388   5.097   3.572   5.860  0.7497 -0.3853 -0.1242
10633TIP3   OH253389   5.706   4.834   5.866  0.3682  0.0291  0.1643
10633TIP3    H153390   5.681   4.921   5.897  1.4773  0.7833 -0.9931
10633TIP3    H253391   5.771   4.851   5.797  0.0362 -1.6878 -0.5981
10634TIP3   OH253392   1.817   3.198  17.152  0.0573 -0.1688  0.6931
10634TIP3    H153393   1.803   3.274  17.094 -0.1399  0.3644  1.4266
10634TIP3    H253394   1.865   3.234  17.226 -3.0255 -0.0012  2.7064
10635TIP3   OH253395   4.242   6.436  13.428  0.2108 -0.2734 -0.2740
10635TIP3    H153396   4.276   6.507  13.483  1.0875 -0.1475 -0.9656
10635TIP3    H253397   4.150   6.427  13.454  0.9583 -1.0986  2.1140
10636TIP3   OH253398   1.924   4.399  13.441  0.1542 -0.0933  0.1703
10636TIP3    H153399   2.002   4.422  13.390 -0.4070  2.4977  0.3806
10636TIP3    H253400   1.953   4.327  13.497  1.7787 -0.6159 -1.2880
10637TIP3   OH253401   2.902   4.583  16.773  0.2909 -0.9866  0.0811
10637TIP3    H153402   2.870   4.500  16.809  0.3727 -1.1651 -0.2598
10637TIP3    H253403   2.875   4.581  16.681  0.5143 -0.7462  0.0116
10638TIP3   OH253404   1.094   6.249   0.931 -0.1961  0.2263  0.0731
10638TIP3    H153405   1.040   6.314   0.886 -0.2490  1.3132  1.6606
10638TIP3    H253406   1.182   6.261   0.895 -0.7451 -0.7285 -1.6466
10639TIP3   OH253407   6.481   1.619   5.938  0.0425  0.0284  0.1636
10639TIP3    H153408   6.474   1.664   5.854 -0.5493 -0.7455 -0.1991
10639TIP3    H253409   6.487   1.690   6.002 -0.0019  0.6205 -0.4835
10640TIP3   OH253410   3.151   4.262   5.280 -0.1578 -0.2159  0.0388
10640TIP3    H153411   3.171   4.191   5.220  1.7440  0.1430  0.2173
10640TIP3    H253412   3.077   4.230   5.332 -1.0829 -0.9701 -1.6902
10641TIP3   OH253413   5.876   1.101  11.401  0.3342  0.1176 -0.8916
10641TIP3    H153414   5.902   1.081  11.311 -0.6592  1.9823 -1.6263
10641TIP3    H253415   5.781   1.114  11.396  0.5311  2.0894  0.0508
10642TIP3   OH253416   2.766   4.209  15.572  0.2775 -0.5135 -0.2035
10642TIP3    H153417   2.746   4.126  15.616 -1.2077  1.6370  3.4918
10642TIP3    H253418   2.841   4.244  15.620  0.6638  0.4355 -1.4835
10643TIP3   OH253419   1.770   6.147  15.155  0.7436  0.4228 -0.1638
10643TIP3    H153420   1.816   6.091  15.094 -0.9334 -0.3470 -0.7600
10643TIP3    H253421   1.684   6.106  15.165  0.3715  1.5148  1.3249
10644TIP3   OH253422   3.962   4.828  10.855 -0.3351  0.0369  0.2074
10644TIP3    H153423   3.914   4.818  10.773  0.0807  0.1100 -0.0464
10644TIP3    H253424   4.053   4.812  10.832 -0.2974 -0.6795  0.7925
10645TIP3   OH253425   1.205   4.690  11.489  0.3757 -0.5550 -0.1270
10645TIP3    H153426   1.253   4.619  11.446 -0.5434 -0.0386 -2.0687
10645TIP3    H253427   1.113   4.671  11.469  0.2018  1.9094 -1.8262
10646TIP3   OH253428   6.656   4.008   0.472 -0.0898 -0.0191  0.2522
10646TIP3    H153429   6.743   4.004   0.513 -1.1329  2.0268  2.7637
10646TIP3    H253430   6.638   4.101   0.462 -1.5638 -0.4486 -1.2361
10647TIP3   OH253431   5.881   0.830   0.092 -0.3483  0.0826 -0.4367
10647TIP3    H153432   5.914   0.814   0.180  0.5665  1.3881 -0.5330
10647TIP3    H253433   5.872   0.925   0.086 -0.3658  0.0152 -1.7654
10648TIP3   OH253434   2.372   5.199  16.875 -0.2940 -0.3175  0.2791
10648TIP3    H153435   2.430   5.125  16.856  0.4948  0.4220 -0.2085
10648TIP3    H253436   2.332   5.176  16.959  1.3859 -0.4254  1.0779
10649TIP3   OH253437   1.898   0.191  11.451 -0.1155 -0.2660  0.2947
10649TIP3    H153438   1.967   0.189  11.384 -0.1615 -0.7961  0.2599
10649TIP3    H253439   1.832   0.130  11.418  0.0083 -0.7734  0.9877
10650TIP3   OH253440   1.041   2.393  17.118  0.5516  0.1384  0.0823
10650TIP3    H153441   0.967   2.368  17.062 -1.0123  1.8675  1.3036
10650TIP3    H253442   1.055   2.318  17.176  0.1167 -0.4022 -0.5037
10651TIP3   OH253443   0.533   3.766   1.145 -0.1239  0.0794 -0.6098
10651TIP3    H153444   0.493   3.827   1.208 -1.3997 -1.2067 -0.1398
10651TIP3    H253445   0.564   3.693   1.199 -2.6303 -1.7793 -1.5603
10652TIP3   OH253446   4.785   2.445  10.346 -0.0634  0.2678  0.1518
10652TIP3    H153447   4.811   2.444  10.438  0.6741  0.2196 -0.0534
10652TIP3    H253448   4.830   2.370  10.307 -0.9011 -0.1113 -0.1103
10653TIP3   OH253449   2.479   2.304   1.080  0.0747 -0.0280  0.0370
10653TIP3    H153450   2.544   2.344   1.022 -0.3260  1.1873  0.4144
10653TIP3    H253451   2.456   2.221   1.037  1.8155 -0.4476 -0.1271
10654TIP3   OH253452   5.160   3.449   4.170  0.8576  0.0532  0.7010
10654TIP3    H153453   5.149   3.431   4.077 -0.4815  3.2322  0.2034
10654TIP3    H253454   5.082   3.412   4.211  0.5958  0.2347  0.3567
10655TIP3   OH253455   4.901   1.611  12.428  0.1528  0.0447 -0.0389
10655TIP3    H153456   4.877   1.624  12.520 -0.7168  1.3371 -0.4348
10655TIP3    H253457   4.974   1.549  12.430  1.4886  1.6513  1.6421
10656TIP3   OH253458   3.531   5.605   5.082 -0.0082 -0.6676 -0.2012
10656TIP3    H153459   3.475   5.530   5.063  1.1039 -1.9606  1.4963
10656TIP3    H253460   3.487   5.652   5.153 -0.4774  0.0696 -0.9614
10657TIP3   OH253461   1.643   2.065  17.224 -0.0053 -0.3325  0.0123
10657TIP3    H153462   1.734   2.062  17.194 -0.1441  0.2055 -0.4583
10657TIP3    H253463   1.599   2.124  17.163 -0.7873 -0.9780 -0.0584
10658TIP3   OH253464   2.416   0.030  12.656 -0.0982  0.0071  0.0694
10658TIP3    H153465   2.343   0.043  12.596 -0.4024 -1.7338  0.0495
10658TIP3    H253466   2.416   0.108  12.712 -0.9889  0.7408 -0.9460
10659TIP3   OH253467   2.906   4.259   3.438 -0.2040 -0.0856  0.2758
10659TIP3    H153468   2.838   4.192   3.444  0.6479 -0.9887 -0.0686
10659TIP3    H253469   2.961   4.232   3.364 -0.9028  1.9611 -1.0442
10660TIP3   OH253470   4.284   4.037  17.007  0.3789  0.0017 -0.4225
10660TIP3    H153471   4.364   4.016  16.959  0.0126 -3.6259  0.4450
10660TIP3    H253472   4.219   4.053  16.939  1.2819  0.8977 -1.1075
10661TIP3   OH253473   1.069   0.753  14.040 -0.0064 -0.1062 -0.0610
10661TIP3    H153474   0.979   0.753  14.007 -0.1958 -2.0066  0.3837
10661TIP3    H253475   1.113   0.823  13.992 -1.5615  0.4351 -0.7208
10662TIP3   OH253476   0.024   2.667   6.808  0.0723  0.4563  0.1174
10662TIP3    H153477  -0.024   2.660   6.890 -0.2005 -0.2286 -0.0946
10662TIP3    H253478   0.008   2.583   6.764 -0.4879  1.1352 -1.0089
10663TIP3   OH253479   0.150   5.827   0.323  0.0993 -0.1773  0.3542
10663TIP3    H153480   0.205   5.886   0.375  1.2192 -0.9734  0.1066
10663TIP3    H253481   0.106   5.883   0.260  1.3611  0.3676 -0.0489
10664TIP3   OH253482   0.489   3.551   3.379 -0.0344 -0.1220 -0.4731
10664TIP3    H153483   0.445   3.633   3.400 -0.6651  0.1248 -2.6316
10664TIP3    H253484   0.421   3.484   3.386 -0.1448 -0.0960 -1.2048
10665TIP3   OH253485   5.863   3.749   0.288 -0.0795  0.1892  0.2411
10665TIP3    H153486   5.780   3.701   0.295 -1.1896  2.0084  0.0838
10665TIP3    H253487   5.913   3.702   0.221 -1.5907 -0.1119 -0.7131
10666TIP3   OH253488   4.860   6.737   2.998 -0.2848 -0.2172 -0.2803
10666TIP3    H153489   4.899   6.702   3.077 -0.0917  1.0758  0.2136
10666TIP3    H253490   4.899   6.824   2.988 -1.3640  0.1994 -1.0030
10667TIP3   OH253491   5.898   1.700  14.539 -0.3357 -0.2637 -0.1056
10667TIP3    H153492   5.935   1.612  14.548 -4.1915 -2.1822 -1.8819
10667TIP3    H253493   5.961   1.748  14.486  1.3633 -2.2494  0.0628
10668TIP3   OH253494   1.855   0.817  10.996  0.3152 -0.4435 -0.1186
10668TIP3    H153495   1.887   0.777  11.077  2.0503  1.7594  0.3281
10668TIP3    H253496   1.900   0.770  10.926 -0.2690 -1.5394  0.2306
10669TIP3   OH253497   4.735   2.818  17.276 -0.6724  0.0499 -0.0504
10669TIP3    H153498   4.755   2.750  17.340 -2.0142 -1.0314 -0.7297
10669TIP3    H253499   4.665   2.869  17.316 -2.0262 -1.0819 -0.9322
10670TIP3   OH253500   1.781   1.339  16.490  0.4532 -0.5849 -0.0455
10670TIP3    H153501   1.701   1.385  16.464  1.1593  0.4591 -0.3966
10670TIP3    H253502   1.809   1.381  16.571  0.5520 -1.0561  0.1661
10671TIP3   OH253503   6.065   0.171  15.272  0.4592 -0.1419 -0.0363
10671TIP3    H153504   6.005   0.133  15.336  1.7909  0.0724  1.3954
10671TIP3    H253505   6.031   0.259  15.255  0.3936  0.0073  0.8277
10672TIP3   OH253506   4.782   0.096  11.016  0.2619  0.0005 -0.0769
10672TIP3    H153507   4.819   0.093  11.104  0.0704 -1.2321 -0.0347
10672TIP3    H253508   4.734   0.179  11.013  1.9246  0.9785  0.2984
10673TIP3   OH253509   1.005   5.835  11.342  0.5316  0.3277  0.2583
10673TIP3    H153510   0.941   5.765  11.351 -0.8828  1.6775  1.0487
10673TIP3    H253511   1.067   5.803  11.276 -1.2841 -0.7773 -0.9591
10674TIP3   OH253512   0.696   5.501  14.379 -0.0124 -0.0654 -0.0034
10674TIP3    H153513   0.759   5.460  14.319 -0.9305 -0.3900 -0.7680
10674TIP3    H253514   0.640   5.429  14.407  0.5483  0.0472  1.4514
10675TIP3   OH253515   2.667   4.660   5.911 -0.0557 -0.3639  0.0430
10675TIP3    H153516   2.732   4.605   5.956 -1.4819 -0.0120  2.6593
10675TIP3    H253517   2.584   4.639   5.953 -0.7803  3.1366  0.5911
10676TIP3   OH253518   3.592   3.519  11.967 -0.4502  0.0216 -0.4818
10676TIP3    H153519   3.549   3.493  12.049 -0.5910 -2.3279 -1.2793
10676TIP3    H253520   3.546   3.599  11.941 -1.4154 -0.0410  0.9558
10677TIP3   OH253521   6.220   0.547  17.167  0.3638 -0.1672  0.0092
10677TIP3    H153522   6.168   0.541  17.247  0.3446  0.0924  0.0135
10677TIP3    H253523   6.217   0.458  17.130 -1.9733  0.3801 -1.1875
10678TIP3   OH253524   5.748   1.457   2.292 -0.2096  0.4450 -0.7303
10678TIP3    H153525   5.790   1.398   2.355 -0.5197 -1.5975 -2.3807
10678TIP3    H253526   5.658   1.465   2.323  0.4173  1.8777  0.7581
10679TIP3   OH253527   3.747   5.268  15.763 -0.4589  0.4906 -0.4763
10679TIP3    H153528   3.748   5.175  15.743  0.8836  0.4522 -0.3180
10679TIP3    H253529   3.829   5.302  15.727 -0.7829  1.5483 -0.2622
10680TIP3   OH253530   6.736   5.904   2.053 -0.1606  0.3811  0.4461
10680TIP3    H153531   6.644   5.881   2.037  0.7078 -1.3865 -2.1989
10680TIP3    H253532   6.777   5.901   1.967  2.2228  2.0609  1.4676
10681TIP3   OH253533   0.423   6.418  13.460 -0.3960 -0.3553  0.1039
10681TIP3    H153534   0.408   6.512  13.444 -1.8885 -0.7842 -1.1780
10681TIP3    H253535   0.355   6.394  13.523  1.1517 -0.1994  1.8927
10682TIP3   OH253536   3.630   5.452  10.636  0.2412 -0.6732 -0.2501
10682TIP3    H153537   3.604   5.377  10.689  0.3009  0.7540  1.8686
10682TIP3    H253538   3.562   5.518  10.652  1.8248  0.8454  0.4366
10683TIP3   OH253539   2.830   1.229   0.438 -0.3536 -0.0670  0.1423
10683TIP3    H153540   2.775   1.213   0.515 -0.1738  2.0942  0.7623
10683TIP3    H253541   2.914   1.189   0.460 -1.2929 -2.3876 -0.3382
10684TIP3   OH253542   3.604   5.596   4.100  0.5550  0.5622  0.3132
10684TIP3    H153543   3.648   5.599   4.185  0.1625  0.5257  0.5190
10684TIP3    H253544   3.675   5.595   4.036  0.8599 -0.1949  0.6620
10685TIP3   OH253545   6.028   2.021  14.791  0.0708  0.2046 -0.3915
10685TIP3    H153546   5.948   2.060  14.756  0.7305  3.4854  1.5566
10685TIP3    H253547   6.099   2.062  14.741  0.6939  0.0631  0.3640
10686TIP3   OH253548   4.411   4.878   0.792  0.3307  0.1733  0.1706
10686TIP3    H153549   4.416   4.935   0.870 -0.4918 -0.9646  1.0654
10686TIP3    H253550   4.499   4.882   0.755  0.4233  1.6521  0.4919
10687TIP3   OH253551   0.716   4.592   6.670  0.2696  0.1385  0.6047
10687TIP3    H153552   0.803   4.564   6.641  0.1502 -0.3693  0.7321
10687TIP3    H253553   0.662   4.512   6.666 -0.0158  0.2941  1.1909
10688TIP3   OH253554   1.599   3.714  12.960  0.4824  0.0508  0.2491
10688TIP3    H153555   1.594   3.640  13.020  2.2525  0.8711  1.4486
10688TIP3    H253556   1.604   3.791  13.016  0.3348  0.9663 -0.9613
10689TIP3   OH253557   4.871   6.441   4.360  0.2544 -0.1595  0.0002
10689TIP3    H153558   4.937   6.374   4.373  1.0541  0.4036 -1.0747
10689TIP3    H253559   4.828   6.417   4.278 -1.1061 -0.6964  0.8399
10690TIP3   OH253560   6.816   2.854   3.416 -0.0368  0.3427  0.5303
10690TIP3    H153561   6.781   2.854   3.327  0.7830  2.3115  0.1854
10690TIP3    H253562   6.742   2.825   3.470 -0.4123 -1.2864 -0.8081
10691TIP3   OH253563   1.862   1.356   1.228 -0.7073  0.2138 -0.0935
10691TIP3    H153564   1.805   1.355   1.151 -1.4403  0.2779  0.4413
10691TIP3    H253565   1.915   1.277   1.220 -1.9683 -0.6886  0.2135
10692TIP3   OH253566   0.128   4.361  15.079 -0.0656 -0.1199  0.2116
10692TIP3    H153567   0.177   4.340  14.999 -0.0430  0.1207  0.1612
10692TIP3    H253568   0.108   4.276  15.118  0.0127 -0.2351  0.0026
10693TIP3   OH253569   4.316   3.983  15.290  0.1206  0.2151  0.0468
10693TIP3    H153570   4.297   3.935  15.209 -1.4227  0.6969  0.1242
10693TIP3    H253571   4.389   3.934  15.329  0.2540 -0.5761 -1.1471
10694TIP3   OH253572   3.201   6.722   1.022 -0.3067  0.3260 -0.2257
10694TIP3    H153573   3.282   6.678   0.997 -0.7731 -0.6606 -0.0028
10694TIP3    H253574   3.139   6.651   1.040 -0.7532  1.0385  1.1415
10695TIP3   OH253575   6.499   0.814  13.095  0.1670 -0.2703  0.2719
10695TIP3    H153576   6.537   0.870  13.028  0.4411  0.7743  1.2868
10695TIP3    H253577   6.573   0.786  13.148 -0.3030  0.7211  1.4794
10696TIP3   OH253578   2.270   0.914  13.613 -0.5127 -1.0713  0.9539
10696TIP3    H153579   2.317   0.954  13.540 -0.1603 -0.8287  1.3121
10696TIP3    H253580   2.332   0.852  13.651 -0.8531 -1.5294  0.7633
10697TIP3   OH253581   6.513   5.204  14.730 -0.0470  0.1949  0.0469
10697TIP3    H153582   6.603   5.204  14.698 -0.0955  0.3252 -0.0897
10697TIP3    H253583   6.484   5.113  14.720  0.2326  0.0537  0.5525
10698TIP3   OH253584   0.474   5.118   0.988  0.1973 -0.2738 -0.4243
10698TIP3    H153585   0.418   5.191   0.963 -0.9699 -1.0468 -0.0836
10698TIP3    H253586   0.488   5.130   1.082 -1.7148 -1.6210  0.0701
10699TIP3   OH253587   6.335   5.862   0.514 -0.5241  0.4273  0.5868
10699TIP3    H153588   6.350   5.819   0.430 -2.3138  1.6453 -0.3690
10699TIP3    H253589   6.282   5.799   0.564 -3.2022  1.4749 -0.8390
10700TIP3   OH253590   6.508   1.790   1.081 -0.3949 -0.0444  0.2449
10700TIP3    H153591   6.466   1.787   0.995 -2.6790 -2.3923  1.3893
10700TIP3    H253592   6.599   1.767   1.063 -0.9791 -1.1780 -1.4943
10701TIP3   OH253593   4.507   4.158  14.818  0.5287 -0.0692  0.1564
10701TIP3    H153594   4.465   4.213  14.752  0.3156 -0.9054 -0.4127
10701TIP3    H253595   4.486   4.200  14.902 -1.8599 -0.7607 -0.0774
10702TIP3   OH253596   6.220   1.393  15.097 -0.3844  0.2081  0.1443
10702TIP3    H153597   6.252   1.383  15.187  0.1715 -0.2279 -0.1004
10702TIP3    H253598   6.287   1.351  15.043 -0.3357  1.1529 -0.5384
10703TIP3   OH253599   6.687   5.463   5.426  0.3220  0.1176  0.5125
10703TIP3    H153600   6.734   5.509   5.357  0.0100  1.1456  0.9756
10703TIP3    H253601   6.750   5.400   5.461  0.4020 -0.5965 -0.8727
10704TIP3   OH253602   1.841   4.456  12.476 -0.0439  0.5649  0.2515
10704TIP3    H153603   1.858   4.550  12.490  0.5437  0.7046 -1.2487
10704TIP3    H253604   1.893   4.434  12.399 -0.4822 -0.9165  0.3679
10705TIP3   OH253605   3.305   1.655  11.986  0.6752 -0.3758 -0.0869
10705TIP3    H153606   3.249   1.578  11.982  2.7301 -1.9611  0.7651
10705TIP3    H253607   3.273   1.712  11.916 -0.2711 -2.4258 -1.3537
10706TIP3   OH253608   1.644   5.546  15.953 -0.5384  0.3446 -0.1936
10706TIP3    H153609   1.677   5.610  15.890  0.3660 -0.9174 -1.0240
10706TIP3    H253610   1.719   5.525  16.008 -0.7473 -0.2260 -0.1270
10707TIP3   OH253611   2.865   5.130  13.943  0.0269 -0.3190 -0.4473
10707TIP3    H153612   2.903   5.074  14.011  0.5518 -0.8164 -1.1347
10707TIP3    H253613   2.888   5.219  13.968 -1.2839 -0.3635  0.9581
10708TIP3   OH253614   1.638   5.636   2.893  0.5358 -0.4410  0.1930
10708TIP3    H153615   1.675   5.550   2.911  1.4516 -0.0394  0.2372
10708TIP3    H253616   1.572   5.620   2.825  1.7466 -0.9552 -0.8827
10709TIP3   OH253617   6.081   0.835   6.292 -0.7428  0.3219 -0.2702
10709TIP3    H153618   6.172   0.825   6.319 -1.3591 -0.8202  1.5043
10709TIP3    H253619   6.072   0.777   6.216 -0.3980 -0.8293  0.5533
10710TIP3   OH253620   6.174   0.964  13.495 -0.3802 -0.2673  0.2856
10710TIP3    H153621   6.166   0.884  13.548  1.0669 -0.1242  0.7423
10710TIP3    H253622   6.151   1.035  13.555  3.0266  0.0544  1.2999
10711TIP3   OH253623   1.951   3.612  16.204  0.2301  0.1732 -0.5608
10711TIP3    H153624   1.866   3.655  16.207 -0.0737 -0.3891 -1.0755
10711TIP3    H253625   1.931   3.519  16.196  0.8870  0.1197 -1.7315
10712TIP3   OH253626   6.088   4.857   2.276 -0.2617  0.0780  0.2184
10712TIP3    H153627   6.093   4.923   2.346  3.2876 -1.2180  1.2726
10712TIP3    H253628   6.089   4.774   2.323  2.0402 -0.8088 -1.3846
10713TIP3   OH253629   1.737   0.986  17.179 -0.0247  0.1787  0.0137
10713TIP3    H153630   1.751   1.061  17.237 -0.8545  0.0651  0.3794
10713TIP3    H253631   1.764   1.016  17.093 -0.4338  0.9380  0.1444
10714TIP3   OH253632   2.950   1.085   2.794  0.4093 -0.1385 -0.0992
10714TIP3    H153633   2.979   1.064   2.706 -1.5513 -0.6993 -0.6328
10714TIP3    H253634   2.883   1.152   2.782 -0.0407 -0.3918  0.9256
10715TIP3   OH253635   3.780   3.947  14.382 -0.2774  0.1393 -0.6737
10715TIP3    H153636   3.722   3.888  14.335  1.0577 -0.5102 -1.5428
10715TIP3    H253637   3.730   3.974  14.459 -0.9060 -2.1807 -0.2299
10716TIP3   OH253638   6.490   3.214  12.200  0.0678  0.4567 -0.6695
10716TIP3    H153639   6.577   3.173  12.191 -0.5730 -0.3471 -3.3991
10716TIP3    H253640   6.508   3.295  12.247  2.3438  0.4038 -1.3565
10717TIP3   OH253641   1.767   3.782  10.483 -0.1604  0.3390 -0.2151
10717TIP3    H153642   1.740   3.748  10.568 -0.0350  0.1300 -0.2605
10717TIP3    H253643   1.773   3.877  10.496  1.0582  0.1805  0.3309
10718TIP3   OH253644   2.864   5.649   5.103 -0.6613 -0.0225 -0.3003
10718TIP3    H153645   2.873   5.656   5.008 -2.9832 -0.7214 -0.6099
10718TIP3    H253646   2.846   5.738   5.132 -1.2454 -0.0168 -0.6757
10719TIP3   OH253647   2.310   1.317   0.102  0.1937  0.3577 -0.6586
10719TIP3    H153648   2.322   1.410   0.082  2.1187  0.3579  0.4180
10719TIP3    H253649   2.292   1.276   0.017 -0.6304  1.6877 -1.1383
10720TIP3   OH253650   1.907   5.421   3.889 -0.2510 -0.1365 -0.0526
10720TIP3    H153651   1.938   5.336   3.919 -0.9289 -0.0921  0.8030
10720TIP3    H253652   1.863   5.403   3.806  0.0407 -0.5479 -0.1156
10721TIP3   OH253653   5.860   6.511  11.972  0.0696  0.1232  0.1254
10721TIP3    H153654   5.935   6.455  11.991 -1.0188 -1.3518  0.1665
10721TIP3    H253655   5.898   6.592  11.939  1.6415 -1.0891 -1.1221
10722TIP3   OH253656   3.320   2.238   3.826 -0.6527  1.0347 -0.2545
10722TIP3    H153657   3.380   2.163   3.821 -0.7275  0.9019  0.7120
10722TIP3    H253658   3.251   2.210   3.886  0.9636  2.9687  2.6367
10723TIP3   OH253659   1.691   5.757  15.773  0.3037  0.4199  0.1650
10723TIP3    H153660   1.676   5.789  15.684 -0.3254  1.7755  0.7364
10723TIP3    H253661   1.732   5.831  15.818  2.4178 -0.8910  0.4991
10724TIP3   OH253662   5.746   5.116   0.743 -0.2903 -0.1321  0.0416
10724TIP3    H153663   5.745   5.202   0.785  1.2402 -1.0412  2.0175
10724TIP3    H253664   5.821   5.072   0.782 -1.3139 -2.5265 -0.6348
10725TIP3   OH253665   3.350   1.398   1.425  0.5183  0.9672 -0.3793
10725TIP3    H153666   3.402   1.478   1.412  1.0510  0.5747 -0.6844
10725TIP3    H253667   3.415   1.327   1.425  0.1008  0.5872  0.4342
10726TIP3   OH253668   6.476   5.385   0.583  0.5772 -0.2180  0.2945
10726TIP3    H153669   6.529   5.338   0.518 -0.5688  0.4934 -1.1891
10726TIP3    H253670   6.385   5.366   0.558  0.1247  0.4038  1.4451
10727TIP3   OH253671   3.937   3.006  16.287  0.0011  0.7158 -0.1577
10727TIP3    H153672   3.846   3.031  16.275 -0.8117 -1.4544  1.2713
10727TIP3    H253673   3.983   3.050  16.215 -2.4215  0.4387 -1.9462
10728TIP3   OH253674   2.031   1.329  16.274 -0.1845 -0.6626 -0.2013
10728TIP3    H153675   1.973   1.404  16.281  0.2450 -0.3511  0.0459
10728TIP3    H253676   2.029   1.306  16.181  0.5543  0.3602 -0.4847
10729TIP3   OH253677   4.916   3.910  16.736 -0.1316  0.2374  0.4316
10729TIP3    H153678   4.943   4.001  16.743 -1.7172  0.7697 -0.3257
10729TIP3    H253679   4.976   3.872  16.672  0.6814  0.6792  0.9213
10730TIP3   OH253680   0.758   3.019   1.632 -0.3749  0.3514  0.8053
10730TIP3    H153681   0.666   3.002   1.651  0.3369 -1.3015  3.1357
10730TIP3    H253682   0.788   2.941   1.585  0.3062 -0.0870  1.9252
10731TIP3   OH253683   3.253   0.133   2.882 -1.1122 -0.2493  0.1190
10731TIP3    H153684   3.305   0.170   2.810 -2.1033  0.2148 -0.3669
10731TIP3    H253685   3.292   0.170   2.961  1.2974 -2.3514 -0.0092
10732TIP3   OH253686   0.777   1.531  13.042 -0.3233  0.4398  0.2289
10732TIP3    H153687   0.784   1.598  12.974  1.2065  1.2287  1.1127
10732TIP3    H253688   0.834   1.460  13.011 -0.9348  0.0987 -0.1060
10733TIP3   OH253689   0.618   3.644   0.874  0.6328  0.1726  0.0541
10733TIP3    H153690   0.570   3.673   0.951  1.0755 -0.1490  0.4497
10733TIP3    H253691   0.551   3.640   0.805  0.1825  0.1857  0.4866
10734TIP3   OH253692   4.950   1.405   1.443  0.0346  0.6147  0.1748
10734TIP3    H153693   4.936   1.335   1.379 -0.0009  2.4104 -1.8047
10734TIP3    H253694   5.013   1.368   1.505  0.5697 -0.9104 -1.2548
10735TIP3   OH253695   3.046   0.223   4.817  0.3614 -0.6530 -0.1295
10735TIP3    H153696   3.080   0.197   4.902 -0.2053 -2.0191 -0.3035
10735TIP3    H253697   3.105   0.292   4.787  0.6301 -0.2444  1.3058
10736TIP3   OH253698   2.612   0.578   4.220  1.0010  0.1307  0.4358
10736TIP3    H153699   2.523   0.544   4.208  1.0907 -0.6540  1.8596
10736TIP3    H253700   2.661   0.542   4.146  0.7361 -1.6380  1.0941
10737TIP3   OH253701   2.987   2.264   1.137  0.3490 -0.4239  0.2010
10737TIP3    H153702   2.943   2.302   1.213  1.4012  1.1416  0.0512
10737TIP3    H253703   3.065   2.222   1.174  0.3759 -0.4534  0.1085
10738TIP3   OH253704   4.874   2.544   2.255 -0.2150 -0.4927 -0.3751
10738TIP3    H153705   4.906   2.526   2.167 -1.5544 -0.4977 -0.8772
10738TIP3    H253706   4.917   2.626   2.280 -1.4330  0.6316 -1.8774
10739TIP3   OH253707   2.985   6.796  11.207  0.0036 -0.4734  0.3808
10739TIP3    H153708   3.036   6.817  11.129 -2.3435  1.1996 -0.7567
10739TIP3    H253709   2.971   6.701  11.203 -0.5791 -0.3136 -1.5399
10740TIP3   OH253710   1.412   1.673   2.959  0.6399  0.2018 -0.2972
10740TIP3    H153711   1.324   1.693   2.990  2.6346  2.0385  4.6417
10740TIP3    H253712   1.429   1.738   2.891 -0.6339  1.9025  0.9719
10741TIP3   OH253713   2.838   5.088  10.614 -0.0307  0.2410 -0.0644
10741TIP3    H153714   2.839   5.101  10.519  0.5006  0.2483 -0.0602
10741TIP3    H253715   2.930   5.085  10.639 -0.1348 -1.4353  0.2173
10742TIP3   OH253716   0.061   2.680   4.909 -0.7070  0.7716 -0.0267
10742TIP3    H153717   0.101   2.636   4.985 -2.2057  0.4511  0.5939
10742TIP3    H253718   0.058   2.612   4.841  0.0039  0.8640 -0.1565
10743TIP3   OH253719   4.703   0.011  17.051  0.2436 -0.1280  0.2192
10743TIP3    H153720   4.739  -0.009  16.964  0.3033  0.3715  0.1255
10743TIP3    H253721   4.763   0.076  17.087 -1.4457  1.8886 -0.5669
10744TIP3   OH253722   3.435   2.776   3.955  0.1764  0.1288  0.6129
10744TIP3    H153723   3.515   2.807   3.997 -0.1176  0.7654  0.7112
10744TIP3    H253724   3.374   2.762   4.028  0.0481  0.0973  0.5002
10745TIP3   OH253725   6.459   6.711  14.386  0.0457 -0.7454 -0.4456
10745TIP3    H153726   6.400   6.697  14.460  1.1789 -0.5884  0.5105
10745TIP3    H253727   6.404   6.701  14.309 -2.1576  3.2960  0.4209
10746TIP3   OH253728   6.187   3.318   4.232 -1.0757 -0.4464  0.1684
10746TIP3    H153729   6.225   3.371   4.302  2.7517 -0.0395 -2.0964
10746TIP3    H253730   6.115   3.372   4.197 -1.7920  0.1415  2.4799
10747TIP3   OH253731   0.273   2.452  15.090  0.1416  0.2573 -0.2188
10747TIP3    H153732   0.322   2.485  15.015  2.1364 -2.0715 -0.0020
10747TIP3    H253733   0.202   2.401  15.053  1.9998 -2.1470 -0.5958
10748TIP3   OH253734   4.588   4.602  16.928 -0.5237  0.0489 -0.0726
10748TIP3    H153735   4.530   4.671  16.961  0.4653  0.9581 -0.2127
10748TIP3    H253736   4.676   4.639  16.934 -0.0799 -0.7748 -1.1962
10749TIP3   OH253737   3.538   3.206   3.144 -0.4513 -0.2508 -0.7506
10749TIP3    H153738   3.568   3.152   3.217 -1.2279 -0.2429 -0.4197
10749TIP3    H253739   3.515   3.144   3.076 -0.4909 -0.2930 -0.6984
10750TIP3   OH253740   5.113   4.774  16.372 -0.2495 -0.2199 -0.4546
10750TIP3    H153741   5.162   4.856  16.364 -2.6675  1.4181  0.8446
10750TIP3    H253742   5.124   4.748  16.464  0.6947 -1.5139 -0.9130
10751TIP3   OH253743   0.198   1.989   6.287 -0.0018 -0.2382 -0.3747
10751TIP3    H153744   0.276   1.941   6.315  1.1442  0.6883 -1.9036
10751TIP3    H253745   0.126   1.928   6.301  1.0308 -1.2562  0.6792
10752TIP3   OH253746   1.635   0.714  17.226  0.0062  0.5505  0.3739
10752TIP3    H153747   1.661   0.805  17.240 -2.1312  0.8110  3.1458
10752TIP3    H253748   1.684   0.686  17.149  1.0192  3.9122 -0.2625
10753TIP3   OH253749   3.972   3.065  14.827 -0.5390  0.2969 -0.0952
10753TIP3    H153750   3.891   3.018  14.811 -0.5487  0.8191 -1.6185
10753TIP3    H253751   3.990   3.111  14.745  1.5412 -0.1827  0.0744
10754TIP3   OH253752   1.837   2.032  13.668  0.5972 -0.0661  0.9017
10754TIP3    H153753   1.781   2.088  13.722 -0.2461  1.6049 -1.6205
10754TIP3    H253754   1.812   2.053  13.578  4.6588  0.0138 -0.2804
10755TIP3   OH253755   4.569   1.703   2.438 -0.0618 -0.7440 -0.6341
10755TIP3    H153756   4.660   1.683   2.416  0.0953 -1.4199  0.5860
10755TIP3    H253757   4.568   1.798   2.451  0.1742 -0.5539 -1.9821
10756TIP3   OH253758   5.210   5.728   3.712 -0.1159 -0.1294  0.0347
10756TIP3    H153759   5.276   5.691   3.653 -0.2768  0.1200 -0.3066
10756TIP3    H253760   5.219   5.823   3.702  1.0471 -0.0374  1.7477
10757TIP3   OH253761   2.466   4.158  11.324  0.4358  0.0866 -0.5496
10757TIP3    H153762   2.504   4.101  11.391 -1.5959 -1.6433 -0.7883
10757TIP3    H253763   2.407   4.216  11.373  0.6879  0.3746 -0.5851
10758TIP3   OH253764   4.764   1.034   4.780  0.0214  0.6436 -0.1497
10758TIP3    H153765   4.788   0.990   4.862  1.0532  1.1476 -0.1613
10758TIP3    H253766   4.784   0.970   4.712 -4.0186 -1.0738  0.1390
10759TIP3   OH253767   5.979   3.342   5.855 -0.1236 -0.3145  0.0422
10759TIP3    H153768   6.058   3.351   5.801  0.0572  2.8991  0.7125
10759TIP3    H253769   6.012   3.334   5.944 -0.4969  1.8927  0.4197
10760TIP3   OH253770   5.138   3.437   3.901 -0.2732  0.4446  0.2447
10760TIP3    H153771   5.079   3.429   3.826 -0.0580 -1.2524  0.2508
10760TIP3    H253772   5.223   3.459   3.863  0.8438 -4.5124 -0.4291
10761TIP3   OH253773   5.474   0.994   6.132  0.5283 -0.8799 -0.4340
10761TIP3    H153774   5.554   1.003   6.184  1.4618 -3.0349 -1.4161
10761TIP3    H253775   5.409   0.962   6.194  0.4035  0.8900  0.3757
10762TIP3   OH253776   1.404   5.111  16.920 -0.3285  0.2647  0.2405
10762TIP3    H153777   1.365   5.118  16.833 -0.1924 -0.4462  0.1190
10762TIP3    H253778   1.460   5.034  16.915  1.7254  1.7272  0.1688
10763TIP3   OH253779   4.757   2.181  12.900 -0.2809  0.1865 -0.6666
10763TIP3    H153780   4.736   2.197  12.992 -1.3948 -3.3518 -0.2179
10763TIP3    H253781   4.789   2.091  12.898 -2.5018 -0.6469 -4.0398
10764TIP3   OH253782   1.682   1.700  12.154  0.3027  0.1555 -0.0434
10764TIP3    H153783   1.755   1.662  12.106  0.8094  1.1247 -0.0585
10764TIP3    H253784   1.679   1.652  12.237  0.5771 -0.2852 -0.2880
10765TIP3   OH253785   6.810   6.623  13.720  0.0395 -0.2290 -0.2787
10765TIP3    H153786   6.756   6.625  13.799  0.7914  0.4688  0.2231
10765TIP3    H253787   6.748   6.604  13.650 -0.4761 -1.9314  0.5980
10766TIP3   OH253788   1.334   1.228   4.516 -0.4128 -0.8617  0.7489
10766TIP3    H153789   1.308   1.275   4.436  0.9335 -0.8953  0.2735
10766TIP3    H253790   1.260   1.171   4.535 -1.4069  0.3045  0.4245
10767TIP3   OH253791   6.059   4.563   1.057 -0.0496 -0.0449  0.4767
10767TIP3    H153792   6.130   4.538   1.117  0.5870  0.1681 -0.1850
10767TIP3    H253793   6.076   4.655   1.037 -1.8430  0.6872  2.1393
10768TIP3   OH253794   2.957   4.490  16.224 -0.0422  0.0384  0.2380
10768TIP3    H153795   2.985   4.522  16.138  0.6202  1.0338  0.8103
10768TIP3    H253796   2.988   4.400  16.228  0.4551  0.1851 -0.3174
10769TIP3   OH253797   1.633   6.362   0.087  0.3022  0.4622  0.0998
10769TIP3    H153798   1.710   6.420   0.090  0.8211 -0.2593  0.8435
10769TIP3    H253799   1.624   6.329   0.176  0.2819 -0.9582 -0.4128
10770TIP3   OH253800   6.023   2.190  10.942  0.2730 -0.0251 -0.5692
10770TIP3    H153801   6.003   2.236  10.860  0.1205  1.7719  0.4519
10770TIP3    H253802   5.994   2.100  10.926  1.2152  0.0376 -2.8586
10771TIP3   OH253803   5.148   3.361  15.013 -0.3209  0.5774  0.5622
10771TIP3    H153804   5.107   3.293  15.066 -0.0757 -1.6844 -2.0803
10771TIP3    H253805   5.238   3.331  15.000 -0.6588  0.5680 -1.9819
10772TIP3   OH253806   5.893   1.374   3.073 -0.0470  0.1369  0.3563
10772TIP3    H153807   5.827   1.417   3.127 -0.6241 -1.4415  0.9380
10772TIP3    H253808   5.921   1.441   3.011  0.1013  1.7585  2.1311
10773TIP3   OH253809   3.493   6.666   2.126  0.7523  0.3785 -0.3614
10773TIP3    H153810   3.572   6.692   2.174 -0.6399  0.9645  1.6579
10773TIP3    H253811   3.516   6.582   2.086  2.5602  0.7846 -0.2283
10774TIP3   OH253812   3.993   6.441   6.073 -0.5768 -0.1110  0.6137
10774TIP3    H153813   4.029   6.515   6.121  0.2811  0.4032 -0.7921
10774TIP3    H253814   3.903   6.467   6.052 -0.6987 -0.0134  1.2553
10775TIP3   OH253815   3.454   3.768  13.318  0.0310 -0.3190 -0.1243
10775TIP3    H153816   3.401   3.690  13.337  0.9931 -0.8488  0.4296
10775TIP3    H253817   3.540   3.733  13.293 -0.0502  0.5105 -1.5900
10776TIP3   OH253818   2.224   0.157  13.347  0.0465 -0.3625  0.1278
10776TIP3    H153819   2.288   0.098  13.387  0.9950  0.6708  0.1756
10776TIP3    H253820   2.273   0.238  13.332 -1.1827  0.3521 -0.0928
10777TIP3   OH253821   0.412   1.041  16.882 -0.2573 -0.4810 -0.0929
10777TIP3    H153822   0.345   0.988  16.840  0.9805 -0.6613 -1.8850
10777TIP3    H253823   0.414   1.011  16.973 -0.5496 -2.4962 -0.7484
10778TIP3   OH253824   4.551   2.980   1.413  0.1032  0.1862  0.3765
10778TIP3    H153825   4.639   2.943   1.420  0.2426  0.6810  1.3426
10778TIP3    H253826   4.545   3.013   1.324  0.7262 -0.2749  0.1656
10779TIP3   OH253827   6.765   2.146   0.450  0.2606 -0.6599  0.4244
10779TIP3    H153828   6.684   2.173   0.407  1.1856 -0.0037 -0.9833
10779TIP3    H253829   6.813   2.098   0.383  0.5433 -2.0485  1.5975
10780TIP3   OH253830   2.432   3.470   5.923 -0.5322  0.1829  0.3933
10780TIP3    H153831   2.371   3.496   5.992 -0.8854 -0.7246  0.4298
10780TIP3    H253832   2.384   3.405   5.872  1.1699 -2.1881  1.7310
10781TIP3   OH253833   6.293   2.473  15.473 -0.5201  0.0633  0.3535
10781TIP3    H153834   6.295   2.486  15.378 -0.9921  1.6701  0.5460
10781TIP3    H253835   6.377   2.507  15.504 -0.6306  0.1509  0.5649
10782TIP3   OH253836   5.770   4.616  16.455  0.1933  0.0660 -0.0228
10782TIP3    H153837   5.675   4.610  16.450  0.1395 -0.1987  1.3294
10782TIP3    H253838   5.801   4.526  16.461  0.3672  0.2574  2.2828
10783TIP3   OH253839   3.191   3.096   0.323 -0.0683 -0.1489 -0.2338
10783TIP3    H153840   3.215   3.155   0.252  1.2954  0.1486  0.4679
10783TIP3    H253841   3.257   3.110   0.390 -0.3025 -1.7449  0.3577
10784TIP3   OH253842   5.604   0.568   3.201 -0.5263 -0.3002  0.3664
10784TIP3    H153843   5.676   0.506   3.203 -0.5434 -0.3146  0.5038
10784TIP3    H253844   5.633   0.642   3.254 -0.1520  0.1934 -0.5094
10785TIP3   OH253845   6.737   1.567   2.352 -0.3978 -0.3519  0.8384
10785TIP3    H153846   6.808   1.600   2.407 -0.3450 -0.7072  0.9799
10785TIP3    H253847   6.660   1.568   2.410 -0.3908 -0.5081  0.8492
10786TIP3   OH253848   1.764   0.006   4.772  0.5336 -0.2380  0.1688
10786TIP3    H153849   1.795  -0.054   4.704  0.3435  1.5557 -1.5312
10786TIP3    H253850   1.776   0.093   4.735 -0.8363  0.7218  1.9003
10787TIP3   OH253851   0.340   1.150  12.546 -0.5132 -0.4995 -0.1898
10787TIP3    H153852   0.254   1.109  12.548 -0.8291  0.1401 -0.5164
10787TIP3    H253853   0.394   1.097  12.605 -1.0161 -1.1529 -0.3174
10788TIP3   OH253854   1.416   2.576  14.727  0.0094  0.2890  0.5623
10788TIP3    H153855   1.423   2.668  14.702  0.4829  0.7267  2.2882
10788TIP3    H253856   1.322   2.559  14.729 -0.0613  0.0790 -2.0199
10789TIP3   OH253857   0.564   3.529  17.172  0.1962 -0.2633  0.3481
10789TIP3    H153858   0.644   3.478  17.156  1.4700  0.9314  2.6000
10789TIP3    H253859   0.547   3.573  17.089 -0.4041 -3.5557 -1.3465
10790TIP3   OH253860   6.399   4.820  15.453  0.3268 -0.1040 -0.4157
10790TIP3    H153861   6.489   4.852  15.464  0.5912  0.0003 -2.7009
10790TIP3    H253862   6.344   4.888  15.491  1.1787  0.0559  0.5615
10791TIP3   OH253863   4.365   1.642  12.236 -0.7733  0.5264  0.7190
10791TIP3    H153864   4.360   1.547  12.226  0.0206  0.3428  1.9843
10791TIP3    H253865   4.319   1.676  12.159 -0.7012 -0.8698  0.0316
10792TIP3   OH253866   1.565   5.550   3.691  0.5669 -0.2540  0.2597
10792TIP3    H153867   1.486   5.598   3.716  0.5669 -0.4187  0.5892
10792TIP3    H253868   1.637   5.600   3.730  0.6397  0.0212 -0.2341
10793TIP3   OH253869   5.322   4.969   3.346 -0.2079  0.1967 -0.9818
10793TIP3    H153870   5.312   5.030   3.273 -0.6648 -1.2409 -2.1679
10793TIP3    H253871   5.268   4.893   3.321 -3.2691  1.0618  2.4351
10794TIP3   OH253872   6.654   6.020  12.141 -0.2132  0.2534 -0.4823
10794TIP3    H153873   6.639   5.969  12.221 -1.8500  0.6123 -0.5459
10794TIP3    H253874   6.629   5.961  12.070  3.4073 -0.8749 -0.8953
10795TIP3   OH253875   2.370   4.830  15.200 -0.4018 -0.3270 -0.1954
10795TIP3    H153876   2.291   4.882  15.190  0.1717  0.7017  0.4811
10795TIP3    H253877   2.346   4.760  15.261 -0.6587  0.2872  0.4191
10796TIP3   OH253878   4.965   2.466  14.424  0.0299 -0.1876  0.4676
10796TIP3    H153879   4.962   2.535  14.490 -0.2782 -0.3983  0.6725
10796TIP3    H253880   4.911   2.500  14.352  0.2392 -0.0249  0.3881
10797TIP3   OH253881   1.319   6.651   4.899  0.0985 -0.0770 -0.2525
10797TIP3    H153882   1.400   6.685   4.939 -0.0301 -0.1309  0.0559
10797TIP3    H253883   1.292   6.720   4.838 -0.5394  0.6931  0.8831
10798TIP3   OH253884   1.867   5.043   3.709  0.3860 -0.5459  0.4032
10798TIP3    H153885   1.798   4.983   3.734 -0.3522  0.7982  1.7074
10798TIP3    H253886   1.823   5.111   3.657  1.0748 -0.7182 -0.4282
10799TIP3   OH253887   5.647   0.409   0.290 -0.3782  0.0070 -0.4159
10799TIP3    H153888   5.619   0.365   0.210  1.6547  0.1684 -1.2516
10799TIP3    H253889   5.614   0.499   0.280 -0.4233 -0.0642 -0.9271
10800TIP3   OH253890   3.059   0.189  12.174  0.3125  0.0603  0.3625
10800TIP3    H153891   3.122   0.249  12.215 -0.0511 -1.2867  3.0274
10800TIP3    H253892   3.007   0.245  12.117  2.6453  1.5490 -0.4216
10801TIP3   OH253893   1.971   2.568  16.656 -0.1031 -0.2986  0.0944
10801TIP3    H153894   2.035   2.632  16.687  0.2866 -0.8956  0.5230
10801TIP3    H253895   1.891   2.618  16.644  0.1739  0.2506  0.5352
10802TIP3   OH253896   5.736   1.255  16.880  0.8543 -0.4148  0.2470
10802TIP3    H153897   5.695   1.341  16.883 -1.1106 -1.2105 -2.2685
10802TIP3    H253898   5.666   1.193  16.901  1.0344 -1.7028 -2.6688
10803TIP3   OH253899   5.351   0.073  13.854  0.1330 -0.2184  0.1526
10803TIP3    H153900   5.284   0.006  13.838  0.6871 -0.3885 -1.5264
10803TIP3    H253901   5.431   0.036  13.816  0.9932  0.3499  1.4006
10804TIP3   OH253902   3.633   4.604   4.094  0.0765  0.4518 -0.3319
10804TIP3    H153903   3.654   4.691   4.129 -0.6979  0.8900 -0.9411
10804TIP3    H253904   3.607   4.621   4.003 -0.3328 -0.3863 -0.3699
10805TIP3   OH253905   6.388   2.186  17.286  0.2520 -0.3333  0.1042
10805TIP3    H153906   6.397   2.268  17.334 -3.2304  0.4046 -0.3577
10805TIP3    H253907   6.418   2.206  17.197  2.0744 -0.3691  0.6941
10806TIP3   OH253908   2.034   1.753   1.664 -0.0923 -0.2569 -0.5747
10806TIP3    H153909   1.944   1.767   1.694 -0.2607 -2.3135 -0.0474
10806TIP3    H253910   2.027   1.684   1.598  1.0486 -0.1464 -0.8259
10807TIP3   OH253911   4.273   6.178   6.007 -0.1830 -0.2871 -0.3174
10807TIP3    H153912   4.326   6.133   6.073 -1.7220  1.9275  2.5539
10807TIP3    H253913   4.328   6.252   5.980  1.0083 -1.9711 -2.5910
10808TIP3   OH253914   0.966   5.303   5.132  0.2150  0.9369 -0.3749
10808TIP3    H153915   1.055   5.273   5.152 -0.1352  0.6103  0.7020
10808TIP3    H253916   0.919   5.223   5.108  0.4965  1.2537 -2.0568
10809TIP3   OH253917   6.069   5.023   1.709 -0.0016  0.1177 -0.3072
10809TIP3    H153918   6.059   4.963   1.635  2.9928 -1.3349  0.4262
10809TIP3    H253919   5.986   5.016   1.756 -0.3174 -2.2070 -1.1497
10810TIP3   OH253920   3.289   0.256   2.362  0.3388 -0.9353  0.2982
10810TIP3    H153921   3.226   0.187   2.383  0.7780 -0.7185  2.4523
10810TIP3    H253922   3.240   0.337   2.371 -0.2723 -0.9360 -2.5814
10811TIP3   OH253923   4.567   1.285   1.498  0.8943  0.0972 -0.1155
10811TIP3    H153924   4.543   1.365   1.451 -0.0817 -0.9594 -1.4692
10811TIP3    H253925   4.503   1.278   1.569 -0.0556 -0.3134 -0.9840
10812TIP3   OH253926   4.201   2.317  14.067  0.4737  0.3120  0.3936
10812TIP3    H153927   4.172   2.292  14.154 -0.7808  1.7504  0.4137
10812TIP3    H253928   4.122   2.349  14.023  1.0917 -0.3971 -1.2715
10813TIP3   OH253929   4.424   4.144   3.053 -0.3006 -0.2362  0.1930
10813TIP3    H153930   4.345   4.177   3.011  0.1573  0.4363 -0.1409
10813TIP3    H253931   4.417   4.048   3.043 -1.6664 -0.2635  1.2536
10814TIP3   OH253932   0.935   2.615   4.852 -0.8211  0.1592 -0.1181
10814TIP3    H153933   0.916   2.704   4.820  1.4299  0.5387 -0.4620
10814TIP3    H253934   0.924   2.559   4.775  0.0530  0.4546 -0.4589
10815TIP3   OH253935   1.796   4.260   6.121 -0.1360  0.1527  0.4621
10815TIP3    H153936   1.709   4.231   6.149  0.2071  0.0988  1.5019
10815TIP3    H253937   1.823   4.323   6.187  2.0579 -2.3605  2.0896
10816TIP3   OH253938   5.079   6.055  16.196  0.3515 -0.1445  0.1766
10816TIP3    H153939   5.170   6.079  16.209 -0.0372  0.2452  2.2803
10816TIP3    H253940   5.057   6.091  16.110  0.7840  4.0970  1.7217
10817TIP3   OH253941   5.581   6.295   1.252 -0.0031 -0.0267 -0.9937
10817TIP3    H153942   5.548   6.266   1.337  0.1865 -0.5732 -1.1004
10817TIP3    H253943   5.526   6.249   1.188  1.1962 -1.2683 -1.1766
10818TIP3   OH253944   3.392   3.095  15.060  0.3214  0.3166 -0.3386
10818TIP3    H153945   3.379   3.189  15.048  1.5415  0.4058 -1.0083
10818TIP3    H253946   3.487   3.085  15.068  0.1974 -0.8701 -0.3216
10819TIP3   OH253947   6.001   1.326   0.959 -0.0479 -0.2221 -0.1368
10819TIP3    H153948   5.991   1.326   0.864  2.4036  0.0992 -0.4346
10819TIP3    H253949   6.092   1.354   0.974 -0.1566 -0.9783  2.2647
10820TIP3   OH253950   3.073   3.380  11.816  0.4512 -0.0852 -0.0365
10820TIP3    H153951   3.147   3.414  11.866  1.0302 -3.1305  1.3300
10820TIP3    H253952   3.013   3.345  11.882  0.4846 -2.7519 -1.3186
10821TIP3   OH253953   0.558   2.784   4.071 -0.1841 -0.2873  0.3240
10821TIP3    H153954   0.496   2.853   4.094 -0.9697 -0.5247 -0.9832
10821TIP3    H253955   0.644   2.825   4.078 -0.6431  0.8484 -0.4847
10822TIP3   OH253956   6.598   4.320   1.937 -0.0971  0.3897 -0.2683
10822TIP3    H153957   6.625   4.411   1.929 -0.8612  0.8489  2.0586
10822TIP3    H253958   6.669   4.277   1.984 -1.0331  0.4706  1.2726
10823TIP3   OH253959   2.916   3.488   4.706  0.4532  0.1498 -0.0223
10823TIP3    H153960   2.844   3.504   4.767 -0.9419 -0.8379 -1.3694
10823TIP3    H253961   2.988   3.543   4.738 -0.4125  0.0260  2.1908
10824TIP3   OH253962   6.657   2.091   4.770 -0.0904  0.4511 -0.6297
10824TIP3    H153963   6.693   2.141   4.697  1.2675 -0.8114 -0.8447
10824TIP3    H253964   6.692   2.003   4.759  3.5420  1.1599  3.7786
10825TIP3   OH253965   1.350   4.272   4.710  0.3370  0.1836 -0.1871
10825TIP3    H153966   1.333   4.211   4.782  0.6459  0.8379  0.4595
10825TIP3    H253967   1.332   4.222   4.631  0.2793 -0.6445  0.3400
10826TIP3   OH253968   4.343   6.405   2.363 -0.5740 -0.6139  0.2134
10826TIP3    H153969   4.419   6.393   2.306  0.1210  1.4184  0.6647
10826TIP3    H253970   4.270   6.368   2.314  0.3525 -0.6639 -1.1565
10827TIP3   OH253971   3.435   0.458  16.339  0.0086 -0.3139 -0.4979
10827TIP3    H153972   3.524   0.482  16.366 -0.4826  1.9456 -0.7295
10827TIP3    H253973   3.445   0.377  16.289  1.7541 -0.8234  0.6491
10828TIP3   OH253974   3.541   5.549   5.439  0.0284 -0.1014 -0.7960
10828TIP3    H153975   3.512   5.458   5.437  2.0528 -0.7839 -0.5203
10828TIP3    H253976   3.636   5.544   5.427  0.4522  1.8167  1.2875
10829TIP3   OH253977   1.098   4.249  10.975 -0.7968  0.2658 -0.1318
10829TIP3    H153978   1.086   4.184  10.907 -2.2997  1.0662 -0.6432
10829TIP3    H253979   1.010   4.266  11.009 -0.2654  1.0832  0.8740
10830TIP3   OH253980   5.361   3.274  11.980 -0.1934 -0.3074  0.1383
10830TIP3    H153981   5.338   3.239  12.066  0.0380  3.7034  1.9513
10830TIP3    H253982   5.278   3.309  11.946  0.0140 -0.5711 -0.6559
10831TIP3   OH253983   0.643   3.905   3.302  0.2667  0.3625  0.2143
10831TIP3    H153984   0.622   3.817   3.271  1.3603  0.5766 -1.1911
10831TIP3    H253985   0.720   3.893   3.357 -0.3279  0.2841  1.0380
10832TIP3   OH253986   0.147   4.877   5.371 -0.0974 -0.2199 -0.2728
10832TIP3    H153987   0.119   4.786   5.360  2.5509 -1.2431  0.9554
10832TIP3    H253988   0.190   4.900   5.289 -0.5427 -0.1738 -0.4894
10833TIP3   OH253989   1.277   1.831   4.980  0.2457  0.1190 -0.8030
10833TIP3    H153990   1.346   1.812   4.916  0.4314 -0.3392 -0.4771
10833TIP3    H253991   1.227   1.902   4.942 -0.4937 -1.0693 -2.0908
10834TIP3   OH253992   5.020   6.089   3.513 -0.0334  0.5533  0.0338
10834TIP3    H153993   5.025   6.179   3.480 -0.9257  0.5961  0.0058
10834TIP3    H253994   5.108   6.055   3.502 -0.0419  0.9371 -1.3446
10835TIP3   OH253995   0.980   3.517  10.658  0.0844  0.2988  0.3266
10835TIP3    H153996   0.885   3.529  10.664 -0.0107 -0.0838 -0.4056
10835TIP3    H253997   1.015   3.606  10.657 -0.4706  0.5218 -2.7823
10836TIP3   OH253998   1.045   3.687  11.168  0.6613 -0.2004  0.2013
10836TIP3    H153999   1.053   3.751  11.239 -0.0495 -0.7360  0.7742
10836TIP3    H254000   1.093   3.726  11.095  0.7318  0.7153  0.7271
10837TIP3   OH254001   2.329   6.308   0.854 -0.2447 -0.8906  0.3191
10837TIP3    H154002   2.407   6.254   0.842  0.0375 -0.2577 -0.6960
10837TIP3    H254003   2.256   6.248   0.839  0.0645 -0.5549 -2.8976
10838TIP3   OH254004   2.538   4.598  16.358  0.0823  0.5155  0.2756
10838TIP3    H154005   2.526   4.670  16.295 -2.1644  0.4986  0.6522
10838TIP3    H254006   2.502   4.631  16.440  2.7276  0.4220  1.5287
10839TIP3   OH254007   0.194   0.947  16.296  0.0113  0.8903  0.6875
10839TIP3    H154008   0.278   0.900  16.291 -0.3353  0.3779 -0.4111
10839TIP3    H254009   0.173   0.947  16.389 -0.5486 -2.1579  0.6321
10840TIP3   OH254010   0.779   2.703   0.178 -0.3711  0.3310 -0.1833
10840TIP3    H154011   0.815   2.670   0.096  0.4195 -1.4586  0.8606
10840TIP3    H254012   0.837   2.774   0.203 -0.2906  0.5163 -0.8874
10841TIP3   OH254013   6.496   0.245  14.813 -0.1224  0.2325 -0.0593
10841TIP3    H154014   6.512   0.339  14.810 -1.3754  0.5463  2.0410
10841TIP3    H254015   6.563   0.212  14.874 -2.8855  0.5714  3.3302
10842TIP3   OH254016   3.333   0.646   1.400 -0.0097 -0.8263  0.0878
10842TIP3    H154017   3.363   0.698   1.324  0.0790 -0.5843  0.2880
10842TIP3    H254018   3.349   0.555   1.374 -2.5000 -0.9047 -1.2727
10843TIP3   OH254019   2.024   1.735  14.160 -0.2325 -0.5306  0.6500
10843TIP3    H154020   2.109   1.703  14.193 -0.7673 -0.5850  2.0287
10843TIP3    H254021   2.022   1.827  14.186 -1.1934 -0.8915  1.9143
10844TIP3   OH254022   4.841   0.526  14.133 -0.6807 -0.4497 -0.4526
10844TIP3    H154023   4.928   0.548  14.099  0.5102 -2.4166  1.1518
10844TIP3    H254024   4.835   0.574  14.216 -0.3909 -1.6009  0.2602
10845TIP3   OH254025   1.199   3.684   0.743  0.2254  0.5957  0.0665
10845TIP3    H154026   1.248   3.722   0.816  1.5785 -0.0977 -0.4825
10845TIP3    H254027   1.265   3.647   0.685 -0.8396  1.0449 -1.4821
10846TIP3   OH254028   3.770   6.224  15.039  0.0613  0.1117 -0.5773
10846TIP3    H154029   3.790   6.277  15.116  1.2628 -0.6983 -0.3091
10846TIP3    H254030   3.750   6.137  15.074 -0.6628  0.0588 -1.0986
10847TIP3   OH254031   0.553   6.020   5.275  0.7191 -0.2216 -0.0801
10847TIP3    H154032   0.537   5.931   5.305  1.0043  0.1270  1.1585
10847TIP3    H254033   0.637   6.016   5.230  1.3951 -0.3242  1.1616
10848TIP3   OH254034   0.454   5.323  13.949 -0.1897 -0.8472  0.2473
10848TIP3    H154035   0.390   5.251  13.953 -1.2760  0.0263 -0.9061
10848TIP3    H254036   0.447   5.356  13.859  1.1117 -0.0321  0.4352
10849TIP3   OH254037   3.535   6.754   0.466  0.3825 -0.2677  0.4453
10849TIP3    H154038   3.503   6.766   0.556 -0.1594  0.4248  0.1649
10849TIP3    H254039   3.457   6.767   0.412  1.0227  0.8138 -0.2127
10850TIP3   OH254040   0.491   4.864  12.139 -0.1520 -0.2162 -0.2350
10850TIP3    H154041   0.577   4.877  12.179 -0.0281 -1.5305 -0.0397
10850TIP3    H254042   0.497   4.907  12.054  0.4960  0.2274  0.0318
10851TIP3   OH254043   3.020   0.425  15.860  0.7074  0.2650 -0.2101
10851TIP3    H154044   3.057   0.404  15.946 -0.8370 -0.1260  0.3661
10851TIP3    H254045   3.096   0.454  15.808  1.6424  0.5372  1.2759
10852TIP3   OH254046   0.787   2.974  14.119  0.9941  0.0954  0.1932
10852TIP3    H154047   0.811   3.040  14.184  0.1757 -1.5931  2.2728
10852TIP3    H254048   0.823   2.892  14.154 -0.1056 -0.9717 -1.1044
10853TIP3   OH254049   4.433   3.623  13.496 -0.2786 -0.0950  0.0842
10853TIP3    H154050   4.405   3.544  13.542  0.4270 -0.4320 -0.0579
10853TIP3    H254051   4.401   3.612  13.406 -0.4568 -0.0671  0.1452
10854TIP3   OH254052   1.180   5.289  12.227  0.6466  0.0450 -0.4404
10854TIP3    H154053   1.255   5.285  12.168  0.2706 -1.6071 -0.8341
10854TIP3    H254054   1.106   5.257  12.175 -0.0657  0.4082  0.3324
10855TIP3   OH254055   0.016   1.991  14.251  0.0331 -0.8851 -0.2921
10855TIP3    H154056  -0.055   2.018  14.192  1.3007  1.2151 -0.8869
10855TIP3    H254057   0.018   1.896  14.243 -2.1182 -0.9108 -0.9612
10856TIP3   OH254058   1.465   1.962  12.967 -0.3303  0.0426 -0.0824
10856TIP3    H154059   1.506   1.881  12.936 -0.0221  0.1848 -0.0473
10856TIP3    H254060   1.378   1.935  12.997 -0.7474 -0.0551 -1.3449
10857TIP3   OH254061   2.421   2.250  13.558 -0.2615 -0.0216  0.1762
10857TIP3    H154062   2.395   2.283  13.644  0.1588 -1.1079  0.7290
10857TIP3    H254063   2.339   2.225  13.515 -0.3308 -1.1928  0.9799
10858TIP3   OH254064   3.681   0.288   2.554 -0.6468  0.5762  0.3745
10858TIP3    H154065   3.733   0.354   2.507 -0.9859  0.8791  0.4163
10858TIP3    H254066   3.720   0.285   2.641  0.7343 -0.8472 -0.2805
10859TIP3   OH254067   1.323   6.048   4.593  0.2409 -0.1107 -0.1972
10859TIP3    H154068   1.376   6.020   4.668  2.2755 -0.0866 -1.5896
10859TIP3    H254069   1.331   6.144   4.593 -0.1243 -0.0786 -0.1869
10860TIP3   OH254070   5.916   1.084  10.869  0.2062 -0.0945  0.3286
10860TIP3    H154071   5.840   1.102  10.814 -0.0430 -1.7527  0.1068
10860TIP3    H254072   5.971   1.162  10.861 -1.1317  0.8277 -0.0588
10861TIP3   OH254073   2.646   0.667  15.325  0.5000 -0.0593  0.1940
10861TIP3    H154074   2.596   0.625  15.394  0.5427 -0.9354 -0.3017
10861TIP3    H254075   2.606   0.754  15.316 -1.4798 -1.0337 -0.7518
10862TIP3   OH254076   3.969   4.334  14.151 -0.4333  0.6040  0.1726
10862TIP3    H154077   3.933   4.245  14.145  1.2329  0.0186 -1.8651
10862TIP3    H254078   4.034   4.337  14.081  0.9044  2.8061  1.4963
10863TIP3   OH254079   5.333   2.100   2.106  0.2982  0.6122 -0.5548
10863TIP3    H154080   5.302   2.019   2.145  0.4111 -0.1691 -2.0464
10863TIP3    H254081   5.373   2.073   2.023 -0.5491  2.2954 -1.5344
10864TIP3   OH254082   5.107   1.595  15.386  0.4964  0.2061 -0.1346
10864TIP3    H154083   5.165   1.644  15.444  1.0919 -0.4157 -0.2075
10864TIP3    H254084   5.041   1.558  15.444  1.1480 -0.4950  0.1671
10865TIP3   OH254085   0.060   4.061   1.656  0.1977 -0.0414 -0.6531
10865TIP3    H154086  -0.019   4.051   1.708  0.6976  3.4894  0.9626
10865TIP3    H254087   0.036   4.124   1.588  1.3499  0.3308 -0.7252
10866TIP3   OH254088   0.173   4.437  13.501  0.7459 -0.2074 -0.1396
10866TIP3    H154089   0.123   4.511  13.468  1.9087  2.5700  3.8823
10866TIP3    H254090   0.264   4.460  13.481  1.0609 -0.7449  0.6461
10867TIP3   OH254091   3.454   3.566   0.425 -0.0318 -0.0306  0.3228
10867TIP3    H154092   3.407   3.521   0.356 -1.4311  2.5592 -0.4981
10867TIP3    H254093   3.385   3.605   0.480  1.0925  0.7810  1.2058
10868TIP3   OH254094   1.834   0.649  16.177  0.3642  0.3032  0.0236
10868TIP3    H154095   1.842   0.607  16.262 -0.8007  0.2906  0.1396
10868TIP3    H254096   1.775   0.723  16.193  0.1949  0.3396 -0.7555
10869TIP3   OH254097   3.042   5.184  14.682 -0.0802  0.5256 -0.4666
10869TIP3    H154098   3.068   5.276  14.674 -1.2430  0.8684 -0.4249
10869TIP3    H254099   2.961   5.178  14.631  0.6081 -0.7423 -1.4459
10870TIP3   OH254100   4.991   0.205   1.989  0.3237  0.6385 -0.0103
10870TIP3    H154101   4.941   0.197   1.908 -0.3617  0.2423  0.4495
10870TIP3    H254102   5.078   0.170   1.967  0.2281  0.8030 -0.6539
10871TIP3   OH254103   3.086   3.323  13.693 -0.1427  0.6676  0.1383
10871TIP3    H154104   3.043   3.403  13.663 -0.2841  1.3611  2.1207
10871TIP3    H254105   3.039   3.300  13.774  0.4876 -0.9126  0.0729
10872TIP3   OH254106   1.295   1.047   5.819  1.0379  0.6310  0.6653
10872TIP3    H154107   1.329   1.136   5.808  2.4990  0.0744  0.5394
10872TIP3    H254108   1.328   0.999   5.743  1.2681 -0.3231  1.3617
10873TIP3   OH254109   4.072   3.160   2.096 -0.0990  0.5900 -0.4743
10873TIP3    H154110   4.100   3.074   2.067  2.5296  1.7010 -1.4032
10873TIP3    H254111   4.116   3.172   2.181 -1.3828  0.5799  0.2162
10874TIP3   OH254112   1.767   4.590  13.630 -0.1958  0.2147  0.4129
10874TIP3    H154113   1.749   4.539  13.552 -0.5189  0.4100  0.3602
10874TIP3    H254114   1.842   4.546  13.671  0.4607  0.5652 -0.4094
10875TIP3   OH254115   1.429   5.140   5.068 -0.0199 -0.6186 -0.5076
10875TIP3    H154116   1.484   5.197   5.121 -2.4925  0.4755  0.9913
10875TIP3    H254117   1.474   5.055   5.069  1.3681  0.1187  1.0765
10876TIP3   OH254118   6.126   1.932   0.709 -0.6102 -0.0282  0.2978
10876TIP3    H154119   6.037   1.903   0.730 -0.9820  0.7300 -0.1780
10876TIP3    H254120   6.168   1.943   0.795 -1.1574  0.1505  0.5490
10877TIP3   OH254121   5.325   0.707  13.949 -0.5531  0.1805 -0.0081
10877TIP3    H154122   5.379   0.676  13.877 -0.9237  1.5359 -0.9036
10877TIP3    H254123   5.369   0.676  14.028 -0.5268 -1.9153 -0.8354
10878TIP3   OH254124   2.750   4.898  16.175  0.2404  0.0268 -0.1573
10878TIP3    H154125   2.756   4.831  16.243  1.0468  1.1873  0.9573
10878TIP3    H254126   2.721   4.976  16.222  2.8488  1.3985 -0.7196
10879TIP3   OH254127   6.410   1.774   1.557  0.3738 -0.1710 -0.3109
10879TIP3    H154128   6.473   1.798   1.625  0.2467  2.2664 -1.0145
10879TIP3    H254129   6.462   1.723   1.494  1.6752  1.8244 -0.8915
10880TIP3   OH254130   4.248   6.209  15.303  0.0417 -0.2838 -0.3312
10880TIP3    H154131   4.249   6.160  15.385  1.7699 -0.3712 -0.3912
10880TIP3    H254132   4.221   6.297  15.328  0.3694 -0.3609  0.3036
10881TIP3   OH254133   1.531   5.622   0.775 -0.4200  0.0050 -0.3480
10881TIP3    H154134   1.609   5.578   0.741  0.8231  1.2178  0.8853
10881TIP3    H254135   1.550   5.716   0.765 -1.8967  0.3041 -0.4335
10882TIP3   OH254136   1.487   6.382   3.523  0.3259 -0.1065  0.3642
10882TIP3    H154137   1.406   6.396   3.474  0.8035 -0.5753 -0.5835
10882TIP3    H254138   1.545   6.452   3.493  0.5681 -0.3053  0.3717
10883TIP3   OH254139   1.043   3.294  11.735 -0.2809  0.1665  0.2898
10883TIP3    H154140   1.004   3.350  11.668 -0.0048  0.1474  0.1128
10883TIP3    H254141   1.054   3.209  11.692  1.5081  0.6218 -0.1925
10884TIP3   OH254142   6.639   0.799   0.231 -0.1879 -0.3023 -0.5907
10884TIP3    H154143   6.634   0.884   0.275  0.4081 -0.9943  0.8586
10884TIP3    H254144   6.634   0.819   0.138  2.4003  1.5275 -0.3701
10885TIP3   OH254145   3.915   0.591   5.862 -0.3433  0.1074 -0.2357
10885TIP3    H154146   3.889   0.517   5.806 -0.2639 -0.9048  1.0378
10885TIP3    H254147   3.844   0.599   5.925 -0.6781  1.5778 -0.7830
10886TIP3   OH254148   4.925   0.738   5.771  0.0426 -0.1042  0.5339
10886TIP3    H154149   5.011   0.774   5.791 -0.7355  0.8391  2.3317
10886TIP3    H254150   4.887   0.800   5.708 -0.1560  0.6657  1.3987
10887TIP3   OH254151   6.756   3.430   0.894  0.2270  0.5759  0.4484
10887TIP3    H154152   6.673   3.444   0.941 -1.1009  2.1896 -2.2221
10887TIP3    H254153   6.748   3.342   0.858  0.0225  0.4044  0.9099
10888TIP3   OH254154   0.358   3.282   3.403 -0.3383 -0.7734 -0.3592
10888TIP3    H154155   0.323   3.237   3.480  1.4032  0.2692  1.0669
10888TIP3    H254156   0.449   3.253   3.397  0.9697  2.7960  0.8471
10889TIP3   OH254157   2.414   0.837  10.676 -0.2410  0.6476  1.1488
10889TIP3    H154158   2.407   0.925  10.712  1.3086  1.3924 -0.3160
10889TIP3    H254159   2.383   0.845  10.586  3.4271  0.5821 -0.2353
10890TIP3   OH254160   2.803   1.387  10.842  0.0040  0.5876  0.4212
10890TIP3    H154161   2.833   1.464  10.794  0.1786 -0.3573 -1.0243
10890TIP3    H254162   2.871   1.371  10.908  0.8395  0.6264 -0.4307
10891TIP3   OH254163   6.566   1.423  11.825  0.1144 -0.3952  0.3262
10891TIP3    H154164   6.532   1.491  11.885  2.0384 -0.4236  1.4926
10891TIP3    H254165   6.499   1.355  11.826 -1.3295  0.9892  0.0051
10892TIP3   OH254166   3.419   1.379  12.018 -0.3899  0.8621  0.1505
10892TIP3    H154167   3.374   1.330  12.086 -0.6500  1.5791  0.5003
10892TIP3    H254168   3.365   1.367  11.940  0.4499 -0.8070 -0.2080
10893TIP3   OH254169   5.794   6.373   1.095  0.0566  0.5644 -0.1018
10893TIP3    H154170   5.834   6.450   1.136  0.1869  0.8518 -0.7729
10893TIP3    H254171   5.714   6.358   1.146  0.1307  1.0215  0.1504
10894TIP3   OH254172   2.292   6.493   4.466  0.4958 -0.0550 -0.0684
10894TIP3    H154173   2.243   6.573   4.445  2.8025  0.9853 -1.6943
10894TIP3    H254174   2.299   6.447   4.382  0.1447 -1.4359  0.6502
10895TIP3   OH254175   6.138   4.792  12.731 -0.0878  0.2722 -0.2986
10895TIP3    H154176   6.118   4.874  12.777  0.4421  0.7582 -0.9262
10895TIP3    H254177   6.208   4.815  12.670 -0.8996 -0.3433 -1.4661
10896TIP3   OH254178   0.815   0.389   5.380  0.2505  0.5338 -0.6560
10896TIP3    H154179   0.786   0.479   5.395 -1.2154 -0.3196  1.8228
10896TIP3    H254180   0.911   0.396   5.376  0.2355  2.0254  0.7967
10897TIP3   OH254181   3.054   3.285  16.614  0.3040  0.2238  0.2323
10897TIP3    H154182   3.056   3.215  16.680  2.7811  0.3972  0.3929
10897TIP3    H254183   3.050   3.240  16.530  1.8236 -0.1307  0.3410
10898TIP3   OH254184   5.082   6.252   4.390  0.0791 -0.4698 -0.5615
10898TIP3    H154185   5.103   6.265   4.482 -2.8213 -0.8466  0.1954
10898TIP3    H254186   5.166   6.260   4.345  1.5925 -0.6394  2.1351
10899TIP3   OH254187   2.012   2.408   4.393 -0.5886  0.8954 -0.1654
10899TIP3    H154188   2.097   2.451   4.389  0.1182 -0.3965  0.5627
10899TIP3    H254189   1.970   2.430   4.310  1.3472 -0.2879 -1.4838
10900TIP3   OH254190   3.362   3.809  12.648 -0.5246  0.2400 -0.2135
10900TIP3    H154191   3.311   3.728  12.640 -1.2468  0.7612 -1.0222
10900TIP3    H254192   3.352   3.834  12.740 -1.0788 -0.0957 -0.1773
10901TIP3   OH254193   2.862   0.957  13.140 -0.4049 -0.2140  0.3645
10901TIP3    H154194   2.798   0.957  13.211 -1.2444 -3.5287 -0.2961
10901TIP3    H254195   2.834   0.885  13.083  1.3624  1.1373 -2.2958
10902TIP3   OH254196   3.409   3.873   0.273  0.1502  0.1226  0.2961
10902TIP3    H154197   3.481   3.901   0.329 -0.5155 -0.0988  1.2734
10902TIP3    H254198   3.347   3.830   0.332 -0.2197 -0.7771 -0.7288
10903TIP3   OH254199   4.515   4.529   2.334 -0.5142 -0.0665 -0.6809
10903TIP3    H154200   4.547   4.619   2.338 -0.5837  0.0505 -2.4247
10903TIP3    H254201   4.482   4.519   2.245  1.0509 -2.3531 -1.0546
10904TIP3   OH254202   3.024   1.262  15.818 -0.6839  0.6057  0.0487
10904TIP3    H154203   3.010   1.354  15.798 -0.3902  0.4106 -1.1241
10904TIP3    H254204   2.947   1.235  15.868 -1.9382  0.8733 -1.7074
10905TIP3   OH254205   4.450   5.058  11.469  0.5260 -0.2390  0.1058
10905TIP3    H154206   4.418   5.012  11.547  1.3294  0.1950  0.7041
10905TIP3    H254207   4.377   5.113  11.442  0.4853  0.1409  0.9805
10906TIP3   OH254208   0.459   5.923   1.952  0.6358 -0.3882 -0.4370
10906TIP3    H154209   0.525   5.991   1.962  0.2128 -0.2173  1.2687
10906TIP3    H254210   0.509   5.841   1.953  0.9951 -0.1746 -0.9572
10907TIP3   OH254211   2.905   1.796  11.427 -0.1012  0.4111  0.2883
10907TIP3    H154212   2.995   1.828  11.423 -0.4468  1.2182 -1.1352
10907TIP3    H254213   2.887   1.762  11.339 -0.4718 -1.7287  1.1518
10908TIP3   OH254214   6.598   5.950  11.000 -0.4244  0.4281 -0.3745
10908TIP3    H154215   6.527   5.897  11.035 -0.4978  1.1307  0.5561
10908TIP3    H254216   6.616   5.913  10.914 -2.9266  1.1794 -1.2580
10909TIP3   OH254217   0.115   5.738  15.475  0.0406 -0.0706  0.4090
10909TIP3    H154218   0.094   5.705  15.563 -0.6243  1.3186  0.7869
10909TIP3    H254219   0.082   5.828  15.475 -0.8194 -0.3601 -1.5758
10910TIP3   OH254220   6.063   2.451   3.809 -0.1904  0.1215  0.2232
10910TIP3    H154221   5.977   2.473   3.774  0.5585  2.8932 -0.0252
10910TIP3    H254222   6.056   2.469   3.903 -0.0655 -0.2826  0.3112
10911TIP3   OH254223   4.402   3.884   3.852 -0.4725  0.7248 -0.4178
10911TIP3    H154224   4.326   3.943   3.845 -1.1496 -0.0685  0.1634
10911TIP3    H254225   4.399   3.853   3.942 -1.5165 -2.0398 -1.3601
10912TIP3   OH254226   0.082   2.505   0.708  0.3554  0.2610 -0.0757
10912TIP3    H154227   0.004   2.527   0.658 -0.3454  0.9745  1.3182
10912TIP3    H254228   0.132   2.447   0.650 -0.6508  0.7180 -1.4135
10913TIP3   OH254229   2.580   6.231  11.123  0.4029  0.3963  0.2145
10913TIP3    H154230   2.529   6.312  11.131  1.4126  1.2220 -1.3643
10913TIP3    H254231   2.640   6.248  11.051  1.4946 -1.3243  0.6906
10914TIP3   OH254232   4.120   2.712  10.902 -0.3183 -0.1624  0.5927
10914TIP3    H154233   4.098   2.636  10.957 -0.6275 -2.3249 -2.4127
10914TIP3    H254234   4.215   2.706  10.891 -0.3187  0.0145  0.4993
10915TIP3   OH254235   3.203   1.749   0.936 -0.2052 -0.1302 -0.3103
10915TIP3    H154236   3.262   1.800   0.881  0.3693  0.0360  0.4516
10915TIP3    H254237   3.180   1.809   1.007  2.1699 -1.6054  1.7671
10916TIP3   OH254238   3.346   0.655  12.575  0.3715 -0.0199 -0.4960
10916TIP3    H154239   3.349   0.574  12.626  3.0189 -0.3172 -1.0617
10916TIP3    H254240   3.368   0.724  12.637  0.1427  0.0223 -0.4617
10917TIP3   OH254241   4.395   1.424   5.134  0.3428  0.0598 -0.4455
10917TIP3    H154242   4.362   1.502   5.179  1.9896  0.7328 -0.3744
10917TIP3    H254243   4.390   1.354   5.200  1.9421  0.8498  0.5438
10918TIP3   OH254244   4.150   4.543   3.291 -0.1860  0.0030  0.4651
10918TIP3    H154245   4.149   4.573   3.200  0.8932  1.0782  0.7893
10918TIP3    H254246   4.243   4.542   3.314 -0.2434 -2.7656  0.7598
10919TIP3   OH254247   5.940   3.536  13.243 -0.1496  0.0460  0.1389
10919TIP3    H154248   6.026   3.503  13.217  0.3117  2.2953 -1.3108
10919TIP3    H254249   5.957   3.585  13.324 -0.7147 -2.5071  1.8799
10920TIP3   OH254250   5.222   2.740  13.438  0.2896  0.4051  0.0644
10920TIP3    H154251   5.202   2.801  13.367  3.7214  2.5117  0.8153
10920TIP3    H254252   5.309   2.765  13.467 -0.0544 -2.0208  3.4099
10921TIP3   OH254253   2.650   1.325   6.525  0.6847  0.4625  0.1244
10921TIP3    H154254   2.564   1.349   6.492  0.4497 -0.4431  0.0705
10921TIP3    H254255   2.701   1.407   6.523 -0.2340  1.0459  0.3711
10922TIP3   OH254256   5.596   6.308  13.521 -0.3742 -0.7229  0.3857
10922TIP3    H154257   5.597   6.342  13.610  0.5879 -0.3807  0.2482
10922TIP3    H254258   5.543   6.228  13.526 -0.8726 -0.3476  1.1245
10923TIP3   OH254259   6.670   6.048  14.883 -0.3306  0.2647  0.1770
10923TIP3    H154260   6.727   6.123  14.865 -0.1616 -0.0541 -0.6753
10923TIP3    H254261   6.621   6.072  14.961  0.6877  0.7114  0.6822
10924TIP3   OH254262   3.114   3.521   5.665  0.0391 -0.1985 -0.5615
10924TIP3    H154263   3.112   3.511   5.760 -0.6461  1.2558 -0.4066
10924TIP3    H254264   3.207   3.532   5.644  0.3309 -1.9579 -0.2293
10925TIP3   OH254265   0.170   2.869   0.652 -0.8115  0.2703 -0.4572
10925TIP3    H154266   0.078   2.860   0.629 -1.0736  2.5783 -0.4363
10925TIP3    H254267   0.216   2.862   0.568 -1.0726  0.0577 -0.5861
10926TIP3   OH254268   2.147   2.783  16.692  0.0445  0.0132 -0.1701
10926TIP3    H154269   2.094   2.856  16.722  0.3999  0.7060 -1.1732
10926TIP3    H254270   2.207   2.765  16.765 -0.1657  0.6084  0.1532
10927TIP3   OH254271   5.409   6.016   3.778  0.4222 -0.2911  0.5093
10927TIP3    H154272   5.401   5.946   3.843  0.5492 -1.0035 -0.2480
10927TIP3    H254273   5.480   5.988   3.720 -0.1866  0.0015 -0.3874
10928TIP3   OH254274   5.779   0.862  16.937  0.2186  0.2771 -0.0814
10928TIP3    H154275   5.711   0.803  16.969 -0.4828  0.9034 -0.4052
10928TIP3    H254276   5.860   0.829  16.975 -0.5113  0.6357  1.8104
10929TIP3   OH254277   6.187   0.776   5.675 -0.1112  0.4472  0.0154
10929TIP3    H154278   6.117   0.772   5.740  0.8115 -1.3493  0.9232
10929TIP3    H254279   6.143   0.803   5.594 -1.6441  0.5018  0.8519
10930TIP3   OH254280   4.928   0.541   2.876  0.4322  0.4425  0.7265
10930TIP3    H154281   4.915   0.630   2.911  0.9717  1.7407 -2.2470
10930TIP3    H254282   5.023   0.533   2.868  0.2897  0.5725 -1.3445
10931TIP3   OH254283   0.294   3.375  12.517  0.4220 -0.2443 -0.4533
10931TIP3    H154284   0.301   3.448  12.578  1.9244 -2.6683  2.4005
10931TIP3    H254285   0.200   3.358  12.510  0.2311  0.1514  1.0687
10932TIP3   OH254286   2.259   2.284   3.197  0.3767  0.2359  0.4936
10932TIP3    H154287   2.229   2.290   3.107  0.5408  3.2950  0.5990
10932TIP3    H254288   2.280   2.191   3.209  0.3720 -0.2196 -2.5969
10933TIP3   OH254289   5.035   5.718  10.515  0.1924  0.1731  0.9772
10933TIP3    H154290   4.994   5.793  10.559 -0.9017 -0.3414  0.8655
10933TIP3    H254291   5.030   5.648  10.579  2.0569  0.4211  1.4278
10934TIP3   OH254292   4.523   3.735   0.316  0.4585  0.2697 -0.2664
10934TIP3    H154293   4.604   3.783   0.330  0.6215  0.2568 -1.1327
10934TIP3    H254294   4.550   3.646   0.296  0.1672 -0.1258  1.0435
10935TIP3   OH254295   0.006   3.823  15.145 -0.8731 -0.0975  0.2519
10935TIP3    H154296   0.045   3.816  15.232  0.4260  2.4113 -0.0943
10935TIP3    H254297   0.051   3.755  15.093  0.6601  0.5459  0.7151
10936TIP3   OH254298   6.614   0.371   0.637 -0.1328  0.3665 -0.8377
10936TIP3    H154299   6.554   0.351   0.709 -0.6782  0.7155 -1.1960
10936TIP3    H254300   6.576   0.327   0.561 -0.0938  0.8319 -1.1263
10937TIP3   OH254301   2.531   6.393   4.742  0.4984 -0.1494  0.0933
10937TIP3    H154302   2.572   6.376   4.827  0.5416 -1.1112 -0.1170
10937TIP3    H254303   2.586   6.461   4.703  1.1927 -0.5577  0.3353
10938TIP3   OH254304   1.718   3.246  12.522 -0.5627 -0.2078  0.0059
10938TIP3    H154305   1.666   3.326  12.524 -0.3603 -0.0131 -1.6916
10938TIP3    H254306   1.685   3.198  12.446  1.3515 -0.3383 -0.7701
10939TIP3   OH254307   1.201   3.674   4.561  0.0755 -0.5652  0.2255
10939TIP3    H154308   1.172   3.631   4.641  1.1193 -1.5791  0.0613
10939TIP3    H254309   1.195   3.767   4.580 -0.4005 -0.7953  1.2195
10940TIP3   OH254310   2.260   3.008   5.589 -0.5273  0.1379 -0.1899
10940TIP3    H154311   2.185   2.961   5.553  0.6102 -0.3735 -1.9519
10940TIP3    H254312   2.266   3.088   5.537 -0.2082  0.4727  0.3497
10941TIP3   OH254313   0.830   5.716   0.230 -0.0866 -0.1894 -0.1175
10941TIP3    H154314   0.772   5.644   0.206  2.9120 -2.6059 -0.4104
10941TIP3    H254315   0.856   5.698   0.320  1.1061  0.2153 -0.3638
10942TIP3   OH254316   3.544   3.011  13.786 -0.2646 -0.3607 -0.4113
10942TIP3    H154317   3.489   3.089  13.783 -0.7200 -0.6495  0.3886
10942TIP3    H254318   3.491   2.942  13.747 -0.6582 -0.7472  0.7915
10943TIP3   OH254319   3.685   0.649  11.325 -0.3907  0.6537  0.7336
10943TIP3    H154320   3.726   0.589  11.387 -0.5116  0.6648  0.8246
10943TIP3    H254321   3.607   0.681  11.370  0.7236  2.4189  1.4668
10944TIP3   OH254322   3.275   5.611  14.268 -0.0303 -0.1798 -0.3668
10944TIP3    H154323   3.229   5.694  14.282 -2.8265 -1.3481 -2.2481
10944TIP3    H254324   3.287   5.575  14.356 -0.2734  1.4234  0.3418
10945TIP3   OH254325   3.919   1.175  15.439  0.0434 -0.1647  0.1224
10945TIP3    H154326   4.000   1.151  15.394 -0.1203  0.7427 -0.6473
10945TIP3    H254327   3.949   1.214  15.521  0.3311 -2.1409  1.0085
10946TIP3   OH254328   3.822   1.366  15.247 -0.1041 -0.5456 -0.8162
10946TIP3    H154329   3.866   1.436  15.295  0.6354 -0.5629 -1.4703
10946TIP3    H254330   3.828   1.290  15.306 -0.2514 -0.2592 -0.4256
10947TIP3   OH254331   0.526   5.337  16.638 -0.5262 -0.1457  0.3572
10947TIP3    H154332   0.612   5.331  16.596 -0.7681  3.1348 -0.7088
10947TIP3    H254333   0.544   5.366  16.727 -0.4867  0.0814  0.2763
10948TIP3   OH254334   2.329   0.031   0.107 -0.5535 -0.6840  0.0049
10948TIP3    H154335   2.290  -0.022   0.177  1.0236 -0.6637  0.9280
10948TIP3    H254336   2.423   0.012   0.113 -0.2778  0.2110 -1.3703
10949TIP3   OH254337   2.096   1.099  11.333 -0.2011 -0.2223 -0.6486
10949TIP3    H154338   2.178   1.133  11.298  0.4281 -1.2971 -0.2225
10949TIP3    H254339   2.031   1.165  11.309  1.1902  1.9066  1.2260
10950TIP3   OH254340   0.102   4.860  15.898  0.1636  0.1979  0.2441
10950TIP3    H154341   0.016   4.903  15.894  0.1456  0.2062  0.7034
10950TIP3    H254342   0.082   4.769  15.922  0.2617  0.1224  0.0440
10951TIP3   OH254343   0.169   3.566   3.575 -0.0049 -0.2221 -0.5985
10951TIP3    H154344   0.208   3.585   3.490 -0.7951  1.2011 -0.6516
10951TIP3    H254345   0.115   3.642   3.595  0.5834 -0.2964  1.4253
10952TIP3   OH254346   0.742   0.095  12.717  0.0500 -0.1808  0.2462
10952TIP3    H154347   0.688   0.018  12.734 -2.1061  1.4906  1.1336
10952TIP3    H254348   0.689   0.169  12.747  2.9080  1.5138  1.3731
10953TIP3   OH254349   3.430   2.821   3.032  0.1885  0.1370 -1.0180
10953TIP3    H154350   3.465   2.749   3.084  0.0162  0.2442 -0.7551
10953TIP3    H254351   3.367   2.864   3.090  0.9201  1.0250 -0.8787
10954TIP3   OH254352   0.228   1.293   6.072 -0.0379  0.1259 -0.1955
10954TIP3    H154353   0.156   1.343   6.035 -0.0597  0.9545  0.9648
10954TIP3    H254354   0.191   1.250   6.149  0.0087 -1.5950 -1.1088
10955TIP3   OH254355   6.132   0.813  12.567  0.0846 -0.3722  0.2035
10955TIP3    H154356   6.148   0.750  12.496 -1.7190 -0.8345  0.1549
10955TIP3    H254357   6.151   0.765  12.647 -2.0391 -1.2833  0.2029
10956TIP3   OH254358   0.926   1.500  13.557  0.4184 -0.5233  0.1366
10956TIP3    H154359   1.017   1.492  13.528 -0.2217 -2.8775 -1.3479
10956TIP3    H254360   0.875   1.505  13.476 -0.6782  2.8311  0.9300
10957TIP3   OH254361   2.226   6.109   1.727 -0.0613  0.2528 -0.2410
10957TIP3    H154362   2.190   6.196   1.714 -1.1522 -0.4017 -1.9249
10957TIP3    H254363   2.151   6.050   1.713  1.3825 -1.0882 -2.7260
10958TIP3   OH254364   4.060   4.163  11.754 -0.5795 -0.0506 -0.3241
10958TIP3    H154365   4.084   4.183  11.844 -1.0613 -3.1197  0.5413
10958TIP3    H254366   4.142   4.139  11.712 -0.4511  0.7180 -0.5044
10959TIP3   OH254367   4.937   0.849  16.692 -0.1340 -0.5682 -0.2572
10959TIP3    H154368   5.024   0.889  16.687 -0.8499  1.0084 -0.0623
10959TIP3    H254369   4.909   0.863  16.782 -1.8008  1.4917 -1.0590
10960TIP3   OH254370   5.178   4.363   2.514  0.2058  0.1232  0.5559
10960TIP3    H154371   5.165   4.407   2.430  1.4340 -0.5625  0.0023
10960TIP3    H254372   5.115   4.291   2.514  1.3250 -0.8593 -0.4739
10961TIP3   OH254373   6.253   4.287   1.612 -0.6192 -0.1726 -0.6159
10961TIP3    H154374   6.206   4.270   1.530 -0.0029 -1.2968 -0.7441
10961TIP3    H254375   6.332   4.334   1.586 -0.4475 -0.4862 -0.6657
10962TIP3   OH254376   2.063   3.399   3.985  0.0122  0.1646 -0.3375
10962TIP3    H154377   2.126   3.369   4.051  0.6095  0.5650 -0.7188
10962TIP3    H254378   1.979   3.402   4.031  0.5972  1.3562  0.6638
10963TIP3   OH254379   5.448   2.696  13.143  0.3054 -0.0433  0.2865
10963TIP3    H154380   5.386   2.762  13.111  1.0323  0.9797  0.9499
10963TIP3    H254381   5.478   2.651  13.065  1.5692  1.9932 -0.4207
10964TIP3   OH254382   4.163   5.562   0.059 -0.0261 -1.2404 -0.2211
10964TIP3    H154383   4.188   5.485   0.110  0.0959 -0.3047  1.1890
10964TIP3    H254384   4.221   5.631   0.092 -0.2291 -0.5119 -1.3653
10965TIP3   OH254385   5.478   5.097  10.673  0.7779 -0.2632 -0.1998
10965TIP3    H154386   5.483   5.086  10.578  0.3917  0.6801 -0.3327
10965TIP3    H254387   5.569   5.086  10.703  0.8828 -0.6697 -0.6615
10966TIP3   OH254388   2.766   5.326  11.602  0.0439  0.1646 -0.0125
10966TIP3    H154389   2.756   5.273  11.523  0.3357 -3.1308  2.0526
10966TIP3    H254390   2.696   5.391  11.596 -1.6527 -1.7251 -1.6723
10967TIP3   OH254391   3.907   2.562   5.268 -0.0366 -0.0305  0.0448
10967TIP3    H154392   3.821   2.548   5.307 -0.3558  0.5299 -0.4550
10967TIP3    H254393   3.907   2.506   5.190  0.5918 -1.1322  0.8198
10968TIP3   OH254394   1.829   3.366   1.247  0.6195  0.2551  0.0778
10968TIP3    H154395   1.783   3.415   1.316 -0.9203  0.0546 -0.7969
10968TIP3    H254396   1.816   3.418   1.168 -0.0811 -0.9738 -0.6372
10969TIP3   OH254397   2.754   3.913  16.786  0.5385  0.2265  0.4427
10969TIP3    H154398   2.770   3.868  16.869  1.7319  1.2244  0.7679
10969TIP3    H254399   2.775   3.848  16.719 -3.2506 -1.5917  0.8516
10970TIP3   OH254400   5.681   3.394   2.364 -0.2670 -0.0429 -0.5801
10970TIP3    H154401   5.627   3.328   2.408 -1.5065 -0.0670 -2.1047
10970TIP3    H254402   5.729   3.345   2.296 -2.7768  0.9233 -3.1214
10971TIP3   OH254403   2.679   4.206  11.645 -0.3156 -0.5188  0.9536
10971TIP3    H154404   2.605   4.148  11.658 -1.4391  0.3234 -1.3146
10971TIP3    H254405   2.718   4.177  11.562  0.6135  0.3510  1.0673
10972TIP3   OH254406   3.321   2.327  13.218 -0.5762  0.6384 -0.0413
10972TIP3    H154407   3.238   2.353  13.258 -0.5789 -0.2013  0.5093
10972TIP3    H254408   3.377   2.404  13.227 -1.2659  1.1808 -0.3463
10973TIP3   OH254409   3.633   5.859   0.292  0.3778 -0.7116 -0.0711
10973TIP3    H154410   3.623   5.930   0.228  2.2110  1.0957  1.6123
10973TIP3    H254411   3.574   5.882   0.363 -0.3408 -1.8253 -0.2831
10974TIP3   OH254412   1.662   1.243  11.611  0.4736 -0.3997  0.1124
10974TIP3    H154413   1.638   1.154  11.635  1.1926 -0.2080  1.6166
10974TIP3    H254414   1.717   1.234  11.534 -0.1179 -1.1964 -0.2183
10975TIP3   OH254415   6.704   3.268   3.492 -0.6245 -0.4494 -0.2844
10975TIP3    H154416   6.747   3.318   3.561  0.7062 -2.6499  0.5114
10975TIP3    H254417   6.611   3.268   3.517 -0.6741  1.7204 -0.3864
10976TIP3   OH254418   0.681   4.422  17.254  0.5346  0.4425  0.2272
10976TIP3    H154419   0.656   4.347  17.201  2.2121  0.1701 -0.2080
10976TIP3    H254420   0.680   4.390  17.344  0.1910  0.2015  0.1381
10977TIP3   OH254421   2.170   5.718  14.318  0.2495 -0.5408  0.2037
10977TIP3    H154422   2.108   5.785  14.345 -0.1304 -0.6884 -0.2927
10977TIP3    H254423   2.255   5.762  14.319 -0.1204  0.2178 -1.0354
10978TIP3   OH254424   3.089   0.821   0.206 -0.1334  0.4824 -0.1306
10978TIP3    H154425   3.014   0.823   0.146  0.1603 -0.4373 -0.5468
10978TIP3    H254426   3.155   0.876   0.164  0.0882 -0.1974 -0.6817
10979TIP3   OH254427   4.898   1.645  13.732  0.1827 -1.0169 -0.1127
10979TIP3    H154428   4.829   1.672  13.793  0.2013 -2.3207  0.4974
10979TIP3    H254429   4.861   1.572  13.683  0.4920 -0.5503 -1.0633
10980TIP3   OH254430   6.234   5.005   5.204 -0.2551 -0.2030 -0.2535
10980TIP3    H154431   6.219   4.958   5.287  3.2301 -1.3536 -0.2127
10980TIP3    H254432   6.325   4.987   5.183 -0.3550  2.2986 -3.0021
10981TIP3   OH254433   6.627   1.597   3.418  0.1027 -0.2427  0.5603
10981TIP3    H154434   6.538   1.590   3.382  0.1407 -0.4905  0.5153
10981TIP3    H254435   6.638   1.691   3.436  0.2872 -0.0339 -0.5889
10982TIP3   OH254436   3.065   6.248   2.935  0.2667 -0.1503 -0.4677
10982TIP3    H154437   3.003   6.189   2.979  0.3945 -0.6437 -0.9498
10982TIP3    H254438   3.149   6.202   2.939  0.8019  0.8980  0.9616
10983TIP3   OH254439   0.806   5.264  17.056  0.3829 -0.2114  0.7240
10983TIP3    H154440   0.887   5.214  17.041  0.0504 -0.7619  0.7402
10983TIP3    H254441   0.835   5.355  17.064  1.0518 -0.4593  1.1553
10984TIP3   OH254442   2.061   0.850   4.724  0.5214  0.5932  0.1471
10984TIP3    H154443   2.082   0.939   4.695  0.4449  0.5988  0.1083
10984TIP3    H254444   2.017   0.863   4.808  1.0090  0.5611  0.4115
10985TIP3   OH254445   1.285   1.029  14.200 -0.7999  0.4333  0.4661
10985TIP3    H154446   1.211   1.065  14.150  0.5374  0.5721 -1.4929
10985TIP3    H254447   1.298   0.942  14.163 -0.1113  0.3372  0.9363
10986TIP3   OH254448   3.464   1.560   0.975 -0.4224  0.2847 -0.0252
10986TIP3    H154449   3.447   1.467   0.966 -0.6915  0.5430 -2.3178
10986TIP3    H254450   3.449   1.597   0.888  2.3341  2.0644  0.1885
10987TIP3   OH254451   3.163   6.097  13.175  0.4933  0.0063 -0.5450
10987TIP3    H154452   3.115   6.089  13.257  0.4131  2.5924 -0.2807
10987TIP3    H254453   3.138   6.183  13.142  1.7330 -0.3677 -2.5039
10988TIP3   OH254454   3.305   4.128   1.041  0.5142 -0.1429  0.1931
10988TIP3    H154455   3.371   4.061   1.060 -1.2313 -1.7433  0.7513
10988TIP3    H254456   3.236   4.081   0.995 -1.9910  0.7005  2.9661
10989TIP3   OH254457   4.714   4.013  14.950  0.2760  0.4455 -0.3831
10989TIP3    H154458   4.649   4.043  14.887  0.2800  0.1993 -0.5078
10989TIP3    H254459   4.775   4.086  14.958  0.9692  0.0211 -1.6188
10990TIP3   OH254460   1.408   5.051  15.399 -0.0684  0.4612 -0.2149
10990TIP3    H154461   1.430   4.963  15.428  1.1645  0.9970  0.5178
10990TIP3    H254462   1.414   5.104  15.479 -0.1723  1.3241 -0.7770
10991TIP3   OH254463   6.032   0.281  13.906 -0.1193  0.0089 -0.1441
10991TIP3    H154464   5.957   0.339  13.899 -0.1287  0.0116 -0.0202
10991TIP3    H254465   6.086   0.301  13.829  0.3220  0.8047  0.3631
10992TIP3   OH254466   2.540   3.159  14.726 -0.1591  0.1896 -0.6960
10992TIP3    H154467   2.554   3.249  14.695 -0.1939  0.0855 -1.0227
10992TIP3    H254468   2.503   3.114  14.650 -1.1179  0.1599 -0.2204
10993TIP3   OH254469   0.623   0.028   1.083  0.0647  0.1344 -0.0615
10993TIP3    H154470   0.612   0.114   1.042 -2.3325 -0.1618 -0.1109
10993TIP3    H254471   0.613   0.045   1.177  0.7174  0.0731  0.0214
10994TIP3   OH254472   5.572   5.158  13.548 -0.1035  0.2214 -0.2326
10994TIP3    H154473   5.499   5.121  13.499 -0.8736 -0.5977  1.5054
10994TIP3    H254474   5.557   5.131  13.638  0.9518  2.2389  0.5842
10995TIP3   OH254475   6.250   4.394  11.478 -0.7142  0.0917 -0.1191
10995TIP3    H154476   6.168   4.353  11.506 -0.2597 -0.6863  0.0871
10995TIP3    H254477   6.285   4.435  11.557 -0.5082 -0.2694 -0.0176
10996TIP3   OH254478   1.953   5.979  14.714  0.1040 -0.3680 -0.0222
10996TIP3    H154479   2.024   6.024  14.669 -0.0596 -0.7682 -0.6907
10996TIP3    H254480   1.909   6.047  14.765 -0.2556  0.2689 -1.1645
10997TIP3   OH254481   3.018   2.137  13.331  0.2922 -0.0999 -1.1586
10997TIP3    H154482   3.041   2.217  13.379 -1.0883 -0.3801  0.0111
10997TIP3    H254483   2.935   2.157  13.289  0.4859 -0.5568 -1.7715
10998TIP3   OH254484   3.523   1.647  14.008 -0.2900  0.2308 -0.0462
10998TIP3    H154485   3.462   1.707  13.967  1.1731  1.5984 -0.2625
10998TIP3    H254486   3.524   1.672  14.100  1.1408  1.2868 -0.3283
10999TIP3   OH254487   3.862   3.459   4.003  0.1074  0.1585  0.5429
10999TIP3    H154488   3.813   3.459   4.086 -0.2309 -1.5610  0.3596
10999TIP3    H254489   3.806   3.410   3.942  0.7284  0.7112 -0.4792
11000TIP3   OH254490   6.699   2.098  15.580 -0.0349 -0.1391  0.5451
11000TIP3    H154491   6.717   2.067  15.491  0.0651 -1.8428  1.1253
11000TIP3    H254492   6.743   2.034  15.636  1.0695  1.6791  1.8071
11001TIP3   OH254493   3.021   0.039  15.620 -0.1370  0.3955 -0.1085
11001TIP3    H154494   2.940   0.050  15.570  0.6971  2.6470 -1.0284
11001TIP3    H254495   3.090   0.035  15.554  0.6057 -0.6914  0.7058
11002TIP3   OH254496   4.048   5.167  16.014  0.0935  0.5168 -0.0463
11002TIP3    H154497   4.141   5.148  16.023  0.1754  1.2256  0.6038
11002TIP3    H254498   4.007   5.125  16.089 -0.0339  0.7458  0.0139
11003TIP3   OH254499   4.678   2.474  15.501 -0.0134 -0.4323  0.2586
11003TIP3    H154500   4.663   2.555  15.452  2.6126  0.2180  0.4644
11003TIP3    H254501   4.772   2.456  15.489 -0.2509 -2.5983  1.4958
11004TIP3   OH254502   6.370   4.198   3.619 -0.5163  0.1173 -0.1873
11004TIP3    H154503   6.325   4.169   3.540 -0.6058  0.0765 -0.1209
11004TIP3    H254504   6.454   4.152   3.617 -1.0241 -0.8537  0.3955
11005TIP3   OH254505   4.881   0.794   1.960 -0.9856 -0.4459 -0.2622
11005TIP3    H154506   4.802   0.763   2.005 -0.5323  0.1028  0.9286
11005TIP3    H254507   4.941   0.719   1.962 -0.8554 -0.3290  0.3205
11006TIP3   OH254508   1.733   2.347  16.525 -0.4067 -0.1338  0.5137
11006TIP3    H154509   1.795   2.383  16.588 -0.6726 -0.7352  1.1336
11006TIP3    H254510   1.662   2.411  16.522 -0.0341  0.2713  0.2411
11007TIP3   OH254511   3.330   2.790  12.273  0.3202  0.0184  0.4916
11007TIP3    H154512   3.251   2.839  12.292 -0.3781 -1.1508  0.6545
11007TIP3    H254513   3.301   2.699  12.266  1.4901 -0.2979 -0.4223
11008TIP3   OH254514   1.272   1.684   1.753  0.2041 -0.1288  0.5982
11008TIP3    H154515   1.333   1.721   1.817 -0.0284 -0.6100  1.1012
11008TIP3    H254516   1.300   1.593   1.743 -0.1476 -0.2248  0.4903
11009TIP3   OH254517   4.213   0.024   3.896 -0.0173 -0.0386  0.0975
11009TIP3    H154518   4.172   0.106   3.866  0.5370 -0.1762 -1.0390
11009TIP3    H254519   4.307   0.039   3.888  0.1693 -0.0399  1.9065
11010TIP3   OH254520   0.146   2.823   3.098 -0.2563  0.1745 -0.2322
11010TIP3    H154521   0.167   2.917   3.103  0.9339 -0.1551  1.2855
11010TIP3    H254522   0.215   2.780   3.148 -0.0649 -1.6443 -2.0212
11011TIP3   OH254523   0.831   6.191   3.558  0.0595  0.1740 -0.0256
11011TIP3    H154524   0.738   6.179   3.580  0.5656  0.8448  2.6402
11011TIP3    H254525   0.856   6.269   3.607  1.7763  0.6394 -1.6097
11012TIP3   OH254526   3.552   1.406   4.942  0.8958 -0.2012  0.4882
11012TIP3    H154527   3.499   1.375   5.016 -0.2456 -0.4091 -0.4001
11012TIP3    H254528   3.627   1.347   4.941  2.6163  1.7691  3.4437
11013TIP3   OH254529   0.457   3.931  15.067 -0.1240  0.2072 -0.1101
11013TIP3    H154530   0.466   4.023  15.092  0.1097 -0.0997  0.9281
11013TIP3    H254531   0.433   3.886  15.147  1.9697 -0.9868 -0.1259
11014TIP3   OH254532   2.356   5.367  14.672  0.3420 -0.1137 -0.2248
11014TIP3    H154533   2.352   5.456  14.708  0.2958  0.6332 -2.0145
11014TIP3    H254534   2.333   5.378  14.580 -0.1995 -2.0730 -0.3369
11015TIP3   OH254535   6.733   0.063  15.246  0.1144 -0.0207 -0.7467
11015TIP3    H154536   6.677   0.049  15.322 -1.0547 -0.2253 -1.6513
11015TIP3    H254537   6.795   0.131  15.275  0.0398 -0.5002  0.5687
11016TIP3   OH254538   1.006   6.037   3.358  0.1486 -0.0757 -0.7250
11016TIP3    H154539   1.092   6.058   3.395 -0.3497 -2.4846  1.9002
11016TIP3    H254540   0.944   6.087   3.412 -0.1508  1.5775 -2.5478
11017TIP3   OH254541   0.644   0.736   2.888  0.2155  0.3650 -0.1188
11017TIP3    H154542   0.643   0.735   2.983 -0.4936 -0.6332 -0.1398
11017TIP3    H254543   0.700   0.663   2.863  0.0594  0.3646 -0.4803
11018TIP3   OH254544   2.306   2.170  15.747  0.0377  0.1454 -0.0653
11018TIP3    H154545   2.356   2.162  15.829 -0.6853  1.8170  0.5745
11018TIP3    H254546   2.273   2.082  15.730  4.8160 -1.5009 -1.6036
11019TIP3   OH254547   0.661   3.422  16.716  0.3533  0.1541  0.5687
11019TIP3    H154548   0.611   3.493  16.756 -1.6666 -0.8118 -0.1497
11019TIP3    H254549   0.688   3.367  16.789  1.8559  1.5940  1.1176
11020TIP3   OH254550   5.206   0.908   4.131 -0.1841 -0.0620  0.8287
11020TIP3    H154551   5.285   0.918   4.078  0.2817  0.6745  1.6523
11020TIP3    H254552   5.210   0.818   4.165 -0.0471 -0.2450  0.3321
11021TIP3   OH254553   4.616   2.723   1.591  0.0351 -0.7607  0.6430
11021TIP3    H154554   4.535   2.768   1.615  1.1284  0.4956  2.0517
11021TIP3    H254555   4.665   2.716   1.673  1.3181 -1.5806 -0.1762
11022TIP3   OH254556   4.343   3.451  16.537 -0.2701  0.1122 -0.0929
11022TIP3    H154557   4.416   3.392  16.555 -1.0290 -0.4430  1.3175
11022TIP3    H254558   4.355   3.523  16.600 -0.2212  0.6789 -0.7426
11023TIP3   OH254559   2.583   6.357  11.970 -0.5114 -0.0971  0.2931
11023TIP3    H154560   2.509   6.304  12.000 -1.8963  1.4784 -0.3084
11023TIP3    H254561   2.639   6.366  12.047 -1.8151  0.1669  1.2191
11024TIP3   OH254562   2.376   3.679  17.166 -0.0485 -0.3174  0.2357
11024TIP3    H154563   2.385   3.703  17.074  2.3197  0.0836  0.5552
11024TIP3    H254564   2.281   3.679  17.181 -0.4060  1.4413 -1.7239
11025TIP3   OH254565   2.893   1.276   6.669 -0.4232  0.3187  0.7836
11025TIP3    H154566   2.798   1.266   6.661 -0.2597  0.1909 -1.1303
11025TIP3    H254567   2.929   1.191   6.645  0.2275  0.6939  0.4084
11026TIP3   OH254568   6.174   1.562   0.928  0.3263 -0.1948 -0.4290
11026TIP3    H154569   6.219   1.503   0.988 -1.1384 -0.5541  0.3479
11026TIP3    H254570   6.233   1.570   0.853  0.4094 -2.8612 -0.6752
11027TIP3   OH254571   4.026   5.896  13.729 -0.3531 -0.3216 -0.5645
11027TIP3    H154572   4.056   5.806  13.727 -0.6501 -0.4561  0.4199
11027TIP3    H254573   3.983   5.910  13.645 -0.7151 -1.2360 -0.5334
11028TIP3   OH254574   6.601   2.313   2.739  0.0706  0.0455  0.1363
11028TIP3    H154575   6.645   2.364   2.807  0.0126  0.5586 -0.2144
11028TIP3    H254576   6.672   2.266   2.695 -0.0061 -1.2251  1.3274
11029TIP3   OH254577   3.484   0.912   0.624 -0.1407 -0.3959 -0.4010
11029TIP3    H154578   3.577   0.896   0.605  0.0848  0.6607 -0.2048
11029TIP3    H254579   3.484   0.955   0.709 -0.8518 -0.8648 -0.1597
11030TIP3   OH254580   6.646   3.668   4.025  0.2019 -0.0533 -0.1077
11030TIP3    H154581   6.693   3.654   4.107  1.4086 -1.8492 -1.0576
11030TIP3    H254582   6.672   3.755   3.997  0.8681  0.0255  0.7456
11031TIP3   OH254583   2.939   5.569  14.120 -0.9093  0.7492  0.2209
11031TIP3    H154584   3.007   5.523  14.071 -1.1475 -1.2817  1.7251
11031TIP3    H254585   2.860   5.559  14.067 -0.3891  1.7443 -0.7547
11032TIP3   OH254586   2.574   2.324   3.905 -0.4888 -0.2480 -0.3464
11032TIP3    H154587   2.608   2.239   3.879 -0.6381  0.1782 -1.9857
11032TIP3    H254588   2.527   2.308   3.987  2.1823 -1.1576  1.0640
11033TIP3   OH254589   4.439   5.936   5.023 -0.3305  0.3040 -0.4800
11033TIP3    H154590   4.505   5.876   4.989 -0.2986  0.0512  0.0218
11033TIP3    H254591   4.431   6.004   4.956  1.1440  0.8721 -0.1028
11034TIP3   OH254592   1.463   3.684   1.055  0.3387  0.1726  0.4086
11034TIP3    H154593   1.381   3.676   1.104  0.9997  1.3241  1.7394
11034TIP3    H254594   1.499   3.769   1.081  1.7207 -0.0999 -0.5257
11035TIP3   OH254595   3.782   2.977   2.190  0.8282  0.1396  0.0943
11035TIP3    H154596   3.836   2.935   2.257  1.1193  1.2274  0.5505
11035TIP3    H254597   3.787   3.070   2.211  0.1572  0.3947 -0.8858
11036TIP3   OH254598   2.375   2.557  16.680  0.0784 -0.1679 -0.1511
11036TIP3    H154599   2.427   2.625  16.637 -0.0572 -0.3522 -0.6110
11036TIP3    H254600   2.359   2.592  16.768 -1.8457  1.4032 -1.0826
11037TIP3   OH254601   1.848   2.907   3.536 -0.2348  0.1891  0.8364
11037TIP3    H154602   1.902   2.932   3.611 -0.6761 -2.0865  1.9348
11037TIP3    H254603   1.844   2.987   3.482  3.6764  0.5985  1.0140
11038TIP3   OH254604   1.803   3.963  11.005 -0.7802  0.6317  0.1651
11038TIP3    H154605   1.834   3.977  11.095 -0.9924  0.9559  0.1869
11038TIP3    H254606   1.864   4.012  10.950 -1.2201  1.2280  0.2052
11039TIP3   OH254607   6.148   1.013   5.995  0.9645 -0.6336  0.1714
11039TIP3    H154608   6.099   0.939   5.960  1.5371 -0.2796 -1.4145
11039TIP3    H254609   6.143   1.080   5.928  1.3437  0.3917  1.1455
11040TIP3   OH254610   0.337   4.006  14.504  0.1518  0.4411  0.2496
11040TIP3    H154611   0.274   4.002  14.576 -0.2342 -0.4980 -0.1310
11040TIP3    H254612   0.403   3.940  14.525  0.6030  0.8939  0.2633
11041TIP3   OH254613   6.177   0.334   7.124 -0.5067 -0.0049  0.1786
11041TIP3    H154614   6.207   0.381   7.047 -0.4192 -0.4739 -0.0755
11041TIP3    H254615   6.239   0.261   7.133 -0.9696 -0.3923  0.2429
11042TIP3   OH254616   4.966   6.069  12.393  0.2847 -0.4932  0.2207
11042TIP3    H154617   5.009   6.015  12.326 -0.6394 -0.0562 -0.7275
11042TIP3    H254618   5.024   6.144  12.405 -0.0097 -0.1000 -0.7755
11043TIP3   OH254619   1.000   5.225   0.335 -0.0715 -0.3367  0.2811
11043TIP3    H154620   1.079   5.231   0.389 -0.1404 -0.2428  0.3725
11043TIP3    H254621   0.928   5.237   0.397 -0.1805 -1.0937  0.3065
11044TIP3   OH254622   1.018   0.609  16.857  0.1378 -0.9121 -0.0084
11044TIP3    H154623   1.029   0.537  16.795 -0.5647 -3.1177  2.3362
11044TIP3    H254624   1.089   0.597  16.920  1.3272  1.7636 -0.7916
11045TIP3   OH254625   4.856   3.484  13.020  0.7224  0.1634 -0.3660
11045TIP3    H154626   4.905   3.557  12.983  1.8732 -1.2760 -1.7175
11045TIP3    H254627   4.770   3.489  12.978  0.8837  0.5606 -0.6543
11046TIP3   OH254628   1.387   2.808   4.071 -0.4751 -0.0707 -0.0896
11046TIP3    H154629   1.427   2.888   4.104 -2.0180  0.7882 -0.2373
11046TIP3    H254630   1.417   2.802   3.980  1.4942 -0.9197  0.5956
11047TIP3   OH254631   4.763   0.224   4.708  0.2789 -0.1533  0.1118
11047TIP3    H154632   4.778   0.294   4.644 -1.0788 -0.1050 -0.1542
11047TIP3    H254633   4.837   0.164   4.694 -1.2968 -1.4481 -3.2925
11048TIP3   OH254634   0.739   2.343   3.663 -0.2778 -0.4036  0.3717
11048TIP3    H154635   0.822   2.362   3.619  0.0975 -1.3160  0.6705
11048TIP3    H254636   0.728   2.416   3.725 -0.3651  0.4103 -0.5882
11049TIP3   OH254637   0.770   4.435  14.448  0.5793 -0.7974  0.4153
11049TIP3    H154638   0.803   4.359  14.497 -1.9554 -0.7506  2.3155
11049TIP3    H254639   0.773   4.507  14.512 -1.3272 -0.3672  0.0433
11050TIP3   OH254640   1.400   0.638   0.466  0.2009 -0.0696  0.0593
11050TIP3    H154641   1.411   0.605   0.556  0.0130  0.4100  0.2558
11050TIP3    H254642   1.437   0.726   0.468  0.4211 -0.1516 -0.3964
11051TIP3   OH254643   4.128   4.064   3.936  0.1342 -0.1642  0.0749
11051TIP3    H154644   4.114   3.970   3.927 -2.0164  0.1730 -0.5485
11051TIP3    H254645   4.135   4.079   4.030  1.1150 -1.0182  0.1403
11052TIP3   OH254646   2.152   3.426  17.123  0.3986 -0.1373 -0.1513
11052TIP3    H154647   2.073   3.374  17.142 -0.8867  0.8977 -2.3819
11052TIP3    H254648   2.138   3.508  17.170 -1.1208  1.0409 -2.5232
11053TIP3   OH254649   1.425   6.004   6.264 -0.5829  0.0413 -0.2124
11053TIP3    H154650   1.501   5.955   6.296  1.0007  1.4672 -1.7070
11053TIP3    H254651   1.350   5.961   6.305  0.9799 -1.7794  0.8133
11054TIP3   OH254652   2.376   0.951  16.088  0.2360 -0.6915  0.4138
11054TIP3    H154653   2.416   0.997  16.162  0.3419 -2.0539  1.2347
11054TIP3    H254654   2.412   0.994  16.011  1.7391 -0.5764  1.1489
11055TIP3   OH254655   4.003   2.215   0.183 -0.4480 -0.1413  0.2702
11055TIP3    H154656   4.038   2.225   0.271 -0.2894  0.5143  0.1379
11055TIP3    H254657   3.964   2.301   0.163 -2.6278 -1.0013  0.6277
11056TIP3   OH254658   4.489   3.801  15.411  0.2892 -0.0089  0.3105
11056TIP3    H154659   4.485   3.804  15.507  0.8227  1.4280  0.3069
11056TIP3    H254660   4.559   3.739  15.392  1.4202  1.0565  0.8922
11057TIP3   OH254661   5.224   4.131   2.781 -0.4034 -0.3102 -0.0399
11057TIP3    H154662   5.299   4.170   2.825 -0.2877 -0.2244 -0.3115
11057TIP3    H254663   5.246   4.037   2.775  0.2366 -0.1015 -1.2115
11058TIP3   OH254664   4.409   4.130  13.596 -0.2843  0.4182 -0.1826
11058TIP3    H154665   4.421   4.036  13.601 -0.1053  0.4447 -0.0906
11058TIP3    H254666   4.381   4.156  13.684  2.2803  0.8113  0.5566
11059TIP3   OH254667   1.036   0.038  13.698  0.2610 -0.3265 -0.1907
11059TIP3    H154668   1.087   0.119  13.705 -0.5107  0.0969  0.8439
11059TIP3    H254669   0.968   0.048  13.765  0.3833 -1.9980  0.1945
11060TIP3   OH254670   6.740   4.040   4.404 -0.4851 -0.9916 -0.2960
11060TIP3    H154671   6.657   4.027   4.358 -1.1089  1.0373  0.2130
11060TIP3    H254672   6.714   4.070   4.491  0.8101  1.2538 -0.6525
11061TIP3   OH254673   6.803   4.925   6.008  0.4759  0.1670 -0.4671
11061TIP3    H154674   6.879   4.977   6.033 -0.8659  0.9499  2.1619
11061TIP3    H254675   6.837   4.835   6.002  1.5591  0.4326  1.1641
11062TIP3   OH254676   0.973   2.612  16.907 -0.0887  0.6770 -0.2445
11062TIP3    H154677   1.064   2.582  16.907  0.0383  1.0492  0.6325
11062TIP3    H254678   0.976   2.697  16.864  0.0236  0.8256  0.0588
11063TIP3   OH254679   4.933   2.485   2.693  0.0939  0.1679  0.5915
11063TIP3    H154680   5.020   2.490   2.653  0.2516  0.4573  0.9663
11063TIP3    H254681   4.944   2.424   2.766 -0.5394 -1.5042 -0.6710
11064TIP3   OH254682   4.451   0.253  15.192  0.1458 -0.1500 -0.4299
11064TIP3    H154683   4.396   0.240  15.114  0.2194  0.3638 -0.5718
11064TIP3    H254684   4.535   0.214  15.169 -0.2790 -1.3043 -0.0602
11065TIP3   OH254685   0.346   2.768   4.731 -0.2753  0.5073  0.0442
11065TIP3    H154686   0.265   2.809   4.762 -0.3475  1.0536 -0.8668
11065TIP3    H254687   0.324   2.676   4.720 -0.3939  0.3985  1.1164
11066TIP3   OH254688   1.517   6.109   5.083 -0.0814  0.1281  0.4546
11066TIP3    H154689   1.591   6.169   5.073  0.2173 -0.2452  0.3542
11066TIP3    H254690   1.540   6.055   5.158 -1.3088  1.4794  1.8164
11067TIP3   OH254691   3.577   2.039   5.495 -0.0589 -0.0642 -0.4195
11067TIP3    H154692   3.578   1.947   5.522 -1.7671  0.0432  0.0655
11067TIP3    H254693   3.562   2.036   5.401  0.7414 -0.3017 -0.5421
11068TIP3   OH254694   6.384   5.059  12.499  0.0148  0.2357  0.1234
11068TIP3    H154695   6.315   5.043  12.436 -1.6758 -0.3508  2.0781
11068TIP3    H254696   6.437   4.979  12.497 -0.9752 -0.4407  0.6093
11069TIP3   OH254697   4.587   1.453   3.209 -0.4056  0.4260 -0.0296
11069TIP3    H154698   4.533   1.418   3.138 -0.7572 -0.0239  0.4587
11069TIP3    H254699   4.611   1.377   3.261  3.4384  0.1139 -2.0280
11070TIP3   OH254700   5.346   4.414   4.042  0.3239  0.3421  0.4016
11070TIP3    H154701   5.274   4.357   4.015  0.5707  0.2140  0.0100
11070TIP3    H254702   5.345   4.409   4.138 -0.0161  0.1287  0.3916
11071TIP3   OH254703   5.089   1.177   4.211  0.3068  0.4124 -0.4218
11071TIP3    H154704   5.164   1.236   4.209 -0.9018  1.9486 -2.6178
11071TIP3    H254705   5.104   1.116   4.139 -0.5635  0.7510 -0.8940
11072TIP3   OH254706   1.363   6.124  13.074 -0.0804 -0.3211 -0.0005
11072TIP3    H154707   1.333   6.034  13.091  0.9583 -0.3734  1.6051
11072TIP3    H254708   1.405   6.118  12.988 -0.0583 -1.3567  0.0709
11073TIP3   OH254709   5.647   2.959   2.176  0.2111 -1.2001 -0.5003
11073TIP3    H154710   5.653   2.998   2.089  0.5584  1.6328  0.7390
11073TIP3    H254711   5.554   2.945   2.189 -0.1105  1.1033 -0.1944
11074TIP3   OH254712   0.772   4.975  16.030  0.3700  0.1203 -0.0752
11074TIP3    H154713   0.682   4.964  16.061  0.3771  0.6797  0.1389
11074TIP3    H254714   0.763   4.994  15.936  0.1323  2.6266  0.4355
11075TIP3   OH254715   5.552   6.521  12.822  0.0682 -0.0581  0.0128
11075TIP3    H154716   5.492   6.594  12.837  0.2755 -0.2367  1.7729
11075TIP3    H254717   5.498   6.443  12.836 -0.0865 -0.2544 -1.6035
11076TIP3   OH254718   4.276   4.507  13.960 -0.0315  0.4382  0.2549
11076TIP3    H154719   4.193   4.549  13.939 -0.3578 -0.7934 -1.0283
11076TIP3    H254720   4.251   4.418  13.986  0.8034  0.3687  0.8215
11077TIP3   OH254721   5.715   4.290  13.602  0.4864  0.1856  0.2317
11077TIP3    H154722   5.751   4.362  13.653  0.8184 -0.2957  0.6680
11077TIP3    H254723   5.785   4.225  13.598  0.1302 -0.1869 -0.0211
11078TIP3   OH254724   1.608   2.955   2.830 -0.5548  0.2621  0.0076
11078TIP3    H154725   1.609   3.048   2.810 -0.6903  0.4593  0.8904
11078TIP3    H254726   1.515   2.933   2.839 -0.5589 -0.1078 -0.8380
11079TIP3   OH254727   0.673   0.171  17.109 -0.5493 -0.1239  0.2238
11079TIP3    H154728   0.583   0.201  17.121 -1.2866 -2.0610 -0.1468
11079TIP3    H254729   0.700   0.208  17.026 -1.1463  0.1420  0.1431
11080TIP3   OH254730   5.806   2.761  16.592  0.3397 -0.1585  0.2584
11080TIP3    H154731   5.879   2.819  16.613 -1.3294  1.1032  2.8826
11080TIP3    H254732   5.732   2.820  16.579 -0.8816 -1.5585  0.7084
11081TIP3   OH254733   4.015   4.537   5.122  0.2561  0.4006 -0.0643
11081TIP3    H154734   4.107   4.521   5.145  0.0970  0.6945  0.7987
11081TIP3    H254735   3.982   4.591   5.194 -1.4076 -2.1765  1.1895
11082TIP3   OH254736   1.277   4.028   0.161 -0.2594  0.0052 -0.7616
11082TIP3    H154737   1.342   4.007   0.228 -0.1787  0.3979 -0.7205
11082TIP3    H254738   1.234   4.107   0.192  0.4104  0.7127 -1.6288
11083TIP3   OH254739   6.236   4.642   1.458  0.0705 -0.0459 -0.1053
11083TIP3    H154740   6.225   4.582   1.384  0.5076  1.1717 -1.1803
11083TIP3    H254741   6.328   4.635   1.482 -0.2874 -1.1739  0.9770
11084TIP3   OH254742   2.883   6.048   2.496  0.7585 -0.1849 -0.0210
11084TIP3    H154743   2.921   6.012   2.576  1.2698 -1.1678 -0.6796
11084TIP3    H254744   2.928   6.131   2.483  0.7180 -0.0540  0.6772
11085TIP3   OH254745   0.553   2.302  14.833 -0.4841 -0.1105  0.4254
11085TIP3    H154746   0.493   2.374  14.851  1.6276  1.5257  1.0261
11085TIP3    H254747   0.551   2.249  14.913  0.4784  1.1019  1.2602
11086TIP3   OH254748   5.059   1.546  14.703  0.3430 -0.3329 -0.1387
11086TIP3    H154749   5.104   1.620  14.660 -0.3166  0.7565  1.0206
11086TIP3    H254750   4.969   1.576  14.713  0.7478 -0.0870  3.0912
11087TIP3   OH254751   0.194   3.568  12.702  0.1199 -0.0190  0.2048
11087TIP3    H154752   0.099   3.577  12.702  0.0814  0.7663 -3.7990
11087TIP3    H254753   0.226   3.650  12.742 -0.8648  0.2914  0.3610
11088TIP3   OH254754   3.437   0.687  12.943  0.4391  0.3899 -0.5953
11088TIP3    H154755   3.436   0.775  12.905  0.5157  1.5391  1.9659
11088TIP3    H254756   3.497   0.693  13.018  1.6374 -2.2548 -1.2857
11089TIP3   OH254757   0.290   5.234  12.685 -0.3099  0.5841 -0.1399
11089TIP3    H154758   0.309   5.299  12.753 -3.2311  2.4350 -1.0167
11089TIP3    H254759   0.332   5.269  12.606 -0.4420  0.5512 -0.2237
11090TIP3   OH254760   3.585   4.828   5.886  0.4466  0.3431  0.1000
11090TIP3    H154761   3.615   4.887   5.954 -0.6105  0.2767  0.6455
11090TIP3    H254762   3.571   4.744   5.931  1.6686 -0.2629 -0.6065
11091TIP3   OH254763   0.346   0.832   0.354  0.4291 -0.0532  0.4629
11091TIP3    H154764   0.377   0.899   0.415 -0.2639 -0.7893  1.6645
11091TIP3    H254765   0.362   0.750   0.400 -0.6821 -0.5864 -0.0829
11092TIP3   OH254766   5.540   2.522   2.176 -0.0955  0.0777 -1.2024
11092TIP3    H154767   5.611   2.584   2.161 -0.0421  0.7083  1.4129
11092TIP3    H254768   5.549   2.458   2.105  1.5426  1.5082 -2.3282
11093TIP3   OH254769   0.925   2.300   4.327  0.3862  0.1667 -0.4556
11093TIP3    H154770   0.984   2.286   4.253  1.5934  0.3563  0.4526
11093TIP3    H254771   0.891   2.388   4.314  1.8180  0.8130  0.0341
11094TIP3   OH254772   1.145   0.608   3.233 -0.1125 -0.7411 -0.0318
11094TIP3    H154773   1.187   0.690   3.209 -1.1236 -0.2535 -0.1586
11094TIP3    H254774   1.210   0.563   3.288  0.8596 -0.3468 -0.8433
11095TIP3   OH254775   0.962   3.227  12.903  0.2784  0.3704 -0.3508
11095TIP3    H154776   0.904   3.303  12.911  0.3420  0.3921 -0.0787
11095TIP3    H254777   1.024   3.252  12.835  0.6018  0.7614  0.0854
11096TIP3   OH254778   3.796   3.806   4.349 -0.5000  0.1464  0.2475
11096TIP3    H154779   3.716   3.756   4.331 -0.9363  0.5996  0.9359
11096TIP3    H254780   3.866   3.754   4.308 -1.2683  0.2966 -1.2825
11097TIP3   OH254781   3.712   0.606   6.024  0.0650  0.3973  0.0468
11097TIP3    H154782   3.695   0.683   6.078 -1.4941  0.6472 -0.7548
11097TIP3    H254783   3.692   0.531   6.081  0.1816  0.6213  0.3795
11098TIP3   OH254784   6.291   5.915   4.185  0.0447 -0.3011 -0.1145
11098TIP3    H154785   6.271   5.909   4.278  2.0216  0.5805  0.3999
11098TIP3    H254786   6.217   5.873   4.141 -2.0006  1.3161  1.7290
11099TIP3   OH254787   3.535   5.251  10.792  0.1969 -0.0344  0.6716
11099TIP3    H154788   3.442   5.240  10.774  0.2920  0.1970  0.0301
11099TIP3    H254789   3.573   5.163  10.782 -0.2737 -0.5261  2.9072
11100TIP3   OH254790   2.454   5.043   6.081 -0.1729 -0.4451 -0.4187
11100TIP3    H154791   2.417   5.057   5.994 -0.4795 -0.0585 -0.2253
11100TIP3    H254792   2.543   5.079   6.076 -0.6896  0.8845 -0.1486
11101TIP3   OH254793   4.779   4.161  14.539 -0.2618 -0.6616  0.9663
11101TIP3    H154794   4.766   4.152  14.444 -1.7891 -0.7563  1.1716
11101TIP3    H254795   4.755   4.075  14.574  1.1902 -0.9101  1.3545
11102TIP3   OH254796   1.921   3.835   0.989  0.2471  0.4317  0.3318
11102TIP3    H154797   1.965   3.769   1.043 -0.4459 -0.2161  0.1200
11102TIP3    H254798   1.838   3.851   1.033 -0.0164  0.4253 -0.1542
11103TIP3   OH254799   0.163   6.457  13.856 -0.2908  0.2265  0.5486
11103TIP3    H154800   0.088   6.409  13.893  1.1311 -0.3650  2.7670
11103TIP3    H254801   0.123   6.530  13.809 -2.4356 -2.0509 -1.3396
11104TIP3   OH254802   2.287   2.590   5.190  0.4073 -0.1480 -0.0086
11104TIP3    H154803   2.329   2.506   5.208  0.9330  0.1250  0.0528
11104TIP3    H254804   2.196   2.578   5.218  0.7220 -0.3775  0.9270
11105TIP3   OH254805   2.618   0.076  16.174  0.4895  0.0497  0.0899
11105TIP3    H154806   2.562   0.002  16.147  0.4586  0.8280 -2.0992
11105TIP3    H254807   2.620   0.071  16.269 -1.7249 -1.1797  0.1074
11106TIP3   OH254808   4.250   1.726  12.466 -0.4548  0.0168  0.0144
11106TIP3    H154809   4.309   1.696  12.397 -0.9555 -2.3944  0.5910
11106TIP3    H254810   4.226   1.815  12.440  2.6415  0.6919 -0.7275
11107TIP3   OH254811   4.791   3.679  12.733 -0.0052  0.2659  0.1267
11107TIP3    H154812   4.783   3.762  12.686  0.1878  1.4892  2.1776
11107TIP3    H254813   4.884   3.669  12.748 -0.0432 -0.2528  0.0104
11108TIP3   OH254814   5.124   6.673   1.365  0.1188  0.2376 -1.0132
11108TIP3    H154815   5.077   6.603   1.410 -0.6721  0.8728 -0.8390
11108TIP3    H254816   5.057   6.740   1.348  0.9056  1.0462 -0.9733
11109TIP3   OH254817   2.256   3.252   5.451 -0.5666  0.2044 -0.2499
11109TIP3    H154818   2.163   3.271   5.446 -0.3678  1.1768 -0.3787
11109TIP3    H254819   2.299   3.333   5.422  0.3146 -0.1778 -0.0382
11110TIP3   OH254820   4.547   4.233  11.600  0.4111  0.5379  0.4857
11110TIP3    H154821   4.466   4.270  11.566  1.2037  0.6905 -1.3066
11110TIP3    H254822   4.594   4.307  11.637  1.8519  1.3831 -2.8059
11111TIP3   OH254823   6.377   3.955   5.200  0.5413  0.1662 -0.1480
11111TIP3    H154824   6.355   3.875   5.248 -0.8364 -0.0325 -1.0568
11111TIP3    H254825   6.449   3.994   5.249 -1.5452  0.5720  2.7392
11112TIP3   OH254826   0.888   3.905   5.778 -0.9092 -0.2194 -0.3359
11112TIP3    H154827   0.835   3.837   5.820 -0.9282 -0.0667 -0.1136
11112TIP3    H254828   0.834   3.984   5.783 -0.1217  0.2403  1.0570
11113TIP3   OH254829   6.125   3.395  14.317 -0.1874 -0.4560 -0.0094
11113TIP3    H154830   6.038   3.403  14.356 -0.4107  0.9054 -0.7587
11113TIP3    H254831   6.185   3.413  14.389 -0.5589 -0.0455  0.2032
11114TIP3   OH254832   0.737   5.719   4.984  0.2816 -0.1577  0.2696
11114TIP3    H154833   0.808   5.782   4.978 -1.4386  1.8828  0.7286
11114TIP3    H254834   0.699   5.717   4.896 -0.4314  0.3755  0.5598
11115TIP3   OH254835   3.525   6.664   1.757  0.0928 -0.4990  0.2539
11115TIP3    H154836   3.451   6.725   1.758  0.1405 -0.4386  1.5542
11115TIP3    H254837   3.574   6.687   1.679  0.0444  1.0738  0.6702
11116TIP3   OH254838   2.024   0.678   3.915  0.5212  0.1013 -0.6283
11116TIP3    H154839   1.969   0.608   3.879  1.7128 -0.6429 -1.0443
11116TIP3    H254840   2.105   0.634   3.940  0.9210  1.1762  0.0025
11117TIP3   OH254841   0.613   0.734  13.361  0.0008 -0.0776 -0.6296
11117TIP3    H154842   0.576   0.668  13.301  0.5061 -2.1515  1.2695
11117TIP3    H254843   0.699   0.700  13.383  1.3660  2.6072 -1.6832
11118TIP3   OH254844   5.301   4.411  16.012  0.0956 -0.2496 -0.2344
11118TIP3    H154845   5.289   4.365  16.095 -0.2756 -1.3483 -0.8845
11118TIP3    H254846   5.372   4.472  16.028  1.1774 -1.6538  0.3976
11119TIP3   OH254847   5.120   3.726  12.310  0.2977 -0.4351  0.2080
11119TIP3    H154848   5.073   3.731  12.393  0.4087 -0.9940  0.3073
11119TIP3    H254849   5.196   3.670  12.329  1.1448  0.6541  0.1207
11120TIP3   OH254850   5.111   2.177   2.696 -0.0279 -0.0024  0.3607
11120TIP3    H154851   5.173   2.138   2.757 -0.2325 -1.7567 -0.5391
11120TIP3    H254852   5.142   2.267   2.685  1.6294 -0.5023  0.8724
11121TIP3   OH254853   0.516   1.365  13.686 -0.5281  0.5479  0.0407
11121TIP3    H154854   0.517   1.391  13.594 -0.9135  0.2780 -0.0443
11121TIP3    H254855   0.584   1.299  13.694 -1.8577 -0.9362 -0.5196
11122TIP3   OH254856   2.289   0.288   2.978  0.0084 -0.4646  0.3645
11122TIP3    H154857   2.212   0.270   3.033  2.2687 -1.5235  3.2964
11122TIP3    H254858   2.316   0.203   2.945 -0.3283 -0.0304 -1.0698
11123TIP3   OH254859   3.314   1.034   5.210 -0.1138  0.2130  0.2393
11123TIP3    H154860   3.385   1.013   5.271  0.2527  1.4521  0.2499
11123TIP3    H254861   3.250   0.965   5.224  1.4273 -1.3863 -0.3344
11124TIP3   OH254862   5.335   1.779   1.969  0.1745 -0.8645 -0.1944
11124TIP3    H154863   5.246   1.751   1.947 -1.0652  2.3346  0.5490
11124TIP3    H254864   5.372   1.808   1.885  1.2534 -3.9373 -0.8556
11125TIP3   OH254865   4.055   6.281   0.257  0.6327  0.7892 -0.4650
11125TIP3    H154866   4.129   6.247   0.307  0.1369 -1.6735 -1.3139
11125TIP3    H254867   4.095   6.324   0.182  1.2477  0.3577 -0.3908
11126TIP3   OH254868   5.965   0.538   2.045 -0.5182 -1.1634 -0.0055
11126TIP3    H154869   5.972   0.454   1.999  1.2640 -0.8550 -0.3447
11126TIP3    H254870   6.056   0.560   2.068 -1.1283 -0.0555  1.3908
11127TIP3   OH254871   4.266   0.957  11.297  1.3122  0.1008  1.1712
11127TIP3    H154872   4.274   1.051  11.308  2.0508  0.2386 -0.5211
11127TIP3    H254873   4.257   0.943  11.203 -0.8809 -1.3780  1.5419
11128TIP3   OH254874   4.319   1.922  14.747  0.2979 -0.0502  0.0548
11128TIP3    H154875   4.337   1.829  14.733  3.5450  0.5719 -0.2942
11128TIP3    H254876   4.300   1.956  14.660  1.2193  0.0015 -0.1352
11129TIP3   OH254877   3.005   0.196   4.217 -0.4926  0.2265 -0.0645
11129TIP3    H154878   2.998   0.108   4.181  0.4225 -0.7580  2.1487
11129TIP3    H254879   3.043   0.185   4.304 -0.1311  2.8215  0.1596
11130TIP3   OH254880   0.105   4.665   1.810  0.5230  0.8598  0.3952
11130TIP3    H154881   0.147   4.599   1.755  0.3302 -0.8753  2.2894
11130TIP3    H254882   0.146   4.747   1.783  1.1199 -0.0732 -1.6545
11131TIP3   OH254883   0.029   2.456   0.157 -0.2009  0.3060 -0.7931
11131TIP3    H154884   0.026   2.360   0.159  1.7935  0.2325 -0.6172
11131TIP3    H254885   0.049   2.478   0.066  0.1594  0.5178 -0.6642
11132TIP3   OH254886   2.119   5.277   4.118 -0.1779 -0.2261 -0.1584
11132TIP3    H154887   2.149   5.193   4.152 -0.6483 -0.9849 -1.5787
11132TIP3    H254888   2.024   5.268   4.109 -0.2755  0.5639 -0.0312
11133TIP3   OH254889   4.554   4.112   2.506  0.6287  0.1964 -0.4555
11133TIP3    H154890   4.471   4.140   2.467  1.0423 -0.5728 -1.9192
11133TIP3    H254891   4.621   4.144   2.446  1.4726  1.5116  1.1247
11134TIP3   OH254892   5.097   4.762  11.987 -0.2147  0.2567  0.2271
11134TIP3    H154893   5.085   4.673  11.952 -2.5606  0.1886  1.0967
11134TIP3    H254894   5.133   4.750  12.074  0.1837  0.1928  0.0546
11135TIP3   OH254895   1.308   1.482   1.379 -0.5363 -0.1862  0.1261
11135TIP3    H154896   1.286   1.417   1.446  1.0859 -0.1366  0.7301
11135TIP3    H254897   1.262   1.452   1.301 -1.3955 -0.9734  0.9208
11136TIP3   OH254898   6.554   1.382  13.080  0.6805  0.0920 -0.1961
11136TIP3    H154899   6.625   1.351  13.137  1.1590  0.6535 -0.4823
11136TIP3    H254900   6.596   1.447  13.023 -0.2032  0.8758  0.0407
11137TIP3   OH254901   1.600   4.266   0.431 -0.0855 -0.1409  0.5161
11137TIP3    H154902   1.658   4.228   0.365  0.7511  0.0151  1.1571
11137TIP3    H254903   1.647   4.255   0.514 -1.2777 -0.6563  1.1465
11138TIP3   OH254904   6.576   5.086   4.698 -0.4352  0.7127  0.1791
11138TIP3    H154905   6.530   5.068   4.615 -0.4173  2.8971 -0.3488
11138TIP3    H254906   6.635   5.158   4.677  0.2006  0.7122  1.8957
11139TIP3   OH254907   5.111   5.026  14.549 -0.7248  0.0156  0.2464
11139TIP3    H154908   5.064   5.091  14.603  1.4994  0.8355  1.2312
11139TIP3    H254909   5.080   4.942  14.581 -0.8479  0.5333  1.5341
11140TIP3   OH254910   4.653   4.567  15.504  0.1453  0.1975  0.0405
11140TIP3    H154911   4.679   4.595  15.416  3.6233 -0.0405  0.8930
11140TIP3    H254912   4.657   4.646  15.557  1.9464 -0.3514  0.7624
11141TIP3   OH254913   5.967   5.403   5.713 -0.0325 -0.3457 -0.8832
11141TIP3    H154914   5.971   5.409   5.808 -0.6191  1.8829 -0.9535
11141TIP3    H254915   6.013   5.482   5.682 -1.6987  0.0814 -2.3886
11142TIP3   OH254916   4.609   3.018  16.397 -0.2335 -0.5855  0.4744
11142TIP3    H154917   4.670   3.045  16.466 -0.8724 -2.4648  1.7964
11142TIP3    H254918   4.665   2.980  16.329  0.0739 -2.7178  1.8763
11143TIP3   OH254919   1.134   0.210   3.626  0.4206 -0.4435 -0.2747
11143TIP3    H154920   1.064   0.154   3.595  0.4048 -0.9428  0.6372
11143TIP3    H254921   1.173   0.162   3.699 -0.7474  1.4923  1.7145
11144TIP3   OH254922   2.617   6.024  14.250  0.1356 -0.2618  0.0029
11144TIP3    H154923   2.568   6.082  14.192 -1.7232 -1.8496 -0.0619
11144TIP3    H254924   2.676   5.976  14.192  1.7736  1.5624  0.0695
11145TIP3   OH254925   1.211   2.307  15.692  0.3241 -0.1080 -0.2018
11145TIP3    H154926   1.199   2.234  15.753  0.8878 -1.5363 -1.7688
11145TIP3    H254927   1.123   2.331  15.665  0.1529 -0.4497  0.0510
11146TIP3   OH254928   4.708   5.972   2.010 -0.0615  0.2276 -0.3557
11146TIP3    H154929   4.692   6.001   1.920 -0.5442 -2.2251 -1.1042
11146TIP3    H254930   4.795   5.932   2.007 -0.1572 -0.0255  0.2208
11147TIP3   OH254931   4.634   2.275   5.551 -0.9029  0.0985 -0.3091
11147TIP3    H154932   4.717   2.322   5.538 -0.0653 -1.4915 -0.8686
11147TIP3    H254933   4.648   2.190   5.509 -2.6862 -0.3437 -0.0460
11148TIP3   OH254934   0.987   2.182  13.969  0.3268  0.5863  0.4582
11148TIP3    H154935   0.962   2.224  13.887  1.0202  0.4359  0.1675
11148TIP3    H254936   0.917   2.119  13.986  2.1464 -2.2701 -2.1153
11149TIP3   OH254937   2.202   3.594  12.133 -0.0144  0.0048 -0.4914
11149TIP3    H154938   2.122   3.572  12.181 -0.3615  0.7320 -0.7334
11149TIP3    H254939   2.243   3.664  12.184  0.1216  0.0999 -0.7288
11150TIP3   OH254940   0.916   4.220   3.793 -0.0999  0.6197 -0.6543
11150TIP3    H154941   0.856   4.260   3.856  0.1313  1.2545 -0.8341
11150TIP3    H254942   0.968   4.159   3.845 -0.6077  0.3834 -0.4189
11151TIP3   OH254943   6.022   5.619  16.793 -0.1599  0.3380 -0.2108
11151TIP3    H154944   5.963   5.661  16.856 -0.4553  0.6162 -0.6652
11151TIP3    H254945   6.029   5.529  16.822 -2.1775 -0.1464 -1.1119
11152TIP3   OH254946   6.518   6.458  14.295 -0.3207 -0.3520 -0.2333
11152TIP3    H154947   6.532   6.552  14.295 -0.6048 -0.3001 -2.3643
11152TIP3    H254948   6.523   6.433  14.388  0.1617  1.6767  0.3021
11153TIP3   OH254949   4.840   4.908   1.841  0.1291  0.9089  0.2830
11153TIP3    H154950   4.853   4.845   1.769  0.9276 -0.0214  1.2250
11153TIP3    H254951   4.911   4.889   1.902 -1.0355  1.1498  1.7273
11154TIP3   OH254952   3.786   0.941  13.085  0.6815 -0.0315 -0.6741
11154TIP3    H154953   3.701   0.939  13.128  1.3220 -0.1395  0.6084
11154TIP3    H254954   3.786   1.024  13.037 -0.1578 -0.0515 -0.7265
11155TIP3   OH254955   1.459   1.533   4.830  0.0139 -0.2983 -0.5609
11155TIP3    H154956   1.496   1.585   4.902 -0.9025  0.8926 -0.9367
11155TIP3    H254957   1.399   1.472   4.874  0.5045 -0.5133 -0.1847
11156TIP3   OH254958   5.430   2.685  16.448  0.3594  0.0969  0.2806
11156TIP3    H154959   5.486   2.618  16.487  1.5692  1.3609  0.7734
11156TIP3    H254960   5.451   2.765  16.496 -1.0819  0.8336 -0.2699
11157TIP3   OH254961   4.346   6.210  15.040 -0.4522 -0.0658  0.4784
11157TIP3    H154962   4.298   6.210  15.122  0.7751 -4.3908  1.3440
11157TIP3    H254963   4.419   6.271  15.055 -1.4151  0.7912  1.8123
11158TIP3   OH254964   6.760   4.503  11.429  0.6437  0.1936  0.3975
11158TIP3    H154965   6.723   4.420  11.457  0.8107  0.6665  2.0870
11158TIP3    H254966   6.735   4.511  11.337 -1.7947 -0.3951  0.9886
11159TIP3   OH254967   3.579   3.082  17.263 -0.8950  0.2584 -0.1137
11159TIP3    H154968   3.536   3.102  17.181  1.4577  1.1272 -1.1867
11159TIP3    H254969   3.672   3.091  17.244 -0.0560 -4.3799  1.3679
11160TIP3   OH254970   6.729   4.637  11.809  0.2116  0.1221 -0.3689
11160TIP3    H154971   6.807   4.612  11.759 -0.8609 -0.8613 -1.5996
11160TIP3    H254972   6.754   4.627  11.900  2.0280  1.3841 -0.7112
11161TIP3   OH254973   0.677   2.013   1.418 -0.3925  0.5403  0.3260
11161TIP3    H154974   0.760   2.005   1.371 -1.5483  0.0076 -1.6595
11161TIP3    H254975   0.696   1.978   1.505  1.0772 -0.9593 -0.5607
11162TIP3   OH254976   0.371   2.478  13.196  0.3845 -0.4683 -0.2257
11162TIP3    H154977   0.352   2.438  13.111 -2.7766 -1.9725  1.1251
11162TIP3    H254978   0.347   2.570  13.184 -0.8492 -0.8424 -0.7375
11163TIP3   OH254979   5.986   1.879   4.242  0.1276  0.0484  0.2391
11163TIP3    H154980   6.046   1.952   4.257 -0.6676  1.3861 -2.6638
11163TIP3    H254981   6.043   1.805   4.222  0.8701  1.1213 -1.7332
11164TIP3   OH254982   6.033   0.747  15.328  0.1792  0.2444 -0.0164
11164TIP3    H154983   5.956   0.733  15.272 -0.2390 -0.1059  0.6324
11164TIP3    H254984   5.996   0.770  15.413  0.7727 -0.6242  0.4841
11165TIP3   OH254985   6.434   5.415   5.652  0.1957  0.2339  0.4982
11165TIP3    H154986   6.360   5.355   5.661 -0.6164  1.2094  0.4075
11165TIP3    H254987   6.482   5.383   5.575  0.5523 -1.1133  1.2679
11166TIP3   OH254988   3.356   4.328   2.141 -0.4715  0.3773 -0.2975
11166TIP3    H154989   3.275   4.361   2.102 -0.6950  1.1504  0.8119
11166TIP3    H254990   3.403   4.288   2.067 -1.3058  1.0005 -1.1814
11167TIP3   OH254991   6.330   1.667   1.250  0.2925  1.0594 -0.1209
11167TIP3    H154992   6.236   1.669   1.231  0.2987  1.2890 -0.1363
11167TIP3    H254993   6.371   1.703   1.172  0.4002  0.8458 -0.1604
11168TIP3   OH254994   1.379   6.195  15.946 -0.3015 -0.0622 -0.9898
11168TIP3    H154995   1.352   6.202  15.854  1.4921  1.4677 -1.4396
11168TIP3    H254996   1.326   6.260  15.991 -0.0526  0.3209 -1.2378
11169TIP3   OH254997   1.212   2.561  14.128  0.4812  0.1492  0.6009
11169TIP3    H154998   1.303   2.590  14.120 -0.2420  2.4164  0.1359
11169TIP3    H254999   1.194   2.563  14.222  0.4606  1.1715  0.5768
11170TIP3   OH255000   3.479   1.407   1.741 -0.1514 -0.3213 -0.7563
11170TIP3    H155001   3.398   1.450   1.712 -0.0013  0.0548 -0.6256
11170TIP3    H255002   3.484   1.327   1.689 -0.2543 -0.0049 -1.2579
11171TIP3   OH255003   1.412   2.448   0.023  0.1606 -0.3913 -0.0114
11171TIP3    H155004   1.497   2.474   0.056 -0.0818  0.1479  0.1867
11171TIP3    H255005   1.352   2.459   0.097 -0.4627  1.2471 -0.7295
11172TIP3   OH255006   0.987   2.062   3.044 -0.2958 -0.4048 -0.5014
11172TIP3    H155007   1.021   2.138   3.091  0.7802  0.4943 -2.6635
11172TIP3    H255008   1.059   1.998   3.046 -0.5455 -0.6800 -0.2245
11173TIP3   OH255009   5.414   3.161  17.244  0.1952 -0.3253  0.0751
11173TIP3    H155010   5.360   3.233  17.213  1.0112 -0.1831 -1.0611
11173TIP3    H255011   5.355   3.086  17.249 -0.4432  0.2002  0.3265
11174TIP3   OH255012   4.759   2.871   3.479  0.2707 -0.4217 -0.7500
11174TIP3    H155013   4.665   2.880   3.466 -0.0148 -1.4152  0.4711
11174TIP3    H255014   4.798   2.927   3.413 -1.1909  0.6073 -0.7697
11175TIP3   OH255015   2.800   4.318   1.848 -0.2486 -0.5451  0.5522
11175TIP3    H155016   2.873   4.284   1.796 -0.0153 -1.3423  1.3820
11175TIP3    H255017   2.800   4.264   1.927 -0.7365  0.5143  1.2796
11176TIP3   OH255018   2.668   4.897  15.908  0.1996 -0.0432  0.2961
11176TIP3    H155019   2.593   4.947  15.941 -0.2990 -1.2744  1.0562
11176TIP3    H255020   2.716   4.872  15.987  1.1555  0.3483 -0.1626
11177TIP3   OH255021   3.919   1.428   5.074  0.2131 -0.5067  0.5851
11177TIP3    H155022   3.977   1.488   5.027 -1.9447 -0.7905 -2.5603
11177TIP3    H255023   3.974   1.352   5.094  1.6363  0.3737  0.1111
11178TIP3   OH255024   2.437   6.529   0.964  0.3119 -0.1950 -0.4955
11178TIP3    H155025   2.414   6.448   0.918  2.6059 -0.7470 -0.7206
11178TIP3    H255026   2.460   6.591   0.895  0.8342 -0.0817 -0.2231
11179TIP3   OH255027   5.598   6.731   4.652  0.2878 -0.3298  0.2873
11179TIP3    H155028   5.505   6.710   4.659  0.0947  0.9337  1.9173
11179TIP3    H255029   5.632   6.718   4.740  1.4162  0.2528 -0.0555
11180TIP3   OH255030   2.406   3.857  12.009  0.2000 -0.3076 -0.0430
11180TIP3    H155031   2.375   3.766  12.007 -1.2629  0.2066 -1.5736
11180TIP3    H255032   2.490   3.852  12.055 -0.3831 -2.2664  0.8882
11181TIP3   OH255033   2.747   5.496  17.166  0.1253 -0.5979  0.0138
11181TIP3    H155034   2.735   5.537  17.080  0.1875 -0.2133  0.1877
11181TIP3    H255035   2.662   5.505  17.209  0.2086 -0.4363  0.1454
11182TIP3   OH255036   5.842   2.548   4.805 -0.6521 -0.4526  0.0925
11182TIP3    H155037   5.827   2.542   4.899 -0.5696 -0.8154  0.0841
11182TIP3    H255038   5.918   2.492   4.789 -0.5126 -0.1920 -0.1511
11183TIP3   OH255039   5.771   3.613  15.042 -0.0086 -0.1218  0.6812
11183TIP3    H155040   5.865   3.606  15.030  0.1912 -0.3799  2.2354
11183TIP3    H255041   5.743   3.525  15.069 -0.5599  0.1470  1.0097
11184TIP3   OH255042   2.835   5.849  12.852  0.5192  0.8863  0.3416
11184TIP3    H155043   2.917   5.805  12.831  0.9516  1.9067 -0.1122
11184TIP3    H255044   2.799   5.875  12.767 -0.5018  0.0516  0.5028
11185TIP3   OH255045   4.925   1.245   3.081  0.6195 -0.2578 -0.1683
11185TIP3    H155046   4.899   1.246   2.988 -0.1537  0.3779  0.0466
11185TIP3    H255047   4.937   1.338   3.103  1.2849 -0.4406  0.2396
11186TIP3   OH255048   5.987   0.546  14.132  0.3088 -0.1222  0.2076
11186TIP3    H155049   5.977   0.569  14.040 -0.3018  2.2905  0.8490
11186TIP3    H255050   6.080   0.560  14.151  0.3519 -0.2126  0.0597
11187TIP3   OH255051   2.234   2.751  14.192  0.2096 -0.1771 -0.7383
11187TIP3    H155052   2.228   2.749  14.288  0.4283 -1.9838 -0.7468
11187TIP3    H255053   2.199   2.666  14.164  0.9528 -0.0089 -2.2045
11188TIP3   OH255054   0.211   5.631  11.478  0.3735 -0.1595  0.8757
11188TIP3    H155055   0.252   5.620  11.392 -0.3315  1.0566  0.3650
11188TIP3    H255056   0.119   5.608  11.464  0.2017  0.2921  1.2442
11189TIP3   OH255057   6.589   5.384   3.229  0.0358 -0.5923 -0.0285
11189TIP3    H155058   6.570   5.418   3.317  1.0423  0.5794 -0.2594
11189TIP3    H255059   6.649   5.311   3.244 -2.0766 -2.3030  0.4614
11190TIP3   OH255060   4.495   5.926   0.880  0.3189 -0.9549  0.6159
11190TIP3    H155061   4.493   5.863   0.809  1.3409 -0.1357 -0.1688
11190TIP3    H255062   4.445   6.001   0.847  1.6179 -0.1863  0.3565
11191TIP3   OH255063   1.642   1.755   3.616 -0.1729  0.8926  0.4662
11191TIP3    H155064   1.610   1.734   3.704  0.4644 -0.6213  0.3505
11191TIP3    H255065   1.564   1.754   3.561 -0.2191 -0.7964  0.5497
11192TIP3   OH255066   2.270   4.161   2.691 -0.0808 -0.1329  0.2792
11192TIP3    H155067   2.293   4.234   2.633  0.4733 -0.7425 -0.2753
11192TIP3    H255068   2.221   4.202   2.762  0.6506  0.8533  0.2317
11193TIP3   OH255069   0.523   3.222  12.478 -0.1573 -0.4020 -0.0469
11193TIP3    H155070   0.599   3.279  12.474  0.4498 -1.3127 -2.1694
11193TIP3    H255071   0.451   3.279  12.505  0.7102  1.0730 -0.7945
11194TIP3   OH255072   1.745   0.863   1.550 -0.2720  0.2327 -0.4953
11194TIP3    H155073   1.685   0.790   1.533 -0.4620  0.7178 -1.9627
11194TIP3    H255074   1.818   0.849   1.489  1.2807 -0.5162  1.4763
11195TIP3   OH255075   6.820   6.522   0.603  0.0594  0.0749  0.0360
11195TIP3    H155076   6.908   6.538   0.570  0.4763  1.8924  1.9492
11195TIP3    H255077   6.830   6.450   0.665  0.6484  1.8142  2.0192
11196TIP3   OH255078   3.141   2.583  17.044  0.4865 -0.6585  0.1424
11196TIP3    H155079   3.155   2.640  17.119  1.7597  0.5773 -0.9920
11196TIP3    H255080   3.068   2.527  17.069  0.5687  0.0722  2.0909
11197TIP3   OH255081   2.063   1.307  15.972 -0.2329 -0.1947  0.0173
11197TIP3    H155082   1.974   1.342  15.983 -0.3152 -0.2949 -0.3291
11197TIP3    H255083   2.051   1.224  15.927  0.1374  0.4808 -1.3619
11198TIP3   OH255084   3.609   1.448  12.961 -0.3045 -0.3834  0.2885
11198TIP3    H155085   3.699   1.457  12.992 -0.5405  0.9470  0.6032
11198TIP3    H255086   3.556   1.495  13.025 -1.4519 -2.8280  1.1813
11199TIP3   OH255087   6.318   0.373   2.222  0.3051  0.0066 -0.0165
11199TIP3    H155088   6.287   0.461   2.201  1.6706  0.4001 -0.4131
11199TIP3    H255089   6.276   0.317   2.157 -0.1730  0.4267 -0.0781
11200TIP3   OH255090   3.798   0.937   5.138 -0.1473  0.2191 -0.5260
11200TIP3    H155091   3.715   0.956   5.093  0.6371 -0.6900 -2.4017
11200TIP3    H255092   3.789   0.846   5.167  0.0496  0.2475 -0.3736
11201TIP3   OH255093   4.679   4.528  13.423 -0.4256  1.0163  0.2398
11201TIP3    H155094   4.637   4.470  13.487 -1.3623  0.3396 -0.9662
11201TIP3    H255095   4.626   4.608  13.425 -0.1521  1.1908  0.6647
11202TIP3   OH255096   5.343   5.235   1.952  0.2144  0.1952  0.1354
11202TIP3    H155097   5.289   5.187   1.890  0.6431 -1.9883  1.4083
11202TIP3    H255098   5.431   5.234   1.914  0.3605 -0.6431  0.4811
11203TIP3   OH255099   6.339   3.263   0.001  0.0129  0.2129  0.1139
11203TIP3    H155100   6.310   3.341   0.049  0.3176  0.3847  0.0154
11203TIP3    H255101   6.421   3.288  -0.040  0.6932 -0.5090  1.0050
11204TIP3   OH255102   4.971   0.157  16.906 -0.4643 -0.1904 -0.2867
11204TIP3    H155103   4.912   0.212  16.855 -0.0818  0.4549 -0.0400
11204TIP3    H255104   4.956   0.182  16.997  0.2026  0.0073 -0.2246
11205TIP3   OH255105   6.554   5.961   0.021  0.1180  0.0924  0.3292
11205TIP3    H155106   6.592   5.891   0.074  0.2354  0.1893  0.3752
11205TIP3    H255107   6.547   5.923  -0.067  1.1371  0.3519  0.1223
11206TIP3   OH255108   0.340   3.857  15.635 -0.1708 -0.5611  0.2944
11206TIP3    H155109   0.409   3.889  15.693 -1.3053  0.7390  0.9642
11206TIP3    H255110   0.265   3.913  15.654 -1.2509 -1.5949 -0.8126
11207TIP3   OH255111   4.152   6.510   2.059 -0.3272 -0.1092  0.0407
11207TIP3    H155112   4.172   6.570   2.131  0.4352  0.2797 -0.4871
11207TIP3    H255113   4.120   6.430   2.102  0.1241  0.1195  0.8097
11208TIP3   OH255114   3.231   0.958  16.516 -0.5888 -0.2175  0.1402
11208TIP3    H155115   3.172   1.013  16.569 -0.8214 -0.1181 -0.2195
11208TIP3    H255116   3.194   0.962  16.428  0.4923  0.5931 -0.2816
11209TIP3   OH255117   6.089   5.633  16.516  0.7461  0.4671  0.0600
11209TIP3    H155118   6.180   5.657  16.538  0.6221  1.9243 -0.9189
11209TIP3    H255119   6.062   5.574  16.586  1.7612  1.7024  1.5212
11210TIP3   OH255120   0.845   4.040   5.201  0.6677  0.1064  0.2408
11210TIP3    H155121   0.818   4.129   5.227 -0.2009 -0.0546 -0.0746
11210TIP3    H255122   0.781   4.015   5.134  1.6579 -0.2791 -0.5691
11211TIP3   OH255123   0.493   5.397   5.790  0.5705 -0.4562 -0.2495
11211TIP3    H155124   0.418   5.447   5.821  0.6694 -0.1616 -0.4867
11211TIP3    H255125   0.560   5.410   5.857  1.0252  0.7560 -0.9366
11212TIP3   OH255126   0.525   4.390  10.517 -0.6786 -0.9514  0.3260
11212TIP3    H155127   0.597   4.451  10.501  0.4226 -2.4547 -0.5811
11212TIP3    H255128   0.477   4.388  10.435 -0.5281 -1.5210  0.2464
11213TIP3   OH255129   0.636   4.706  11.077 -0.1608 -0.4589  0.3642
11213TIP3    H155130   0.632   4.674  10.987 -1.0749 -0.3367  0.3556
11213TIP3    H255131   0.573   4.653  11.125 -0.7517  0.4595  0.6191
11214TIP3   OH255132   0.593   2.589  11.625  0.1946  0.3852  0.3797
11214TIP3    H155133   0.511   2.540  11.636  1.0057 -0.7586  1.4960
11214TIP3    H255134   0.639   2.576  11.708  2.5979 -1.0359 -1.1319
11215TIP3   OH255135   1.400   5.981   3.124  0.1317 -0.1812 -0.2732
11215TIP3    H155136   1.445   5.925   3.187 -1.1495  0.1648  0.9839
11215TIP3    H255137   1.470   6.021   3.072  1.2199 -0.3020  1.0764
11216TIP3   OH255138   6.673   6.556  15.896  0.3163  0.1221  0.0491
11216TIP3    H155139   6.759   6.523  15.923 -0.3497 -0.6721  1.2724
11216TIP3    H255140   6.667   6.642  15.936  1.7366  1.4407 -2.4884
11217TIP3   OH255141   0.440   3.911   2.488  0.1800 -0.2499 -0.0031
11217TIP3    H155142   0.420   3.937   2.578 -2.5101  1.7452 -1.1217
11217TIP3    H255143   0.428   3.991   2.436  2.2954 -1.2072 -2.0823
11218TIP3   OH255144   1.890   3.887   0.520  0.2027 -0.0248 -0.2304
11218TIP3    H155145   1.903   3.945   0.595 -0.6630  0.8471 -0.7574
11218TIP3    H255146   1.882   3.799   0.559  1.9492  0.1246  0.5356
11219TIP3   OH255147   1.480   5.855  11.646  0.5332  0.3064  0.3782
11219TIP3    H155148   1.486   5.760  11.659  0.5518  0.0883 -1.1170
11219TIP3    H255149   1.433   5.865  11.563  0.0664  1.6212  0.7864
11220TIP3   OH255150   3.942   5.449  11.526  0.1407  0.5488 -0.1039
11220TIP3    H155151   3.886   5.402  11.464  0.6777  1.1578 -1.0622
11220TIP3    H255152   3.884   5.471  11.599 -0.0471 -1.8443  0.5108
11221TIP3   OH255153   6.380   1.170  13.241  0.3781  0.0977  0.0922
11221TIP3    H155154   6.294   1.187  13.204 -0.2469 -2.6465  0.1939
11221TIP3    H255155   6.438   1.232  13.197 -1.4188  1.1593 -0.8380
11222TIP3   OH255156   6.092   2.756   3.465 -0.0899  0.6159  0.4269
11222TIP3    H155157   6.073   2.663   3.447 -1.1324  0.7065  0.9902
11222TIP3    H255158   6.184   2.757   3.491 -0.3829 -0.4309  1.5378
11223TIP3   OH255159   3.492   6.627  14.522  0.3210 -0.4111  0.1323
11223TIP3    H155160   3.405   6.623  14.483  0.0792 -2.7371  0.8433
11223TIP3    H255161   3.550   6.649  14.449 -0.4757 -1.9796 -1.0065
11224TIP3   OH255162   5.993   1.754   0.447  0.6512 -0.0922 -0.2189
11224TIP3    H155163   6.037   1.670   0.462 -1.3007 -1.0358  0.5310
11224TIP3    H255164   5.906   1.729   0.415 -0.9604  1.5472  2.6853
11225TIP3   OH255165   3.422   5.306   5.443 -0.1329 -0.3337  0.6370
11225TIP3    H155166   3.481   5.233   5.458  0.0323 -1.2999 -4.0757
11225TIP3    H255167   3.357   5.300   5.514 -0.0021 -4.9024  0.4850
11226TIP3   OH255168   0.036   2.112   6.520 -0.2966 -0.0968 -0.1627
11226TIP3    H155169  -0.034   2.061   6.480 -0.6741 -0.3160  0.7575
11226TIP3    H255170   0.055   2.067   6.602  0.2991  0.4770  0.0240
11227TIP3   OH255171   3.229   1.479   3.278 -0.8461 -0.4029  0.8665
11227TIP3    H155172   3.169   1.497   3.206 -0.7042 -0.7156  0.6718
11227TIP3    H255173   3.186   1.410   3.329 -0.3282 -1.1154  0.3394
11228TIP3   OH255174   6.167   3.105  11.577  0.2032  0.1328 -0.0582
11228TIP3    H155175   6.160   3.118  11.482  0.8160  0.6290 -0.0432
11228TIP3    H255176   6.084   3.067  11.602  0.4279 -0.9913 -0.9643
11229TIP3   OH255177   3.164   1.138   2.007 -0.9159 -0.1272  0.2384
11229TIP3    H155178   3.107   1.104   2.076 -0.5297 -1.3646 -0.0564
11229TIP3    H255179   3.247   1.155   2.051 -1.1929  0.7242  0.4468
11230TIP3   OH255180   1.894   6.517   3.896  0.2967 -0.1063 -0.0582
11230TIP3    H155181   1.873   6.580   3.965 -0.3505  2.0930 -2.2011
11230TIP3    H255182   1.985   6.494   3.911  0.8382  2.1339  0.1711
11231TIP3   OH255183   2.485   2.279   5.668  0.1593  0.0372 -0.3167
11231TIP3    H155184   2.558   2.326   5.709 -0.3961  0.0364  0.6976
11231TIP3    H255185   2.525   2.201   5.630  1.0172  1.0644 -1.5980
11232TIP3   OH255186   4.416   4.264   0.823 -0.2745 -0.1802  0.6455
11232TIP3    H155187   4.382   4.353   0.818 -0.8058 -0.3510  1.1014
11232TIP3    H255188   4.382   4.230   0.906  2.1122  0.0908  1.7887
11233TIP3   OH255189   2.106   3.504   4.371  0.4957  0.8648  0.4074
11233TIP3    H155190   2.080   3.596   4.377  0.6669  0.8958  0.6388
11233TIP3    H255191   2.175   3.502   4.304 -0.6558  0.6694 -0.8084
11234TIP3   OH255192   3.190   1.906  11.482 -0.1064 -0.4416  0.6663
11234TIP3    H155193   3.272   1.950  11.458 -0.8891  1.1306  0.8572
11234TIP3    H255194   3.206   1.871  11.570  0.9774 -1.7516 -0.0182
11235TIP3   OH255195   1.416   0.731  16.064  0.4969  1.0845  0.1924
11235TIP3    H155196   1.489   0.737  16.126  1.0959 -0.1309 -0.3824
11235TIP3    H255197   1.339   0.760  16.114  1.2638  1.7197  0.9999
11236TIP3   OH255198   0.982   0.077   6.818  0.2665  0.9189  0.0388
11236TIP3    H155199   0.998   0.063   6.724  0.6891 -0.9286  0.3634
11236TIP3    H255200   1.067   0.103   6.853  0.5864 -0.3670  0.2455
11237TIP3   OH255201   3.142   4.376   3.699  0.3902 -0.2537 -0.1988
11237TIP3    H155202   3.055   4.342   3.721  0.6568  0.3660  1.8631
11237TIP3    H255203   3.193   4.366   3.779  1.3625  2.1951 -0.4630
11238TIP3   OH255204   6.460   5.345   4.420  0.1158  0.1041 -0.3009
11238TIP3    H155205   6.508   5.382   4.494 -1.0337  1.0262  0.0018
11238TIP3    H255206   6.455   5.251   4.439 -1.2563  0.5043  1.4419
11239TIP3   OH255207   3.644   5.058   0.198  0.0918 -0.3047 -0.3125
11239TIP3    H155208   3.687   4.975   0.180 -0.0499 -0.0976 -1.6695
11239TIP3    H255209   3.715   5.122   0.206  0.0985 -0.1772 -1.3681
11240TIP3   OH255210   5.428   6.138  12.262 -0.2707 -0.2975 -0.2022
11240TIP3    H155211   5.363   6.097  12.205 -3.1296  1.1968  1.8221
11240TIP3    H255212   5.429   6.083  12.340  1.1920 -0.5084 -0.3562
11241TIP3   OH255213   0.399   2.051  15.285 -0.4263  0.3761  0.1916
11241TIP3    H155214   0.308   2.058  15.314 -0.2343  0.4472  0.7930
11241TIP3    H255215   0.406   1.961  15.253 -1.2305  0.9624 -1.7366
11242TIP3   OH255216   3.431   1.950   1.157  0.0996  0.0411 -0.0859
11242TIP3    H155217   3.358   1.892   1.176 -0.0829 -0.2595 -1.6275
11242TIP3    H255218   3.489   1.941   1.232 -0.8535 -0.6570  0.5817
11243TIP3   OH255219   2.862   2.729   1.711  0.3212  0.9752  0.1033
11243TIP3    H155220   2.945   2.741   1.664  1.1862  0.6331  1.5332
11243TIP3    H255221   2.844   2.815   1.749  0.3231  0.8923  0.2903
11244TIP3   OH255222   0.325   4.572   1.425 -0.0794 -0.5030  0.0163
11244TIP3    H155223   0.284   4.647   1.381  2.4387  0.6736 -0.4564
11244TIP3    H255224   0.260   4.543   1.489 -0.5052  3.1711  1.3784
11245TIP3   OH255225   1.777   5.011   2.454  0.1020 -0.4618 -0.2814
11245TIP3    H155226   1.824   5.057   2.522  0.7237 -0.1426 -0.9201
11245TIP3    H255227   1.695   4.983   2.495  0.3922 -0.1120  0.5297
11246TIP3   OH255228   5.865   2.782   0.472 -0.1269  0.1136 -0.0567
11246TIP3    H155229   5.898   2.704   0.427 -0.3976 -0.5476  0.8751
11246TIP3    H255230   5.926   2.851   0.448 -1.1286  0.1432 -2.7171
11247TIP3   OH255231   3.638   0.722  15.423 -0.5441 -0.2628 -0.0027
11247TIP3    H155232   3.571   0.689  15.363  0.5394 -0.9704 -0.8351
11247TIP3    H255233   3.590   0.745  15.502 -1.6770 -1.3805 -0.3565
11248TIP3   OH255234   5.731   4.283   5.884 -0.2044  0.5068 -0.5070
11248TIP3    H155235   5.735   4.338   5.806 -0.1987  1.0689 -0.1085
11248TIP3    H255236   5.798   4.319   5.942 -0.8914  0.7181  0.1672
11249TIP3   OH255237   2.905   5.015   4.699 -0.4825  0.3023 -0.2885
11249TIP3    H155238   2.809   5.010   4.705 -0.5167  0.6316 -0.5688
11249TIP3    H255239   2.936   4.964   4.774 -0.9066  2.5129  1.4410
11250TIP3   OH255240   0.668   2.196   0.080  0.0287 -0.0615 -0.5912
11250TIP3    H155241   0.610   2.159   0.014 -1.5279  1.1966  0.0468
11250TIP3    H255242   0.727   2.124   0.104 -1.0684 -1.2607 -1.4569
11251TIP3   OH255243   1.918   1.991  13.993 -0.0300  0.2086 -0.3600
11251TIP3    H155244   1.831   2.019  13.965 -0.0628 -0.2174 -0.6814
11251TIP3    H255245   1.948   1.931  13.924 -0.0026 -0.6309  0.3792
11252TIP3   OH255246   4.996   4.559   4.253  0.1188  0.2788 -0.1274
11252TIP3    H155247   5.063   4.621   4.225  0.9183 -0.0724  0.9641
11252TIP3    H255248   4.983   4.579   4.346 -0.7809 -0.1315 -0.1595
11253TIP3   OH255249   6.195   3.136   6.658  0.0149 -0.0353 -0.2405
11253TIP3    H155250   6.250   3.122   6.735 -1.3752 -1.3900  0.5383
11253TIP3    H255251   6.127   3.069   6.665 -1.4122  1.2598 -1.4715
11254TIP3   OH255252   6.274   3.420  12.469 -0.4660 -0.6900  0.3854
11254TIP3    H155253   6.234   3.501  12.499  0.6922  0.3230 -0.7347
11254TIP3    H255254   6.301   3.375  12.549  2.0769  1.6958  0.9522
11255TIP3   OH255255   0.242   4.730   2.911  0.0296 -0.4360 -0.4059
11255TIP3    H155256   0.152   4.763   2.908  0.2621  0.3684  1.0812
11255TIP3    H255257   0.242   4.667   2.982  0.7447 -0.0939 -0.0969
11256TIP3   OH255258   2.682   5.485   3.857  0.0841  0.0329 -0.5018
11256TIP3    H155259   2.718   5.430   3.926 -0.0963  0.6149  0.0525
11256TIP3    H255260   2.636   5.424   3.799 -1.3698 -0.2095  0.8971
11257TIP3   OH255261   3.329   5.670  12.285  0.1445  0.4830  0.4070
11257TIP3    H155262   3.391   5.692  12.354 -0.1917  1.1919  0.4817
11257TIP3    H255263   3.368   5.707  12.206  0.4350 -0.1620  0.2427
11258TIP3   OH255264   0.967   5.686  17.282 -0.2423 -0.0739 -0.5291
11258TIP3    H155265   0.911   5.703  17.359 -2.8797  3.0748 -2.9723
11258TIP3    H255266   1.006   5.771  17.262  1.8470 -1.2524 -1.6721
11259TIP3   OH255267   4.480   6.015  13.422  0.7481 -0.0824  0.3413
11259TIP3    H155268   4.487   6.056  13.336  1.0198  0.6245  0.6885
11259TIP3    H255269   4.538   6.068  13.478 -1.4663  1.1426  1.5752
11260TIP3   OH255270   3.619   0.702   5.784 -0.8443 -0.4672 -0.0381
11260TIP3    H155271   3.652   0.643   5.852 -1.7314 -1.6925 -0.6446
11260TIP3    H255272   3.673   0.780   5.791  0.5138 -1.4511  0.6355
11261TIP3   OH255273   5.268   2.053   0.524 -0.1784 -0.1200  0.5232
11261TIP3    H155274   5.307   2.114   0.460 -0.8786 -0.3064 -0.0931
11261TIP3    H255275   5.191   2.100   0.558  0.2548  0.0208  1.3135
11262TIP3   OH255276   5.588   3.082   6.037 -0.5484  0.1596  0.2350
11262TIP3    H155277   5.535   3.139   6.092  0.4147  1.3145 -0.0086
11262TIP3    H255278   5.534   3.005   6.022 -1.0629  0.0912  2.3118
11263TIP3   OH255279   0.196   6.346   6.022 -0.0717  0.1278  0.3482
11263TIP3    H155280   0.154   6.341   5.936  0.2541  1.5877  0.0789
11263TIP3    H255281   0.248   6.266   6.029  1.1536  0.7248 -1.4975
11264TIP3   OH255282   0.936   0.529   3.006  0.0429  0.6510 -0.1563
11264TIP3    H155283   0.887   0.492   2.932 -0.0990 -0.0976  0.2996
11264TIP3    H255284   0.879   0.597   3.041 -0.4865  0.0795  0.0996
11265TIP3   OH255285   4.432   1.186   3.029 -0.1275  0.7463  0.1318
11265TIP3    H155286   4.444   1.270   2.984 -1.0834  0.3548 -0.8781
11265TIP3    H255287   4.445   1.120   2.961 -2.2173  0.1598  0.2579
11266TIP3   OH255288   0.576   0.405   1.325  0.4127  0.4202 -0.0487
11266TIP3    H155289   0.593   0.486   1.374  1.3981 -0.2551  0.7685
11266TIP3    H255290   0.486   0.413   1.294  0.7413  2.1550 -0.6140
11267TIP3   OH255291   2.135   4.634   2.464 -0.0584 -0.2155  0.2599
11267TIP3    H155292   2.184   4.589   2.395 -1.8774 -0.7013 -0.7655
11267TIP3    H255293   2.114   4.720   2.426 -1.2002 -0.5422  0.1370
11268TIP3   OH255294   5.026   0.297   3.252  0.1872 -0.1997 -0.4473
11268TIP3    H155295   5.032   0.206   3.281  1.2226 -0.4752 -1.4895
11268TIP3    H255296   5.116   0.329   3.253 -0.2480  1.0389  0.5787
11269TIP3   OH255297   4.928   6.632   5.886  0.3450  0.2552 -0.1439
11269TIP3    H155298   5.021   6.616   5.902  0.7445  1.8923 -0.7422
11269TIP3    H255299   4.909   6.715   5.929 -0.6746  0.2768 -0.6045
11270TIP3   OH255300   1.477   6.110  12.805 -0.4661 -0.3563 -0.0993
11270TIP3    H155301   1.475   6.185  12.746 -2.0994  0.8263  1.3935
11270TIP3    H255302   1.462   6.034  12.748  2.0727  0.3206 -1.7361
11271TIP3   OH255303   4.566   1.952  11.635 -0.1338 -0.3841 -0.2057
11271TIP3    H155304   4.518   2.035  11.639  1.5858  0.5881  0.5176
11271TIP3    H255305   4.501   1.889  11.604 -2.1065  0.7516  1.4578
11272TIP3   OH255306   0.043   0.236  12.148  0.1974 -0.5275 -0.6358
11272TIP3    H155307  -0.014   0.176  12.196 -1.1053  0.9190 -0.3408
11272TIP3    H255308   0.113   0.257  12.209  0.5519 -1.5631 -0.6696
11273TIP3   OH255309   4.680   5.187  14.209 -0.0547 -0.3412 -0.6449
11273TIP3    H155310   4.732   5.171  14.288 -0.5150 -0.7548 -0.4194
11273TIP3    H255311   4.622   5.111  14.203 -0.0286 -0.3040 -1.3806
11274TIP3   OH255312   5.384   2.351   1.021 -0.0496 -0.3947 -0.3885
11274TIP3    H155313   5.421   2.262   1.024  0.3053 -0.2414 -0.2302
11274TIP3    H255314   5.389   2.376   0.929  0.9495 -0.0767 -0.2540
11275TIP3   OH255315   5.540   5.440  14.587  0.2027 -0.2389 -0.3610
11275TIP3    H155316   5.498   5.487  14.659  0.3960  1.0181 -1.0482
11275TIP3    H255317   5.499   5.477  14.508 -0.2834 -1.8575 -0.8875
11276TIP3   OH255318   1.672   4.779   1.125  0.0340  0.1039  0.5633
11276TIP3    H155319   1.578   4.766   1.121  0.0232  0.3588 -0.1807
11276TIP3    H255320   1.687   4.820   1.210 -0.3688 -1.1265  1.2406
11277TIP3   OH255321   0.852   5.928   1.916  0.0636  0.5976 -0.1644
11277TIP3    H155322   0.785   5.983   1.957  0.4964 -0.4494  1.9953
11277TIP3    H255323   0.814   5.841   1.914  1.6321 -0.1543  1.7657
11278TIP3   OH255324   4.222   4.282   5.162  0.3246  0.0183 -0.7866
11278TIP3    H155325   4.146   4.265   5.218  1.1044  0.0803  0.3089
11278TIP3    H255326   4.186   4.288   5.073 -1.2003  1.8785 -0.0754
11279TIP3   OH255327   5.345   6.565   0.974  0.2780  0.0609 -0.5480
11279TIP3    H155328   5.290   6.490   0.953 -0.6165  0.5582 -0.0243
11279TIP3    H255329   5.347   6.568   1.070 -0.6002  1.3419 -0.5565
11280TIP3   OH255330   4.405   0.819  13.100 -0.0867 -0.1595 -0.4360
11280TIP3    H155331   4.491   0.778  13.108  0.3556  0.5125 -1.6456
11280TIP3    H255332   4.345   0.746  13.083  0.3174 -0.5782 -0.0565
11281TIP3   OH255333   1.940   2.478  15.770 -0.1635 -1.0673  0.3448
11281TIP3    H155334   1.903   2.566  15.760  0.4353 -0.7509  0.8697
11281TIP3    H255335   2.034   2.490  15.758  0.1288 -1.3315  2.2482
11282TIP3   OH255336   6.358   3.180  16.552  0.2367 -0.6906 -0.0824
11282TIP3    H155337   6.287   3.209  16.495  0.7930 -2.3167 -1.6782
11282TIP3    H255338   6.429   3.159  16.491  1.3646 -1.0257  1.3404
11283TIP3   OH255339   1.651   1.941   1.415 -0.0978 -0.4395 -0.0540
11283TIP3    H155340   1.701   1.862   1.393 -0.9587 -0.8440 -0.5910
11283TIP3    H255341   1.564   1.924   1.381 -0.9688 -0.2713  2.0199
11284TIP3   OH255342   2.889   2.071  11.516 -0.2447 -0.1308 -0.3844
11284TIP3    H155343   2.877   2.083  11.610  0.0210  0.6345 -0.4471
11284TIP3    H255344   2.928   2.153  11.486  2.1591 -1.3355 -0.7039
11285TIP3   OH255345   0.113   2.180  14.759  0.3201 -0.0975 -0.2386
11285TIP3    H155346   0.019   2.198  14.768  0.5024  0.9576 -0.3572
11285TIP3    H255347   0.151   2.264  14.733  1.3066 -0.5063 -0.1370
11286TIP3   OH255348   6.746   6.362   2.851  0.5504  0.1862  0.4242
11286TIP3    H155349   6.675   6.399   2.903  0.1403 -0.2131  0.1571
11286TIP3    H255350   6.811   6.432   2.844 -0.0561  0.7299  0.2335
11287TIP3   OH255351   6.482   1.127   1.649  0.4366  0.2080  0.1741
11287TIP3    H155352   6.516   1.082   1.726  0.1756  1.6340  1.1420
11287TIP3    H255353   6.557   1.130   1.589  0.5434 -1.2133  0.2172
11288TIP3   OH255354   6.816   1.415  16.354 -0.4960  0.4246  0.7381
11288TIP3    H155355   6.870   1.403  16.432 -2.3046 -1.9642  1.7045
11288TIP3    H255356   6.728   1.389  16.382 -1.4236  0.7339 -1.7734
11289TIP3   OH255357   1.706   0.947  12.407 -0.8558  0.0541  0.4309
11289TIP3    H155358   1.684   0.893  12.331 -1.1949  0.7657  0.0145
11289TIP3    H255359   1.655   1.027  12.395  1.1986  1.3248 -0.0442
11290TIP3   OH255360   2.238   2.272   0.232 -0.3748  0.0659  0.0772
11290TIP3    H155361   2.219   2.292   0.140 -0.0406 -0.1419 -0.0351
11290TIP3    H255362   2.166   2.314   0.281 -1.9703 -1.9504 -0.4546
11291TIP3   OH255363   3.561   4.191  13.289 -0.0009 -0.7428  0.6043
11291TIP3    H155364   3.528   4.118  13.342  1.3023 -0.2373  2.1607
11291TIP3    H255365   3.626   4.233  13.345  0.1144  0.9049 -0.7424
11292TIP3   OH255366   3.221   3.706   4.280 -0.1058 -0.0929 -0.1911
11292TIP3    H155367   3.290   3.641   4.284  0.1591  0.2375  0.6553
11292TIP3    H255368   3.231   3.746   4.193 -0.4615 -1.3743 -0.8208
11293TIP3   OH255369   5.681   0.509  11.954 -0.6953  0.2899  0.4765
11293TIP3    H155370   5.617   0.559  12.005  0.2976  1.2724  0.7771
11293TIP3    H255371   5.695   0.429  12.005 -1.7574  0.0187  0.3519
11294TIP3   OH255372   4.354   2.196  11.808 -0.2928 -0.1327  0.2716
11294TIP3    H155373   4.443   2.161  11.809 -0.0615  0.4056 -0.7607
11294TIP3    H255374   4.321   2.176  11.720 -1.6634 -1.4882  1.0604
11295TIP3   OH255375   0.338   0.828  14.202 -0.5209 -0.0324  0.9605
11295TIP3    H155376   0.278   0.862  14.268 -2.6506 -0.8738 -0.4830
11295TIP3    H255377   0.326   0.887  14.127  1.8206  0.8793  1.2712
11296TIP3   OH255378   5.012   3.145  15.847  0.4802 -0.2594 -0.2554
11296TIP3    H155379   4.953   3.077  15.879  1.1013 -0.5198  0.3333
11296TIP3    H255380   5.059   3.104  15.775  0.5447 -0.3133 -0.1820
11297TIP3   OH255381   5.255   6.194  11.427 -0.0098  0.0990 -0.6403
11297TIP3    H155382   5.267   6.277  11.380  0.2250  0.6711  0.4087
11297TIP3    H255383   5.340   6.150  11.418  0.1768  0.4019 -0.3861
11298TIP3   OH255384   1.630   1.796   2.485 -0.9593 -0.5505  0.3692
11298TIP3    H155385   1.629   1.871   2.426  2.5410 -0.0820  0.7890
11298TIP3    H255386   1.616   1.720   2.429  0.6803  0.0271 -0.8582
11299TIP3   OH255387   2.541   0.929  15.424 -0.2929  0.4040  0.0260
11299TIP3    H155388   2.562   0.896  15.511 -2.3026 -0.0082  0.3635
11299TIP3    H255389   2.476   0.997  15.438  0.5198  1.4256 -1.0443
11300TIP3   OH255390   4.359   6.811   3.015 -0.3093 -0.2948  0.3844
11300TIP3    H155391   4.402   6.728   3.037 -0.4314 -0.5495 -0.3426
11300TIP3    H255392   4.360   6.814   2.919 -1.3402  0.0069  0.3856
11301TIP3   OH255393   5.468   2.209  14.893  0.4428  0.6535 -0.2526
11301TIP3    H155394   5.547   2.166  14.860 -0.5941 -0.7452 -0.9877
11301TIP3    H255395   5.455   2.172  14.980  1.1675  1.6578  0.2879
11302TIP3   OH255396   3.085   2.037   1.347  0.0058 -0.2925  0.0965
11302TIP3    H155397   3.013   2.042   1.410 -0.6383 -0.4221 -0.6237
11302TIP3    H255398   3.162   2.018   1.400 -0.4929 -0.1564  0.8736
11303TIP3   OH255399   6.145   3.359   0.431 -0.0949 -0.3989 -0.1496
11303TIP3    H155400   6.183   3.275   0.456 -1.3369 -0.9969 -0.2310
11303TIP3    H255401   6.220   3.418   0.421  0.8220 -1.6366 -0.6189
11304TIP3   OH255402   3.155   4.845   0.218 -0.5769 -0.6572 -0.0527
11304TIP3    H155403   3.124   4.779   0.156  1.5170 -2.5533  0.8075
11304TIP3    H255404   3.250   4.838   0.215 -0.3629  1.0601  1.4306
11305TIP3   OH255405   6.136   2.909  13.589 -0.3793  0.0873  0.2532
11305TIP3    H155406   6.199   2.970  13.628  0.2112 -0.5780  0.3534
11305TIP3    H255407   6.186   2.863  13.522 -0.5158 -1.0507  0.9204
11306TIP3   OH255408   6.617   2.787  15.817  0.1330 -0.2190 -0.6613
11306TIP3    H155409   6.592   2.731  15.890  0.4922  1.3675  0.6874
11306TIP3    H255410   6.693   2.742  15.778  1.6773  0.3231  1.6458
11307TIP3   OH255411   6.343   6.356  16.613  0.8318  0.2607  0.4459
11307TIP3    H155412   6.277   6.357  16.544  1.2435  2.4484  0.0476
11307TIP3    H255413   6.412   6.298  16.580 -0.5666 -1.5483  0.6035
11308TIP3   OH255414   3.057   1.021   3.323  0.3111  0.1366 -0.5006
11308TIP3    H155415   3.005   0.942   3.306  1.5664 -0.7751 -0.1922
11308TIP3    H255416   3.142   0.987   3.353 -0.2349  1.5980  2.8804
11309TIP3   OH255417   2.655   1.195  16.604  0.4508 -0.1729 -0.1880
11309TIP3    H155418   2.740   1.162  16.633  0.9341 -0.1613 -1.5669
11309TIP3    H255419   2.643   1.156  16.517 -0.2083  1.1340 -0.6812
11310TIP3   OH255420   3.325   0.717   4.191 -0.4698 -0.3884  0.3377
11310TIP3    H155421   3.366   0.798   4.160 -0.0380 -1.6100 -2.4630
11310TIP3    H255422   3.392   0.675   4.245  0.8928 -0.8854 -1.6786
11311TIP3   OH255423   0.346   3.599   1.703 -0.6953  0.4657  0.1942
11311TIP3    H155424   0.323   3.511   1.674  0.8259  0.2922 -0.5425
11311TIP3    H255425   0.407   3.631   1.637  0.5143  1.2104  1.6264
11312TIP3   OH255426   3.295   1.606   1.695 -0.1492  0.1749  0.1436
11312TIP3    H155427   3.299   1.664   1.772  0.5709  0.4281 -0.0805
11312TIP3    H255428   3.201   1.597   1.676 -0.3074  0.4936  0.7620
11313TIP3   OH255429   0.055   1.328   4.513  0.4902 -0.3206 -0.3035
11313TIP3    H155430   0.081   1.248   4.467 -0.3274 -0.0312 -1.2775
11313TIP3    H255431   0.110   1.329   4.591  1.1009 -1.4009 -0.7053
11314TIP3   OH255432   4.917   1.013   0.118  0.5323  0.0647 -0.3253
11314TIP3    H155433   4.873   1.042   0.038 -0.5113  1.9460  0.8574
11314TIP3    H255434   5.002   1.056   0.116  1.0209 -0.9464 -1.0601
11315TIP3   OH255435   6.585   3.097   4.566 -0.2529 -0.2351 -0.1336
11315TIP3    H155436   6.592   3.052   4.482  0.2207  0.8029 -0.6596
11315TIP3    H255437   6.651   3.166   4.562 -1.7922  1.2991  0.1527
11316TIP3   OH255438   5.749   3.380  12.776  0.0447  0.5187 -0.1011
11316TIP3    H155439   5.820   3.357  12.836 -0.7811  0.4887  0.8862
11316TIP3    H255440   5.690   3.435  12.828 -2.4298 -2.2688  0.1628
11317TIP3   OH255441   4.185   0.607   5.393  0.2360  0.1551 -0.0758
11317TIP3    H155442   4.132   0.686   5.399  0.4839  0.5206 -2.4020
11317TIP3    H255443   4.269   0.636   5.359  1.0521 -0.8189  1.0497
11318TIP3   OH255444   0.250   6.732   1.849 -0.4961 -0.0491 -0.3034
11318TIP3    H155445   0.340   6.715   1.874 -0.2059 -0.4913 -1.6417
11318TIP3    H255446   0.239   6.690   1.764 -2.1596 -0.5913  0.1475
11319TIP3   OH255447   1.530   6.273   3.940  0.1452 -0.2577 -0.5843
11319TIP3    H155448   1.581   6.246   3.864  0.8049  0.5009 -0.4116
11319TIP3    H255449   1.502   6.362   3.919  0.2991 -0.0606  0.0478
11320TIP3   OH255450   4.019   6.202   3.205  0.1576 -0.0904  0.1513
11320TIP3    H155451   4.067   6.284   3.211  0.5088 -0.4884  3.6012
11320TIP3    H255452   4.086   6.138   3.179  0.3176  0.3373 -0.5032
11321TIP3   OH255453   4.923   1.423  15.527 -0.1828 -0.3310 -0.0496
11321TIP3    H155454   4.859   1.367  15.483  2.2696 -2.4943 -1.0032
11321TIP3    H255455   5.004   1.372  15.528  1.2677  1.8498  2.1578
11322TIP3   OH255456   0.518   1.920   5.837 -0.2504 -0.8849 -0.1926
11322TIP3    H155457   0.536   1.997   5.891  1.7377  0.2066 -2.2811
11322TIP3    H255458   0.585   1.857   5.862  0.6224 -0.4081 -1.2540
11323TIP3   OH255459   5.739   3.561  14.341 -0.5499  0.0287  0.5878
11323TIP3    H155460   5.728   3.492  14.275 -3.4975  1.0097 -0.0634
11323TIP3    H255461   5.778   3.634  14.293 -1.6633  0.3557  0.1518
11324TIP3   OH255462   2.007   0.564  15.350  0.0197  0.4404  0.4692
11324TIP3    H155463   1.977   0.477  15.326  1.0765  0.6030 -1.6066
11324TIP3    H255464   1.973   0.621  15.281  0.8517  1.3811  0.8193
11325TIP3   OH255465   2.326   1.580   3.390 -0.1238  0.3592 -0.1801
11325TIP3    H155466   2.371   1.571   3.307  1.8222 -2.4967  1.1149
11325TIP3    H255467   2.395   1.590   3.455 -1.5391  0.7350  1.3228
11326TIP3   OH255468   5.836   3.160  16.212  0.0640 -0.2425  0.0807
11326TIP3    H155469   5.819   3.225  16.279  1.1409  0.0626  0.0676
11326TIP3    H255470   5.757   3.107  16.209 -0.2342  0.1396  1.1335
11327TIP3   OH255471   1.325   5.093  11.923 -0.1153  0.5636 -0.1202
11327TIP3    H155472   1.249   5.060  11.971 -0.2268  2.2546  0.8834
11327TIP3    H255473   1.301   5.181  11.897  0.7151  0.3631 -1.6082
11328TIP3   OH255474   2.568   0.118  16.837 -0.2181  0.3860 -0.1105
11328TIP3    H155475   2.613   0.179  16.779 -0.0956  1.5086  1.1387
11328TIP3    H255476   2.475   0.137  16.824 -0.1825  0.8087  0.2251
11329TIP3   OH255477   0.149   5.398   3.332  0.3979  0.0667 -0.2846
11329TIP3    H155478   0.143   5.445   3.414  0.5609 -1.8282  0.8448
11329TIP3    H255479   0.191   5.459   3.272  2.2674  0.7100  1.6363
11330TIP3   OH255480   6.212   0.906   2.532 -0.2499 -0.7103 -0.4497
11330TIP3    H155481   6.292   0.949   2.561 -0.8402  1.2902 -1.6420
11330TIP3    H255482   6.141   0.964   2.561 -1.1941 -1.8650 -0.4047
11331TIP3   OH255483   4.781   0.549   4.835  0.0285 -0.2621  0.1677
11331TIP3    H155484   4.773   0.629   4.888 -1.6816 -0.3984  0.1542
11331TIP3    H255485   4.691   0.518   4.826  0.8529 -3.3136  1.9000
11332TIP3   OH255486   6.752   6.410  13.453 -0.5874  0.1429  0.0247
11332TIP3    H155487   6.806   6.429  13.376 -0.6447  0.5383  0.0867
11332TIP3    H255488   6.701   6.489  13.467 -1.4310 -0.3490 -0.2296
11333TIP3   OH255489   3.689   0.586   1.528  0.7397 -0.3004  0.1253
11333TIP3    H155490   3.739   0.505   1.519  0.0378 -0.7350  0.0971
11333TIP3    H255491   3.688   0.624   1.441  3.5364  1.2145  0.7256
11334TIP3   OH255492   1.994   4.120  10.826  0.5841 -0.2866 -0.8242
11334TIP3    H155493   2.088   4.129  10.842  0.3853  1.6195 -0.5512
11334TIP3    H255494   1.986   4.124  10.731  0.6006  1.8830 -0.7578
11335TIP3   OH255495   1.676   5.887  14.327 -0.3524  0.7272 -0.1325
11335TIP3    H155496   1.698   5.803  14.286  0.6612  0.8409  0.1651
11335TIP3    H255497   1.631   5.935  14.258 -1.1536 -0.1527 -0.2307
11336TIP3   OH255498   3.745   2.530  11.864 -0.6831 -0.3982  0.3119
11336TIP3    H155499   3.671   2.511  11.921 -0.2456 -0.7303  0.7753
11336TIP3    H255500   3.801   2.588  11.915 -0.1530 -0.9195  0.3214
11337TIP3   OH255501   6.561   5.291  12.511 -0.3313 -0.3040  0.4354
11337TIP3    H155502   6.496   5.361  12.516  0.3425  0.4752 -1.0407
11337TIP3    H255503   6.512   5.214  12.483 -0.8269 -0.0270  0.5294
11338TIP3   OH255504   1.979   5.133  11.742 -0.3120 -0.4118  0.1653
11338TIP3    H155505   1.955   5.156  11.653  1.0101 -1.9328 -0.6102
11338TIP3    H255506   2.041   5.201  11.769  1.1033 -1.2335 -0.9472
11339TIP3   OH255507   0.300   2.232  15.633  0.1440 -0.1069 -0.3287
11339TIP3    H155508   0.396   2.233  15.632  0.1559 -0.3000  0.1947
11339TIP3    H255509   0.276   2.139  15.626 -0.0109 -0.0395 -0.7133
11340TIP3   OH255510   1.145   0.470   2.666  0.0893  0.2150  0.1640
11340TIP3    H155511   1.119   0.551   2.621  0.4582  0.6057  0.6480
11340TIP3    H255512   1.235   0.486   2.695  0.2172 -0.4270  0.1301
11341TIP3   OH255513   6.424   5.347  17.000  0.1978  0.2337 -0.3814
11341TIP3    H155514   6.510   5.359  17.040  0.0400  2.6851 -0.6874
11341TIP3    H255515   6.411   5.426  16.947 -1.9464 -0.4234 -0.8939
11342TIP3   OH255516   6.349   5.183  15.782 -0.2266 -0.2621 -0.4572
11342TIP3    H155517   6.326   5.144  15.867  0.3928  1.2937  0.4525
11342TIP3    H255518   6.312   5.271  15.785  1.2187  0.3866 -1.1131
11343TIP3   OH255519   4.814   5.614   2.341 -0.9267  0.0519 -0.2025
11343TIP3    H155520   4.890   5.657   2.379  0.0647 -2.3996  0.6332
11343TIP3    H255521   4.846   5.575   2.260 -1.1151 -1.5209  0.4602
11344TIP3   OH255522   5.372   1.053  16.203  0.0114 -0.0500  0.3833
11344TIP3    H155523   5.374   0.985  16.135  1.3273  0.6317 -0.2729
11344TIP3    H255524   5.323   1.013  16.275 -1.5693 -0.7114 -1.0235
11345TIP3   OH255525   4.716   2.261  17.288 -0.3132 -0.0662 -0.2024
11345TIP3    H155526   4.621   2.256  17.279 -0.4050  1.9660 -0.7249
11345TIP3    H255527   4.749   2.187  17.238 -1.6488 -1.4224  0.8776
11346TIP3   OH255528   5.414   1.540   4.911  0.2366  0.0130  0.1704
11346TIP3    H155529   5.393   1.477   4.843 -0.0621 -0.2740  0.5299
11346TIP3    H255530   5.339   1.538   4.971  0.8662 -0.3384  0.9555
11347TIP3   OH255531   5.598   1.869   3.383  0.1212 -0.2971 -0.3669
11347TIP3    H155532   5.684   1.857   3.343  0.6745 -0.3063  0.8031
11347TIP3    H255533   5.578   1.784   3.422  0.8054  0.4737  1.6931
11348TIP3   OH255534   6.735   5.904   3.779  0.1498 -0.5146  0.1978
11348TIP3    H155535   6.664   5.880   3.839  0.8315 -0.3312  1.0923
11348TIP3    H255536   6.783   5.822   3.765 -0.4484 -0.7162 -0.6976
11349TIP3   OH255537   5.328   1.700   4.521 -0.0197  0.1365 -0.7824
11349TIP3    H155538   5.394   1.762   4.553  0.0314  0.0371 -0.6987
11349TIP3    H255539   5.354   1.682   4.430 -0.1475  0.3925 -0.8714
11350TIP3   OH255540   3.941   6.362   2.401  0.3204  1.0436  0.3449
11350TIP3    H155541   3.944   6.304   2.325  1.0036  0.9653  0.4267
11350TIP3    H255542   3.849   6.360   2.428  0.6315 -1.3719  1.3887
11351TIP3   OH255543   3.000   0.198  14.036  0.1051  0.3900  0.3832
11351TIP3    H155544   3.065   0.226  14.100  2.3754  0.1378 -1.7549
11351TIP3    H255545   2.995   0.103  14.046 -0.4497  0.4783  0.9984
11352TIP3   OH255546   2.524   0.947   1.919 -0.1182 -0.1177  0.8635
11352TIP3    H155547   2.447   0.981   1.874  0.4197  0.9144  0.7160
11352TIP3    H255548   2.586   1.020   1.921  0.8116 -0.8904  1.0971
11353TIP3   OH255549   0.442   1.236  11.840 -0.0969  0.1307  0.2172
11353TIP3    H155550   0.389   1.306  11.877 -0.2238  0.5328 -0.7272
11353TIP3    H255551   0.497   1.279  11.775  0.2197 -0.5548  0.0301
11354TIP3   OH255552   0.016   0.138   4.290 -0.2172 -0.3182  0.1858
11354TIP3    H155553  -0.071   0.164   4.321 -0.0187 -1.2154  1.5426
11354TIP3    H255554   0.001   0.107   4.201 -1.4419 -1.2579  0.6921
11355TIP3   OH255555   2.822   1.774   5.971  0.4063  0.4819 -0.1812
11355TIP3    H155556   2.831   1.863   5.937  0.5417  0.7527  0.5504
11355TIP3    H255557   2.761   1.731   5.911 -0.6592  1.4540  0.1727
11356TIP3   OH255558   3.804   4.811  13.784 -0.3967  0.0614 -0.0110
11356TIP3    H155559   3.836   4.826  13.695 -2.0338 -1.5894 -0.9210
11356TIP3    H255560   3.710   4.827  13.779 -1.0181 -3.0536  0.6495
11357TIP3   OH255561   6.244   1.596  12.590  0.3217  0.7109 -0.0720
11357TIP3    H155562   6.297   1.559  12.661  0.8178  2.1191  0.2953
11357TIP3    H255563   6.198   1.520  12.554  2.2612 -0.4884 -0.1334
11358TIP3   OH255564   1.996   3.407  13.734 -0.3010  0.1069 -0.4143
11358TIP3    H155565   2.048   3.441  13.808  0.5319 -2.2794  0.1556
11358TIP3    H255566   1.924   3.359  13.775 -1.6998  1.4884 -1.2030
11359TIP3   OH255567   5.139   6.370   4.127  0.4427 -0.4456  0.3450
11359TIP3    H155568   5.062   6.314   4.114 -0.5862  1.2500 -1.1693
11359TIP3    H255569   5.202   6.339   4.062 -0.0083 -0.0668 -0.2793
11360TIP3   OH255570   2.281   1.539  12.812 -0.0112 -0.3673 -0.5796
11360TIP3    H155571   2.359   1.486  12.830 -0.1767 -0.2805  0.4090
11360TIP3    H255572   2.302   1.625  12.848 -1.1616 -0.7713  1.0734
11361TIP3   OH255573   4.170   1.998   0.682 -0.2321 -0.5104 -0.0853
11361TIP3    H155574   4.219   1.922   0.650 -0.7004 -0.2815 -1.3763
11361TIP3    H255575   4.232   2.071   0.672 -1.1054 -0.0522 -2.6271
11362TIP3   OH255576   2.507   5.806   1.255 -0.1270  0.8179  0.7604
11362TIP3    H155577   2.435   5.815   1.192  0.6307  0.7334 -0.1361
11362TIP3    H255578   2.478   5.738   1.316 -0.2952 -0.1205 -0.3391
11363TIP3   OH255579   1.178   3.125   2.010 -0.2083  0.1478  0.4179
11363TIP3    H155580   1.095   3.134   1.963 -1.4984 -1.6996  2.2846
11363TIP3    H255581   1.236   3.189   1.968 -2.3962  1.0873 -1.2665
11364TIP3   OH255582   0.396   4.456   1.121 -0.1159  0.5277  0.3114
11364TIP3    H155583   0.482   4.470   1.162 -0.5576  0.4718  1.2834
11364TIP3    H255584   0.364   4.543   1.101  1.0431  0.4642 -1.9269
11365TIP3   OH255585   3.503   6.027   1.300  0.1840  0.0941  0.1265
11365TIP3    H155586   3.507   5.958   1.234  1.3656  1.0659 -0.8346
11365TIP3    H255587   3.410   6.031   1.324 -0.2844 -0.2172 -1.5380
11366TIP3   OH255588   3.321   0.330  11.490  0.6339  0.3140  0.0176
11366TIP3    H155589   3.358   0.402  11.541 -0.2220  0.7947 -0.0275
11366TIP3    H255590   3.368   0.332  11.407 -1.7403  3.0309 -1.3440
11367TIP3   OH255591   0.671   5.126   5.563  0.2391  0.2729  0.1150
11367TIP3    H155592   0.684   5.116   5.657 -1.2987  0.8599  0.3978
11367TIP3    H255593   0.672   5.221   5.548  2.5553  0.1487 -0.7816
11368TIP3   OH255594   4.868   1.519   3.387  0.1394  0.1805 -0.7462
11368TIP3    H155595   4.885   1.610   3.361  0.1467  0.4915  0.3178
11368TIP3    H255596   4.861   1.523   3.483 -1.1695 -0.7221 -0.8025
11369TIP3   OH255597   5.112   1.923   5.453 -0.6752  0.0969  0.4871
11369TIP3    H155598   5.057   1.993   5.488 -0.8944 -0.3309  1.0159
11369TIP3    H255599   5.202   1.954   5.466 -0.7268 -0.4399  2.2770
11370TIP3   OH255600   2.573   3.401   2.760 -0.2857 -0.7997  0.8579
11370TIP3    H155601   2.493   3.353   2.779 -0.2805 -0.5691  1.4747
11370TIP3    H255602   2.549   3.460   2.689 -0.6018 -0.8904  0.8877
11371TIP3   OH255603   3.393   4.051   1.634  0.1014  0.4567 -0.0650
11371TIP3    H155604   3.352   4.020   1.714 -0.1224  0.9088 -0.0032
11371TIP3    H255605   3.435   3.973   1.597 -0.4908  0.0659  0.0644
11372TIP3   OH255606   4.961   0.457  12.358 -0.7096  0.3087 -0.8058
11372TIP3    H155607   4.883   0.406  12.380  0.9452 -1.7415  0.4235
11372TIP3    H255608   4.961   0.528  12.423 -0.8510 -0.4299  0.0125
11373TIP3   OH255609   0.325   0.737   2.313 -0.3823 -0.2979  0.2427
11373TIP3    H155610   0.407   0.759   2.268 -0.6388 -0.3079 -0.2274
11373TIP3    H255611   0.304   0.649   2.282 -0.4129 -0.4213  0.6031
11374TIP3   OH255612   5.198   3.575  10.906  0.1734  0.2107  0.0831
11374TIP3    H155613   5.159   3.496  10.943 -1.3952  0.3605 -1.1738
11374TIP3    H255614   5.277   3.545  10.863 -0.6125 -0.7563 -0.7094
11375TIP3   OH255615   1.281   3.672  13.247 -0.6978  0.5619  0.0029
11375TIP3    H155616   1.303   3.703  13.159  0.3600  0.7620  0.3433
11375TIP3    H255617   1.324   3.733  13.306 -0.0364 -0.5328  0.6701
11376TIP3   OH255618   5.137   5.887  10.726  0.0255 -0.0743 -0.0823
11376TIP3    H155619   5.136   5.792  10.713  1.1501 -0.4497  2.4218
11376TIP3    H255620   5.218   5.904  10.772  0.0902  2.2026 -0.9919
11377TIP3   OH255621   3.279   0.712  15.564 -0.3436 -0.2006 -0.1412
11377TIP3    H155622   3.355   0.657  15.543  0.9076  1.3276  0.3311
11377TIP3    H255623   3.315   0.798  15.584 -2.0976  0.2622  1.2603
11378TIP3   OH255624   5.674   5.109   2.784 -0.0178 -0.0193  0.8903
11378TIP3    H155625   5.621   5.073   2.712 -0.3712  2.4590 -0.1398
11378TIP3    H255626   5.632   5.076   2.863 -2.9769  1.6874  0.0788
11379TIP3   OH255627   4.594   1.722   4.003  0.3283  0.3243  0.1983
11379TIP3    H155628   4.647   1.644   4.022 -0.4728 -0.3667 -0.3950
11379TIP3    H255629   4.590   1.725   3.907 -0.4995  0.5161  0.2370
11380TIP3   OH255630   3.867   3.807   2.861  0.4135 -0.7610  0.1288
11380TIP3    H155631   3.779   3.793   2.897 -0.2709 -0.7221 -1.5030
11380TIP3    H255632   3.897   3.888   2.902  0.2017 -1.4227  1.6406
11381TIP3   OH255633   1.273   6.422  16.889  1.1118  0.1388  0.2421
11381TIP3    H155634   1.236   6.396  16.805 -1.0303  0.4970  1.0469
11381TIP3    H255635   1.350   6.474  16.866  0.9210 -0.3084 -1.4756
11382TIP3   OH255636   3.903   2.272  14.715 -0.2970  1.1636 -0.5852
11382TIP3    H155637   3.816   2.245  14.743  0.5383  0.7436  1.6848
11382TIP3    H255638   3.937   2.323  14.788  1.7390  0.5276 -1.0643
11383TIP3   OH255639   4.962   1.604   6.092 -0.1759 -0.2947  0.3754
11383TIP3    H155640   5.008   1.687   6.081 -0.3102 -0.0656  1.4870
11383TIP3    H255641   4.873   1.621   6.061 -1.0454  0.8420  3.3935
11384TIP3   OH255642   1.265   5.893   2.351  0.4858  0.2911  0.5514
11384TIP3    H155643   1.192   5.953   2.334 -0.5176 -0.8706  0.6282
11384TIP3    H255644   1.226   5.806   2.343  1.6293 -0.3356  1.6512
11385TIP3   OH255645   4.438   2.229  17.267  0.0709  0.2466 -0.1346
11385TIP3    H155646   4.376   2.160  17.245  0.4628  0.4790 -2.1108
11385TIP3    H255647   4.398   2.309  17.231  0.1639  0.8643  1.1068
11386TIP3   OH255648   0.190   1.412  11.905  0.4409  0.2198 -0.1129
11386TIP3    H155649   0.136   1.412  11.983 -1.3093  2.2862 -1.2791
11386TIP3    H255650   0.131   1.388  11.834  1.5197  0.4328 -1.1094
11387TIP3   OH255651   1.955   0.667  11.232 -0.0913  1.2733 -0.8369
11387TIP3    H155652   1.903   0.586  11.231 -1.4453  2.1061  0.1635
11387TIP3    H255653   1.971   0.684  11.324  2.0162  1.0194 -1.1434
11388TIP3   OH255654   1.393   3.011   0.881 -0.6548 -0.0016 -0.3573
11388TIP3    H155655   1.322   2.947   0.878  0.6838 -1.5509  0.1341
11388TIP3    H255656   1.379   3.059   0.963 -1.7895  0.5134 -0.8354
11389TIP3   OH255657   1.202   4.373  14.057  0.9637 -0.0708 -0.0663
11389TIP3    H155658   1.185   4.350  13.965 -1.2204 -2.4238  0.8906
11389TIP3    H255659   1.125   4.423  14.084  2.7683  2.8925 -0.2175
11390TIP3   OH255660   4.155   2.268  13.523  0.0199 -0.0479 -0.1268
11390TIP3    H155661   4.154   2.243  13.431  0.5920 -0.0153 -0.1453
11390TIP3    H255662   4.186   2.189  13.568 -1.6548 -0.5314  0.1831
11391TIP3   OH255663   2.874   5.346  12.731  0.1838  0.5327  0.3291
11391TIP3    H155664   2.870   5.360  12.637  0.3198 -0.4193  0.1777
11391TIP3    H255665   2.968   5.344  12.751  0.1517  2.8791  0.8169
11392TIP3   OH255666   5.420   5.908   2.304 -0.1294  0.4499 -0.0444
11392TIP3    H155667   5.494   5.969   2.297  1.2520 -1.1028  0.6360
11392TIP3    H255668   5.393   5.892   2.214  0.0428  1.4148 -0.2737
11393TIP3   OH255669   3.678   1.346   1.181  0.1098 -0.2008  0.3227
11393TIP3    H155670   3.704   1.262   1.219 -4.7446 -1.1608  1.7723
11393TIP3    H255671   3.680   1.407   1.255 -0.7624 -0.0793  0.2493
11394TIP3   OH255672   1.159   5.685  11.150 -0.0213 -0.4649 -0.4103
11394TIP3    H155673   1.216   5.628  11.201 -1.5992 -1.4660  0.2741
11394TIP3    H255674   1.128   5.630  11.078 -0.1501  0.0701 -0.7711
11395TIP3   OH255675   5.488   2.424  16.715  0.7682 -1.0760 -0.2438
11395TIP3    H155676   5.548   2.461  16.650  2.2852 -2.0970  0.5628
11395TIP3    H255677   5.485   2.490  16.785 -0.4606 -0.2144 -1.0893
11396TIP3   OH255678   4.734   5.926   4.595  0.5873  0.0216 -0.3620
11396TIP3    H155679   4.728   5.874   4.515 -1.0490 -0.2341 -0.0894
11396TIP3    H255680   4.722   6.017   4.566 -2.4572 -0.2697 -0.1450
11397TIP3   OH255681   3.531   3.118   3.526  0.1257  0.2218 -0.7818
11397TIP3    H155682   3.602   3.167   3.485 -1.3713  2.0048 -1.3408
11397TIP3    H255683   3.573   3.039   3.561  2.7169  2.1131  0.5911
11398TIP3   OH255684   6.307   1.775  12.387 -0.2659 -0.1221 -0.6384
11398TIP3    H155685   6.252   1.851  12.408  1.4850  0.5346  1.7797
11398TIP3    H255686   6.300   1.718  12.463  0.0165 -1.4675 -1.5959
11399TIP3   OH255687   0.535   1.822  15.701  0.0100 -0.5325  0.2326
11399TIP3    H155688   0.616   1.850  15.742  0.1237 -0.8091  0.1994
11399TIP3    H255689   0.466   1.858  15.756  0.1343  1.1400 -0.6843
11400TIP3   OH255690   0.628   4.789   5.523  0.0816 -0.3944  0.2727
11400TIP3    H155691   0.680   4.863   5.554  0.2549 -0.4777  0.1826
11400TIP3    H255692   0.540   4.825   5.509  0.3121 -0.0603 -0.3615
11401TIP3   OH255693   1.529   4.041  11.380 -0.2548  0.1385 -0.5878
11401TIP3    H155694   1.566   3.952  11.373  2.1870  1.2040 -2.0795
11401TIP3    H255695   1.567   4.076  11.460 -0.9502 -0.0348 -0.1794
11402TIP3   OH255696   4.082   5.396  15.790  0.7023 -0.2251 -0.4164
11402TIP3    H155697   4.168   5.382  15.751  1.4603  0.8443  0.8263
11402TIP3    H255698   4.066   5.319  15.844  0.9702 -0.3437 -0.5111
11403TIP3   OH255699   3.369   3.365  15.060  0.4177 -0.3097  0.0175
11403TIP3    H155700   3.292   3.395  15.011 -0.6821  0.5557  2.1868
11403TIP3    H255701   3.421   3.444  15.073 -0.1063 -0.1980  1.5914
11404TIP3   OH255702   1.772   5.797  17.056  0.4658 -0.6639  0.3296
11404TIP3    H155703   1.758   5.797  16.962  0.8653 -0.1663  0.2632
11404TIP3    H255704   1.755   5.708  17.084 -0.0072 -0.7250 -0.1639
11405TIP3   OH255705   3.817   3.922   5.090 -0.3239 -0.1150  0.6309
11405TIP3    H155706   3.907   3.949   5.074 -0.2938 -0.5282  0.0655
11405TIP3    H255707   3.785   3.895   5.004 -1.2936  0.9418  0.6513
11406TIP3   OH255708   1.241   4.091   6.777  0.7643 -0.0220  0.3206
11406TIP3    H155709   1.192   4.019   6.816 -0.7362  0.1849 -1.1470
11406TIP3    H255710   1.211   4.169   6.823  2.1548 -0.2615  1.6881
11407TIP3   OH255711   1.821   1.948   3.980 -0.5211 -0.5473 -0.3706
11407TIP3    H155712   1.798   2.017   4.043 -0.3339 -0.5381 -0.3126
11407TIP3    H255713   1.831   1.870   4.034  2.3654  0.0248 -0.0076
11408TIP3   OH255714   3.814   2.580  13.702  0.4412 -0.1463  0.1747
11408TIP3    H155715   3.809   2.513  13.634  0.9096  0.1328 -0.1384
11408TIP3    H255716   3.775   2.538  13.780 -2.5161  0.4352 -0.9363
11409TIP3   OH255717   0.348   1.756  12.194 -0.0761  0.0554 -0.7449
11409TIP3    H155718   0.431   1.755  12.242 -1.4225  0.9573  1.6862
11409TIP3    H255719   0.370   1.721  12.108  3.2689  2.1365 -0.8632
11410TIP3   OH255720   1.762   6.491   1.161  0.5475  0.0623 -0.0758
11410TIP3    H155721   1.688   6.473   1.103  1.9753 -1.9250 -1.3083
11410TIP3    H255722   1.838   6.455   1.116  2.1174  1.0259  1.7272
11411TIP3   OH255723   3.519   3.116  13.072  0.1952 -0.5392  0.2188
11411TIP3    H155724   3.438   3.149  13.033  0.4178 -2.7743 -2.2952
11411TIP3    H255725   3.582   3.116  13.000  1.0911 -3.2504  0.9435
11412TIP3   OH255726   4.228   5.451   1.145  0.0563 -0.0354 -0.2152
11412TIP3    H155727   4.186   5.526   1.188  1.0469  1.0584 -1.1345
11412TIP3    H255728   4.309   5.438   1.194 -0.3518 -0.8316  0.2542
11413TIP3   OH255729   0.609   6.527  15.511 -0.4910  0.5359  0.5010
11413TIP3    H155730   0.674   6.596  15.524 -0.7881  1.0921 -0.8778
11413TIP3    H255731   0.530   6.573  15.483 -0.9035 -0.2996  0.2662
11414TIP3   OH255732   4.077   0.200   4.908  0.0478 -0.2476  0.2820
11414TIP3    H155733   3.983   0.188   4.896 -0.1174  0.1242  1.1514
11414TIP3    H255734   4.117   0.142   4.844 -0.7774  0.8511 -1.2727
11415TIP3   OH255735   5.476   2.428  11.981 -0.6020  0.3742 -0.0948
11415TIP3    H155736   5.540   2.458  12.045 -1.4246  0.7438  0.5740
11415TIP3    H255737   5.520   2.358  11.933 -0.5345 -1.0350  1.9563
11416TIP3   OH255738   3.738   5.993   2.196  0.0051 -0.4398 -0.3837
11416TIP3    H155739   3.672   6.044   2.242  0.8371  0.3343 -0.0524
11416TIP3    H255740   3.751   6.039   2.113 -0.6423 -1.1862 -0.9133
11417TIP3   OH255741   2.325   4.332   4.173  0.6283  0.2956 -0.0844
11417TIP3    H155742   2.404   4.387   4.168 -0.1525  1.3802 -0.7880
11417TIP3    H255743   2.264   4.383   4.227 -0.8207  1.0470 -2.3846
11418TIP3   OH255744   5.317   0.094  11.419  0.2463  0.1381  0.0511
11418TIP3    H155745   5.263   0.051  11.485  0.0538  1.0203  0.4683
11418TIP3    H255746   5.380   0.145  11.469  0.1687  0.7226 -0.4380
11419TIP3   OH255747   4.240   2.318   0.775 -0.1469  0.1241  0.1921
11419TIP3    H155748   4.145   2.315   0.787 -0.5059 -2.1100 -2.6334
11419TIP3    H255749   4.256   2.402   0.731 -0.8678  0.3252  0.3038
11420TIP3   OH255750   5.192   6.132  15.354 -0.2581  0.3416 -0.0505
11420TIP3    H155751   5.280   6.170  15.353 -0.4933  0.9337  1.1029
11420TIP3    H255752   5.170   6.120  15.262  2.1607 -2.4483 -0.3455
11421TIP3   OH255753   1.248   1.487   2.381  0.2911  0.5743 -0.2484
11421TIP3    H155754   1.241   1.535   2.463  0.9007  1.3544 -0.6420
11421TIP3    H255755   1.312   1.536   2.330  0.8252 -0.5859 -0.7221
11422TIP3   OH255756   6.653   3.115   0.196  0.0286 -0.3980  0.2504
11422TIP3    H155757   6.639   3.210   0.196 -0.8530 -0.5163 -0.6527
11422TIP3    H255758   6.744   3.104   0.223  0.3169  0.7408 -0.2253
11423TIP3   OH255759   0.800   1.893  16.638  0.6582 -0.3575 -0.8151
11423TIP3    H155760   0.769   1.978  16.669  0.4088 -0.7971  0.1567
11423TIP3    H255761   0.726   1.857  16.589  0.8672  0.1053 -1.4823
11424TIP3   OH255762   2.052   4.711  11.628  0.4808  0.5553  0.5845
11424TIP3    H155763   2.101   4.634  11.654 -2.8677 -2.1380 -0.6692
11424TIP3    H255764   2.033   4.757  11.710 -0.9173 -2.1623  1.8457
11425TIP3   OH255765   4.400   4.854   5.816  0.1364  0.1295  0.0428
11425TIP3    H155766   4.317   4.877   5.859  0.4309 -0.7395  1.1073
11425TIP3    H255767   4.373   4.813   5.734 -0.5367 -0.9688  0.7863
11426TIP3   OH255768   0.942   1.342  16.134 -0.1721  0.2467 -0.1662
11426TIP3    H155769   0.854   1.343  16.171  0.8539 -0.9327  2.4633
11426TIP3    H255770   0.991   1.281  16.189  2.5744  1.6812 -0.8724
11427TIP3   OH255771   2.365   5.122  15.423  0.2313  0.1432  0.4385
11427TIP3    H155772   2.424   5.189  15.389  0.3190 -0.1898 -0.0875
11427TIP3    H255773   2.422   5.046  15.439 -0.0617 -0.2111 -0.1583
11428TIP3   OH255774   3.710   0.600  16.288 -0.3596  0.0685  0.5212
11428TIP3    H155775   3.786   0.658  16.282 -0.1677 -0.0849  1.3468
11428TIP3    H255776   3.688   0.579  16.198  0.4611  0.2753  0.2710
11429TIP3   OH255777   1.648   6.217   3.380  0.6782 -0.5208  0.2785
11429TIP3    H155778   1.576   6.226   3.319  0.3369  0.2955  0.7983
11429TIP3    H255779   1.614   6.250   3.463  1.9405  0.7379  0.3073
11430TIP3   OH255780   4.125   0.968   5.150  0.4600  0.1297  0.3180
11430TIP3    H155781   4.030   0.954   5.156  0.7456 -1.7385  0.5713
11430TIP3    H255782   4.156   0.963   5.241  1.1412 -1.7861 -0.0074
11431TIP3   OH255783   1.510   6.011  15.159  0.5524  0.1248 -0.1486
11431TIP3    H155784   1.520   6.005  15.254 -0.4173  1.0222  0.0221
11431TIP3    H255785   1.423   5.977  15.141 -0.0468  1.7815 -0.4922
11432TIP3   OH255786   4.378   1.008   4.719  0.7455  0.5879 -0.0825
11432TIP3    H155787   4.439   0.951   4.768  1.3380  0.6306 -0.7713
11432TIP3    H255788   4.293   0.990   4.758  1.0362 -0.2754  0.1679
11433TIP3   OH255789   2.891   2.389  16.416  0.3763  0.0984 -0.4153
11433TIP3    H155790   2.926   2.427  16.335  0.1445 -1.5706 -1.3265
11433TIP3    H255791   2.797   2.384  16.401  0.1998  0.8165  0.4139
11434TIP3   OH255792   3.502   1.061  14.854  0.0526 -0.5593 -0.0749
11434TIP3    H155793   3.486   0.991  14.790 -0.2322 -0.1120 -0.4964
11434TIP3    H255794   3.591   1.046  14.885 -0.0306 -1.1485 -0.1135
11435TIP3   OH255795   6.215   4.057  12.569  0.3210 -0.4360  0.5814
11435TIP3    H155796   6.160   4.118  12.619  0.9566 -1.1159  2.1136
11435TIP3    H255797   6.178   4.060  12.480 -0.3540  1.3354  0.8885
11436TIP3   OH255798   2.738   1.178  15.536 -0.1420 -0.5393 -0.3986
11436TIP3    H155799   2.771   1.268  15.536 -0.8986 -0.2132 -3.3592
11436TIP3    H255800   2.646   1.186  15.558 -0.3844 -0.4789 -1.3868
11437TIP3   OH255801   4.244   2.911  16.999 -0.2800 -0.2940 -0.5154
11437TIP3    H155802   4.201   2.863  17.070  1.6711 -0.4655  0.5950
11437TIP3    H255803   4.308   2.849  16.964  0.1729  0.4972 -1.0865
11438TIP3   OH255804   4.920   5.828  12.562  0.5284  0.0717  0.5559
11438TIP3    H155805   4.952   5.748  12.520 -3.1875 -0.1648 -2.0716
11438TIP3    H255806   4.955   5.899  12.508  1.0216  0.0724  0.8741
11439TIP3   OH255807   6.411   5.793   6.614 -0.1001  0.3095  0.2398
11439TIP3    H155808   6.403   5.799   6.709  0.0543 -3.7467  0.5948
11439TIP3    H255809   6.350   5.859   6.581 -1.4091  0.6420  3.1524
11440TIP3   OH255810   5.947   3.173  14.063  0.4699  0.2425  0.1057
11440TIP3    H155811   5.911   3.091  14.029 -0.1439 -0.0241  1.3402
11440TIP3    H255812   6.004   3.146  14.135 -1.6037  0.9997  2.1006
11441TIP3   OH255813   2.755   0.515  14.908 -0.3410  0.7341 -0.2736
11441TIP3    H155814   2.761   0.596  14.857  0.0086  0.6933 -0.2986
11441TIP3    H255815   2.728   0.449  14.845  0.0118  0.6999 -0.3879
11442TIP3   OH255816   1.559   5.843   1.719 -0.3683  0.1309 -0.1723
11442TIP3    H155817   1.628   5.841   1.652 -0.6211 -0.7514 -0.4139
11442TIP3    H255818   1.502   5.915   1.692  0.7801  1.2616  0.3628
11443TIP3   OH255819   5.070   3.139  12.111 -0.2657 -0.2045 -0.2460
11443TIP3    H155820   5.004   3.094  12.164  0.3492 -0.0910  0.6234
11443TIP3    H255821   5.154   3.110  12.147  0.1527  0.7651 -0.4172
11444TIP3   OH255822   1.775   6.634   0.903 -0.0495 -0.2561 -0.0848
11444TIP3    H155823   1.861   6.655   0.940  0.2591 -1.0004 -0.3669
11444TIP3    H255824   1.794   6.573   0.832 -0.5737  1.7909 -2.0151
11445TIP3   OH255825   2.244   6.780  11.957  0.2993 -0.3728 -0.1782
11445TIP3    H155826   2.239   6.860  11.905 -0.9892 -0.0711  0.3667
11445TIP3    H255827   2.303   6.801  12.029 -0.1373  0.1386  0.0338
11446TIP3   OH255828   4.806   1.430  13.594  0.2121 -0.2805  0.3894
11446TIP3    H155829   4.834   1.341  13.574  0.7566  0.0148 -0.1873
11446TIP3    H255830   4.723   1.440  13.547  0.7748 -0.0682 -0.5716
11447TIP3   OH255831   5.064   1.494   5.796  0.0936  0.8710  0.3111
11447TIP3    H155832   4.979   1.458   5.768 -0.5959  2.8282 -0.1986
11447TIP3    H255833   5.041   1.572   5.846  1.6158  1.5574 -0.0424
11448TIP3   OH255834   2.160   5.134   0.906 -0.0519  0.5318  0.2204
11448TIP3    H155835   2.114   5.217   0.891 -1.4740  0.0043  1.6285
11448TIP3    H255836   2.211   5.121   0.826 -0.4161  2.3682 -0.3448
11449TIP3   OH255837   0.372   6.331  11.019  0.4292 -0.5889 -0.3564
11449TIP3    H155838   0.433   6.360  10.952  1.3936 -1.2412  0.2299
11449TIP3    H255839   0.285   6.348  10.982  0.9327 -2.0926 -2.2685
11450TIP3   OH255840   3.027   6.588  11.836 -0.4993 -0.2827  0.3763
11450TIP3    H155841   3.075   6.505  11.841 -0.9582 -0.4724  1.8416
11450TIP3    H255842   3.019   6.605  11.742  2.6375 -0.1201  0.0757
11451TIP3   OH255843   6.165   2.019   3.056 -0.8354  0.4374 -0.0772
11451TIP3    H155844   6.202   2.107   3.064 -0.9069  0.4773 -0.1806
11451TIP3    H255845   6.184   1.993   2.966 -0.3841  0.1506  0.0975
11452TIP3   OH255846   5.949   3.754  13.460 -0.2613 -0.4775 -0.0990
11452TIP3    H155847   5.862   3.740  13.425  0.6378 -3.4960 -1.3195
11452TIP3    H255848   5.977   3.838  13.425 -1.6083 -0.7939 -1.9734
11453TIP3   OH255849   0.083   3.856   3.604 -0.2292 -0.0999  0.3725
11453TIP3    H155850   0.104   3.851   3.697  1.3678  1.1844  0.0906
11453TIP3    H255851   0.105   3.945   3.578  0.6224 -0.8370 -1.5488
11454TIP3   OH255852   2.240   2.762   5.707  0.3971  0.5782 -0.1575
11454TIP3    H155853   2.244   2.858   5.708  0.7339  0.5636  2.1276
11454TIP3    H255854   2.240   2.737   5.799 -0.5620 -1.6020 -0.7178
11455TIP3   OH255855   3.430   6.138  13.827 -0.5445 -0.4701 -0.1194
11455TIP3    H155856   3.421   6.153  13.733  1.2444 -2.4966 -0.6300
11455TIP3    H255857   3.482   6.212  13.859 -1.4634  0.4123 -0.6301
11456TIP3   OH255858   0.543   4.664  15.131 -0.4047  0.1484 -0.1491
11456TIP3    H155859   0.633   4.633  15.125 -0.2332  0.9712 -2.2057
11456TIP3    H255860   0.490   4.594  15.091 -0.4988  0.4222 -0.5069
11457TIP3   OH255861   6.393   4.193  13.456 -0.1224  0.0156 -0.1138
11457TIP3    H155862   6.371   4.109  13.496  1.4981 -0.7228 -0.7609
11457TIP3    H255863   6.326   4.206  13.388 -0.6962 -0.4653  0.3553
11458TIP3   OH255864   4.331   5.761  13.052 -0.0493  0.0780 -0.3502
11458TIP3    H155865   4.287   5.836  13.092  0.7495  1.5363 -2.0953
11458TIP3    H255866   4.411   5.750  13.103 -1.0491 -0.7900  1.0647
11459TIP3   OH255867   2.152   5.154   1.218  0.2681  0.3914  0.2056
11459TIP3    H155868   2.097   5.147   1.140 -0.0660  0.0812  0.4695
11459TIP3    H255869   2.211   5.227   1.199 -0.6087  1.0937  0.1525
11460TIP3   OH255870   4.085   3.849  15.949 -0.3939 -0.7550  0.6021
11460TIP3    H155871   4.104   3.862  16.042 -0.4199  1.4041  0.3263
11460TIP3    H255872   4.168   3.864  15.905 -0.8793  0.5195  0.0986
11461TIP3   OH255873   3.248   1.368   2.380  0.7832  0.6180 -0.1012
11461TIP3    H155874   3.187   1.439   2.358 -0.0613 -0.2837 -0.7166
11461TIP3    H255875   3.197   1.310   2.436  1.0547 -0.1692 -0.6600
11462TIP3   OH255876   4.020   5.137   2.476 -0.1997 -0.0815  0.3614
11462TIP3    H155877   4.053   5.220   2.441  0.9188 -0.7836 -0.2702
11462TIP3    H255878   3.997   5.086   2.398 -0.4575 -0.5402  0.7376
11463TIP3   OH255879   1.733   2.311  12.423  0.3923 -0.1413  0.3686
11463TIP3    H155880   1.660   2.274  12.374  0.4227  1.7086 -1.1344
11463TIP3    H255881   1.693   2.346  12.503 -0.0235 -0.9716  0.5319
11464TIP3   OH255882   1.282   6.587   5.800 -0.1924  0.2352  0.9172
11464TIP3    H155883   1.342   6.623   5.866  0.4217 -0.6925  0.8704
11464TIP3    H255884   1.196   6.590   5.841  0.3848 -1.7549  2.3569
11465TIP3   OH255885   2.063   5.284  17.098 -0.5654 -0.6049  0.2819
11465TIP3    H155886   2.133   5.224  17.074  0.3671  0.7202 -0.3482
11465TIP3    H255887   2.086   5.314  17.186 -0.3866 -0.2444  0.1129
11466TIP3   OH255888   2.632   3.609  15.431  0.0504 -0.4728  0.1615
11466TIP3    H155889   2.649   3.599  15.525  0.1413 -0.7899  0.1137
11466TIP3    H255890   2.597   3.697  15.422  2.2581  0.4337  0.1755
11467TIP3   OH255891   1.495   2.791   3.836 -0.1442 -1.0144  0.4844
11467TIP3    H155892   1.435   2.791   3.761  0.1213  0.3314  0.2580
11467TIP3    H255893   1.582   2.791   3.797 -0.0016 -0.8713  0.7986
11468TIP3   OH255894   0.717   0.577  12.250 -0.2871 -0.5160  0.1948
11468TIP3    H155895   0.804   0.556  12.217  0.3370  1.6645  0.3951
11468TIP3    H255896   0.723   0.558  12.344  0.9936  2.6720  0.8034
11469TIP3   OH255897   1.395   6.162   3.630 -0.6179  0.5002  0.4732
11469TIP3    H155898   1.456   6.234   3.611 -0.9633  0.2914 -1.4898
11469TIP3    H255899   1.351   6.145   3.547 -1.7130 -0.8996  1.3213
11470TIP3   OH255900   6.701   3.908   5.802 -0.5327 -0.4337 -0.1199
11470TIP3    H155901   6.633   3.862   5.753 -0.8384 -1.0275  0.8365
11470TIP3    H255902   6.667   3.911   5.892 -0.5627  1.7430 -0.1719
11471TIP3   OH255903   3.741   0.952   0.564 -0.2482  0.4444  0.3909
11471TIP3    H155904   3.747   1.046   0.579  1.9624  0.4638 -0.3641
11471TIP3    H255905   3.779   0.939   0.477 -0.4305 -1.1403  0.5312
11472TIP3   OH255906   1.362   6.211  13.784  0.4733  0.2797  0.8113
11472TIP3    H155907   1.309   6.138  13.814  1.4291 -0.7809 -0.0049
11472TIP3    H255908   1.391   6.255  13.864 -0.7000  0.2026  1.2849
11473TIP3   OH255909   1.036   0.686   3.618 -0.5904  0.0158  0.1125
11473TIP3    H155910   1.125   0.653   3.628  0.2245  0.9449 -3.4685
11473TIP3    H255911   1.018   0.731   3.701  1.1262 -2.6517  2.0156
11474TIP3   OH255912   5.166   4.198   4.614 -0.3783 -0.6897 -0.2894
11474TIP3    H155913   5.161   4.131   4.546 -0.7827 -0.3864 -0.5640
11474TIP3    H255914   5.099   4.262   4.589  0.5506  0.2232 -0.4706
11475TIP3   OH255915   6.274   1.683  16.107 -0.1922 -0.1332 -0.0213
11475TIP3    H155916   6.284   1.604  16.161 -2.2826 -0.0440  0.5416
11475TIP3    H255917   6.311   1.754  16.160 -0.2593 -0.3906  0.3700
11476TIP3   OH255918   0.737   2.421  13.044  0.2438  0.4667  0.3384
11476TIP3    H155919   0.685   2.479  12.987 -0.5983  0.0684  0.7006
11476TIP3    H255920   0.771   2.354  12.985 -0.7228 -0.0102  0.3137
11477TIP3   OH255921   3.845   1.389   5.746 -0.1269  0.7650 -0.5539
11477TIP3    H155922   3.889   1.379   5.831  0.0543  0.5035 -0.6779
11477TIP3    H255923   3.914   1.420   5.687 -0.0584  0.1614 -0.7965
11478TIP3   OH255924   1.305   5.173   1.901 -0.4131  0.2144 -0.6266
11478TIP3    H155925   1.261   5.159   1.818 -2.8343  0.4900  0.5698
11478TIP3    H255926   1.285   5.264   1.924 -1.1469 -0.3391  1.0182
11479TIP3   OH255927   3.989   4.415   2.629  0.0895  0.2082  0.2914
11479TIP3    H155928   4.055   4.476   2.595  0.9000 -0.2192  1.0825
11479TIP3    H255929   4.005   4.412   2.723 -0.4648 -0.6029  0.3670
11480TIP3   OH255930   3.923   3.970  13.112  0.1956 -0.0271  0.0063
11480TIP3    H155931   3.837   3.986  13.151  0.1105  0.7300 -0.4793
11480TIP3    H255932   3.964   4.056  13.109  0.1777 -0.0683 -1.6408
11481TIP3   OH255933   0.389   4.533  11.637  0.2626  0.3432 -0.7981
11481TIP3    H155934   0.300   4.549  11.669  0.2724  1.2140 -1.1806
11481TIP3    H255935   0.421   4.620  11.612  1.2158  0.0319 -0.6789
11482TIP3   OH255936   6.239   0.491  16.429 -0.7687 -0.6314  0.0952
11482TIP3    H155937   6.204   0.580  16.427  0.1981 -0.2319  0.4069
11482TIP3    H255938   6.250   0.471  16.522 -0.3793 -0.8272  0.0096
11483TIP3   OH255939   1.076   2.059  12.166 -0.5608  0.5177 -0.3020
11483TIP3    H155940   1.015   2.066  12.093  0.8615  0.6441 -1.4970
11483TIP3    H255941   1.049   1.980  12.213 -1.1008  0.0906 -1.3289
11484TIP3   OH255942   6.303   5.394  11.788 -0.0694 -0.1302 -0.1376
11484TIP3    H155943   6.254   5.433  11.715  0.7502 -0.9062 -1.1137
11484TIP3    H255944   6.392   5.428  11.778  0.0620 -0.2930  0.4718
11485TIP3   OH255945   2.129   0.038   6.296 -0.3844  0.1017  0.1971
11485TIP3    H155946   2.161   0.068   6.211  0.5308 -0.3316  0.3829
11485TIP3    H255947   2.046  -0.007   6.276 -1.2517  1.8215 -0.1957
11486TIP3   OH255948   2.848   4.685  14.519 -0.1201 -0.4387 -0.8349
11486TIP3    H155949   2.822   4.767  14.561 -0.1631 -0.7504 -0.2446
11486TIP3    H255950   2.825   4.697  14.427  0.7657  0.5781 -0.9347
11487TIP3   OH255951   1.378   3.941  14.158  0.2169  0.2466 -0.0816
11487TIP3    H155952   1.307   4.002  14.176  0.3864  0.5155 -0.3140
11487TIP3    H255953   1.458   3.988  14.182  0.2693 -0.3318  0.9019
11488TIP3   OH255954   6.780   3.600  12.833 -0.1688 -0.0442 -0.2350
11488TIP3    H155955   6.847   3.599  12.901 -0.4923  2.0869  0.1617
11488TIP3    H255956   6.711   3.542  12.867 -0.0724  0.5429  1.0147
11489TIP3   OH255957   0.444   0.392   4.059 -0.6650 -0.4891 -0.4186
11489TIP3    H155958   0.453   0.456   3.988  0.2137  0.0572  0.1714
11489TIP3    H255959   0.488   0.433   4.134 -2.7752 -0.4594  0.8387
11490TIP3   OH255960   1.195   3.868   1.567  0.1328 -0.6524  0.3831
11490TIP3    H155961   1.244   3.949   1.584 -1.0029  0.4832 -1.5454
11490TIP3    H255962   1.116   3.898   1.521  0.0701 -2.9548 -1.0460
11491TIP3   OH255963   3.015   6.681  16.503 -0.1089 -0.1484  0.4408
11491TIP3    H155964   3.050   6.685  16.592  1.8964 -0.4673 -0.3117
11491TIP3    H255965   3.074   6.735  16.451 -1.2584  0.0293 -0.7210
11492TIP3   OH255966   6.488   5.842  14.323  0.2598  0.2094  0.2158
11492TIP3    H155967   6.526   5.863  14.238 -0.8424 -0.4465 -0.4566
11492TIP3    H255968   6.454   5.925  14.356  1.2806  0.5887  0.3247
11493TIP3   OH255969   6.433   3.305   5.445  0.3036 -0.3834  0.0907
11493TIP3    H155970   6.504   3.346   5.494  0.1393  0.6180 -0.5005
11493TIP3    H255971   6.358   3.308   5.504  0.2584  0.2956  0.0036
11494TIP3   OH255972   6.491   5.872   6.304  0.6478 -0.6509  0.3667
11494TIP3    H155973   6.474   5.782   6.278  0.5705 -0.9568  1.4636
11494TIP3    H255974   6.447   5.882   6.389  0.5921  0.4365  0.2271
11495TIP3   OH255975   1.907   0.110   0.238 -0.4736 -0.8392 -0.1565
11495TIP3    H155976   1.905   0.142   0.148  1.0847 -1.3693 -0.3905
11495TIP3    H255977   1.899   0.015   0.231  0.0876 -0.9194  0.2340
11496TIP3   OH255978   0.673   1.519  11.444  0.0875 -0.1226  0.4740
11496TIP3    H155979   0.746   1.503  11.385  0.2547 -0.2297  0.7083
11496TIP3    H255980   0.613   1.575  11.395  0.5109  0.2888  0.4270
11497TIP3   OH255981   4.029   0.830   0.484 -0.2694  0.4440 -0.3133
11497TIP3    H155982   4.015   0.878   0.402 -0.5524 -0.7321 -0.9855
11497TIP3    H255983   4.076   0.751   0.457  0.4018  0.4595  0.7951
11498TIP3   OH255984   4.794   5.625   5.761 -0.3450  0.2035  0.0837
11498TIP3    H155985   4.729   5.628   5.691  1.6143 -3.2321 -2.0252
11498TIP3    H255986   4.744   5.606   5.840 -2.1358 -0.2582 -1.1314
11499TIP3   OH255987   2.467   1.635  13.650  0.1013  0.2915 -0.1834
11499TIP3    H155988   2.557   1.626  13.618  0.7980  0.6214  1.6508
11499TIP3    H255989   2.471   1.705  13.714 -1.0713 -1.0248  1.3722
11500TIP3   OH255990   4.849   1.234   6.170  0.1205 -0.4306 -0.8158
11500TIP3    H155991   4.818   1.155   6.125  0.5323 -0.7120 -0.6161
11500TIP3    H255992   4.930   1.257   6.125 -0.5344  0.4878 -1.5413
11501TIP3   OH255993   1.930   0.257   6.064  0.0273 -0.1793  0.5259
11501TIP3    H155994   1.969   0.170   6.070 -1.1191 -0.7591 -0.2565
11501TIP3    H255995   1.991   0.308   6.012  0.9497 -0.3645  1.4182
11502TIP3   OH255996   0.577   0.284   2.543  0.2931  0.0660  0.1200
11502TIP3    H155997   0.619   0.299   2.628  1.6254 -3.1102  0.1025
11502TIP3    H255998   0.588   0.190   2.527 -0.8185  0.4170 -3.1153
11503TIP3   OH255999   4.005   3.994   6.028  0.1212 -0.2471 -0.0376
11503TIP3    H156000   3.923   3.971   5.985  0.3102  0.7142 -0.9154
11503TIP3    H256001   3.985   3.988   6.122 -1.3484  1.3210 -0.2227
11504TIP3   OH256002   1.314   0.812   2.055 -0.3410  0.1418 -0.2531
11504TIP3    H156003   1.262   0.733   2.068 -0.8611  0.3620 -0.9395
11504TIP3    H256004   1.321   0.850   2.143  1.1277 -1.3991  0.3115
11505TIP3   OH256005   3.680   6.488  13.735 -0.1738  0.0976 -0.2408
11505TIP3    H156006   3.682   6.444  13.820  1.8500 -1.8234 -1.2228
11505TIP3    H256007   3.602   6.453  13.692  1.0526 -2.0546 -0.7501
11506TIP3   OH256008   5.455   0.423   3.025 -0.3666  0.3119  0.9645
11506TIP3    H156009   5.476   0.449   2.935  0.1301 -0.2646  0.9079
11506TIP3    H256010   5.509   0.480   3.080 -0.2120  0.2486  0.8787
11507TIP3   OH256011   2.531   0.066  11.715 -0.7808 -0.3422  0.2244
11507TIP3    H156012   2.614   0.029  11.744  0.0026  0.8680 -0.4312
11507TIP3    H256013   2.509   0.131  11.782 -0.7190  0.0117 -0.0970
11508TIP3   OH256014   2.575   5.613   0.948 -0.3900  0.6367 -0.9592
11508TIP3    H156015   2.524   5.532   0.948 -0.8431  0.8722  1.9789
11508TIP3    H256016   2.641   5.599   0.880 -1.9606 -1.2020 -2.1834
11509TIP3   OH256017   2.932   4.731   4.120 -0.2296  0.4291 -0.1780
11509TIP3    H156018   3.024   4.733   4.091 -0.0293  0.8890  0.4529
11509TIP3    H256019   2.934   4.681   4.202 -0.8437 -1.1699 -1.1173
11510TIP3   OH256020   6.794   3.793  16.305 -0.0896 -0.0384  0.1112
11510TIP3    H156021   6.719   3.791  16.365  0.8938 -0.0026  1.3591
11510TIP3    H256022   6.792   3.881  16.268  0.5098  0.6741  1.6920
11511TIP3   OH256023   0.890   0.538   0.262  0.0591  0.5027 -0.3914
11511TIP3    H156024   0.836   0.459   0.259 -0.9110  1.1806 -1.0181
11511TIP3    H256025   0.947   0.531   0.185 -0.6842  0.8675 -0.9824
11512TIP3   OH256026   3.295   2.083   5.897  0.6900 -0.5412  0.5064
11512TIP3    H156027   3.244   2.103   5.975  0.6038 -0.5284  0.4476
11512TIP3    H256028   3.245   2.122   5.825  0.4205 -1.1457  0.3679
11513TIP3   OH256029   3.172   1.470   0.999 -0.3225 -0.0654  0.1284
11513TIP3    H156030   3.113   1.435   0.932 -0.4051  1.3446 -0.5502
11513TIP3    H256031   3.147   1.562   1.007  1.7919  0.5620 -0.1972
11514TIP3   OH256032   0.258   1.676   5.537 -0.3555  0.1599  0.2813
11514TIP3    H156033   0.256   1.757   5.486  2.1951 -0.6649 -1.2487
11514TIP3    H256034   0.337   1.683   5.591 -1.1985 -0.4525  1.6109
11515TIP3   OH256035   0.783   5.261   4.185 -0.1691  0.4721  0.3266
11515TIP3    H156036   0.802   5.183   4.134  0.4518  0.8073  0.0435
11515TIP3    H256037   0.721   5.231   4.253 -1.2190  0.0903 -0.7826
11516TIP3   OH256038   0.956   3.764  12.289  0.0382  0.0031 -0.0978
11516TIP3    H156039   1.022   3.833  12.277  0.5254 -0.6402 -1.2426
11516TIP3    H256040   0.882   3.808  12.331  0.7263  1.0024  0.0754
11517TIP3   OH256041   5.726   2.860  15.977 -0.0794  0.7768 -0.3728
11517TIP3    H156042   5.713   2.924  15.907 -0.0458  0.8254 -0.3342
11517TIP3    H256043   5.643   2.859  16.025  0.7152  2.4992  1.0487
11518TIP3   OH256044   1.124   4.441   3.200  0.3326 -0.4136  0.0320
11518TIP3    H156045   1.209   4.421   3.160  0.2743 -0.9993  0.1962
11518TIP3    H256046   1.070   4.365   3.180 -0.0518 -0.1945  0.2271
11519TIP3   OH256047   1.356   3.165  15.599 -0.0874 -0.3995 -0.2461
11519TIP3    H156048   1.374   3.238  15.539 -1.5934  0.4362  0.2953
11519TIP3    H256049   1.441   3.124  15.612  0.8052  1.3008 -0.5090
11520TIP3   OH256050   2.377   0.473  16.830 -0.1886 -0.1085 -0.4261
11520TIP3    H156051   2.320   0.535  16.784  0.6163  0.4732 -0.6626
11520TIP3    H256052   2.352   0.387  16.797 -0.2730  0.2260 -1.2533
11521TIP3   OH256053   6.809   0.718   5.583  0.3469 -0.6434  0.0028
11521TIP3    H156054   6.826   0.628   5.614  1.1281 -0.8571 -1.0301
11521TIP3    H256055   6.793   0.708   5.490  0.4695  0.3036 -0.1177
11522TIP3   OH256056   1.089   5.138   2.111 -0.4473  1.3633  0.1395
11522TIP3    H156057   1.135   5.220   2.094 -1.0373  1.6357 -0.1645
11522TIP3    H256058   1.037   5.123   2.032 -0.9468  1.1039  0.5193
11523TIP3   OH256059   6.101   1.547  14.075 -0.5485  0.1435 -0.1413
11523TIP3    H156060   6.073   1.468  14.029  0.6364 -0.6571  0.4867
11523TIP3    H256061   6.178   1.578  14.027  0.0831 -0.1200  0.6944
11524TIP3   OH256062   5.557   4.280  16.726 -0.8592  0.0193  0.0059
11524TIP3    H156063   5.539   4.237  16.809 -1.0846  0.3205  0.1129
11524TIP3    H256064   5.651   4.269  16.713 -1.0861 -1.5407 -0.5371
11525TIP3   OH256065   5.075   3.137   2.924  0.0166 -0.1717 -0.5245
11525TIP3    H156066   5.128   3.109   2.999 -1.4951  0.1661  0.6804
11525TIP3    H256067   5.066   3.058   2.871 -0.3630 -0.8539  0.5333
11526TIP3   OH256068   1.919   5.652   4.385 -0.4103 -0.5352  0.2038
11526TIP3    H156069   1.992   5.630   4.327 -1.0852 -0.3206 -0.7355
11526TIP3    H256070   1.922   5.747   4.392 -2.1299 -0.3002 -1.8884
11527TIP3   OH256071   2.348   3.980  12.547 -0.3299 -0.4668  0.4977
11527TIP3    H156072   2.423   4.038  12.552  0.0746 -1.0749  1.5974
11527TIP3    H256073   2.310   3.982  12.634 -0.9003 -1.0726  0.2655
11528TIP3   OH256074   6.481   1.515   0.145  0.0010  0.1308  0.1148
11528TIP3    H156075   6.493   1.591   0.202 -1.2164  0.0889  0.4582
11528TIP3    H256076   6.532   1.445   0.186  1.8683  0.9982 -0.7050
11529TIP3   OH256077   5.911   4.629  15.675 -0.0100  0.0708  0.6087
11529TIP3    H156078   5.941   4.592  15.758  0.7510  2.0436  1.2418
11529TIP3    H256079   5.991   4.657  15.631 -0.2660 -2.2778 -1.4894
11530TIP3   OH256080   3.363   1.505  12.560 -0.1040  0.4535 -0.1764
11530TIP3    H156081   3.271   1.525  12.542  0.0828  0.5191 -1.0826
11530TIP3    H256082   3.383   1.552  12.641 -0.4203  1.7594 -0.8504
11531TIP3   OH256083   4.354   6.648  14.725  0.5663  0.0077  0.4612
11531TIP3    H156084   4.412   6.713  14.686  1.8281 -0.2434  1.8778
11531TIP3    H256085   4.396   6.564  14.706 -1.0297 -0.4168 -1.3221
11532TIP3   OH256086   4.439   5.621  13.638 -0.2336 -0.4513 -0.5217
11532TIP3    H156087   4.466   5.530  13.641  0.5489 -0.2596 -1.6475
11532TIP3    H256088   4.361   5.625  13.695  1.4473 -1.1965  1.8933
11533TIP3   OH256089   5.061   2.913  13.290  0.0937  0.1368 -0.2185
11533TIP3    H156090   4.990   2.923  13.353  0.5442 -1.6604  0.6121
11533TIP3    H256091   5.101   3.000  13.284 -0.5249  0.5315  1.3044
11534TIP3   OH256092   5.013   1.595  14.136 -0.0470  0.2808  0.6106
11534TIP3    H156093   5.065   1.596  14.056 -1.1796  1.5141 -0.1305
11534TIP3    H256094   5.075   1.613  14.206  0.7131  0.5961 -0.1385
11535TIP3   OH256095   4.128   2.290  14.895 -0.6488 -0.0364  0.3750
11535TIP3    H156096   4.161   2.364  14.946 -0.8529 -0.2834  0.8616
11535TIP3    H256097   4.200   2.227  14.894 -0.0375  0.6452 -1.0217
11536TIP3   OH256098   0.626   4.494  11.424  0.4091 -0.0626  0.2158
11536TIP3    H156099   0.701   4.483  11.484  0.6947  1.8897  0.2521
11536TIP3    H256100   0.554   4.521  11.481 -0.3665 -2.0276  0.1899
11537TIP3   OH256101   3.881   1.056   4.106 -0.2224 -0.2098 -0.2587
11537TIP3    H156102   3.943   0.987   4.130  2.9772  1.8389 -2.2966
11537TIP3    H256103   3.870   1.106   4.187  0.0174 -1.1622  0.3800
11538TIP3   OH256104   2.368   1.687   3.697 -0.4582 -0.3081  0.3376
11538TIP3    H156105   2.365   1.651   3.785  0.0780 -0.7362  0.1866
11538TIP3    H256106   2.276   1.697   3.671 -0.6114 -0.8819  0.6615
11539TIP3   OH256107   3.962   5.690   1.999  0.5338  0.6921 -0.4418
11539TIP3    H156108   3.923   5.604   2.013 -0.5194  1.1367 -0.5455
11539TIP3    H256109   3.950   5.707   1.906  0.9669  0.8466 -0.4709
11540TIP3   OH256110   3.149   3.925  14.791 -0.7663 -0.4091  0.0677
11540TIP3    H156111   3.228   3.893  14.747 -1.0471  0.8308 -1.4004
11540TIP3    H256112   3.078   3.906  14.730 -1.2053  1.0735  0.1037
11541TIP3   OH256113   2.292   0.343   2.527  0.4546 -0.3204 -0.4481
11541TIP3    H156114   2.290   0.370   2.619 -0.7195 -1.5058 -0.1069
11541TIP3    H256115   2.287   0.425   2.478  1.4364  0.3432  0.5391
11542TIP3   OH256116   5.796   3.247   3.403  0.9113  0.0570  0.0086
11542TIP3    H156117   5.744   3.168   3.388  0.1607  0.5071  0.2013
11542TIP3    H256118   5.739   3.304   3.454  1.5219  0.6460  0.0436
11543TIP3   OH256119   0.724   6.203  11.418  0.0525 -0.1392  0.0946
11543TIP3    H156120   0.657   6.247  11.470  1.1442 -1.4087  2.6930
11543TIP3    H256121   0.727   6.252  11.336 -1.1604  2.4796  1.5433
11544TIP3   OH256122   3.456   2.861  15.663 -0.0917 -0.3306  0.0927
11544TIP3    H156123   3.407   2.833  15.585 -0.2516  2.3689 -0.8418
11544TIP3    H256124   3.390   2.903  15.719  0.1927 -1.4474  1.2940
11545TIP3   OH256125   0.062   2.676  12.899 -0.3601 -0.1382  0.0171
11545TIP3    H156126   0.067   2.683  12.804  1.5545 -0.7595  0.0354
11545TIP3    H256127   0.027   2.760  12.928 -1.2153 -0.0420 -1.2373
11546TIP3   OH256128   6.144   2.395  11.488  0.1115 -0.1258 -0.1838
11546TIP3    H156129   6.069   2.382  11.430  0.3630 -2.4243 -0.0334
11546TIP3    H256130   6.215   2.348  11.446  1.4579  1.8931 -0.2265
11547TIP3   OH256131   3.772   3.917   1.531  0.4194  0.1353 -0.3289
11547TIP3    H156132   3.816   3.849   1.479  1.4812  1.4234 -1.1619
11547TIP3    H256133   3.678   3.897   1.521  0.6618 -0.4632 -1.6048
11548TIP3   OH256134   2.104   5.485   3.119 -0.1507  0.3848 -0.1804
11548TIP3    H156135   2.014   5.515   3.129 -0.2866 -0.4254  1.1142
11548TIP3    H256136   2.157   5.562   3.142 -0.4791  1.4863 -2.9198
11549TIP3   OH256137   3.849   0.066  12.628 -0.1662 -0.3125  0.2128
11549TIP3    H156138   3.781   0.074  12.561  1.5259  0.9530 -1.4235
11549TIP3    H256139   3.804   0.082  12.710 -2.0612 -0.6549 -0.7218
11550TIP3   OH256140   6.401   6.290  12.018 -0.4388  0.0195  0.1323
11550TIP3    H156141   6.322   6.235  12.015  0.7836 -1.8753  1.4004
11550TIP3    H256142   6.443   6.267  12.101  1.8546  0.4232 -0.8760
11551TIP3   OH256143   2.131   5.317  16.424  0.0633 -0.4850  0.1842
11551TIP3    H156144   2.085   5.288  16.345  1.6423  0.0809 -0.9790
11551TIP3    H256145   2.223   5.319  16.399  0.5144  0.4640  1.8117
11552TIP3   OH256146   2.886   1.119   1.248 -0.0228 -0.1778  0.5781
11552TIP3    H156147   2.818   1.185   1.262  1.1000  0.7572  1.7476
11552TIP3    H256148   2.960   1.168   1.211 -0.3369 -1.3647 -1.7496
11553TIP3   OH256149   5.358   2.523   1.239  0.1003 -0.2927 -0.4591
11553TIP3    H156150   5.281   2.552   1.191 -0.9326 -1.2849  0.5763
11553TIP3    H256151   5.380   2.438   1.200 -0.7335 -1.0935  0.7763
11554TIP3   OH256152   1.196   0.661  14.846 -0.2085 -0.0697 -0.1406
11554TIP3    H156153   1.275   0.685  14.894  0.9065 -0.9334 -1.5015
11554TIP3    H256154   1.203   0.566  14.833 -1.3095 -0.1108 -0.5475
11555TIP3   OH256155   5.601   2.832  12.802 -0.3285 -0.2746 -0.0334
11555TIP3    H156156   5.591   2.925  12.823  0.5390  0.1795 -1.5445
11555TIP3    H256157   5.535   2.788  12.856 -0.3174  1.1441  1.1775
11556TIP3   OH256158   6.173   5.446  14.321  0.0808  0.1086 -0.4051
11556TIP3    H156159   6.239   5.379  14.304 -1.1176 -1.2192  0.0366
11556TIP3    H256160   6.218   5.512  14.373  1.1879 -0.5279 -0.5413
11557TIP3   OH256161   0.691   5.486   0.138  0.1911  0.4306 -0.0994
11557TIP3    H156162   0.609   5.533   0.156 -0.9898 -0.7723 -2.1828
11557TIP3    H256163   0.681   5.402   0.184  1.6240  1.4910  2.2682
11558TIP3   OH256164   2.678   5.075  16.398  0.1073  0.1379 -0.7818
11558TIP3    H156165   2.586   5.053  16.410  0.3168 -0.4299 -0.1887
11558TIP3    H256166   2.690   5.156  16.447  0.2357 -0.5272  0.3165
11559TIP3   OH256167   4.340   3.992  15.873  0.5546  0.1020  0.1291
11559TIP3    H156168   4.401   4.023  15.940 -0.3473  0.8432  0.6115
11559TIP3    H256169   4.308   4.072  15.830 -0.8173 -0.2244  0.5261
11560TIP3   OH256170   2.842   2.508   2.631  0.2083  0.0623 -0.3624
11560TIP3    H156171   2.841   2.567   2.706  0.4599 -0.5195  0.1082
11560TIP3    H256172   2.867   2.563   2.557  3.0368  0.0480  0.5125
11561TIP3   OH256173   1.447   3.553  14.801  0.3227 -0.1752  0.5266
11561TIP3    H156174   1.358   3.565  14.770  0.4573  1.8677  0.8744
11561TIP3    H256175   1.502   3.583  14.729  0.7187 -0.5144  0.6848
11562TIP3   OH256176   2.897   0.072  13.123 -0.1975 -0.3573  0.1607
11562TIP3    H156177   2.810   0.033  13.110 -0.5220 -0.0644  1.3339
11562TIP3    H256178   2.946   0.050  13.044 -1.2789 -0.7048 -0.4192
11563TIP3   OH256179   2.650   5.468   1.560 -0.2193 -0.2505 -0.1012
11563TIP3    H156180   2.739   5.468   1.525 -0.3004 -0.0299 -0.3056
11563TIP3    H256181   2.653   5.406   1.633 -0.2607 -1.3366 -1.0246
11564TIP3   OH256182   6.666   2.916  16.566 -0.4907  0.2290 -0.5059
11564TIP3    H156183   6.660   3.010  16.549  1.4811  0.1394 -1.9183
11564TIP3    H256184   6.676   2.877  16.479 -1.9843 -1.3541  0.0167
11565TIP3   OH256185   3.251   0.154  14.455 -0.4361  0.2935  0.7029
11565TIP3    H156186   3.191   0.116  14.392 -0.0448 -0.1196  0.5728
11565TIP3    H256187   3.338   0.145  14.414 -0.3941  1.8382  0.4243
11566TIP3   OH256188   5.432   6.336   3.296 -0.3484  0.0110 -0.2397
11566TIP3    H156189   5.436   6.424   3.333 -0.5047 -0.4681  0.9495
11566TIP3    H256190   5.512   6.327   3.245 -1.2170  1.5182 -1.9389
11567TIP3   OH256191   6.072   3.727  14.615  0.0730 -0.1764  0.1251
11567TIP3    H156192   6.092   3.787  14.687  1.2548 -0.4266  0.0184
11567TIP3    H256193   6.007   3.774  14.563 -0.2250  0.3280  0.9305
11568TIP3   OH256194   2.284   0.980   3.360 -0.2522  1.2129  0.1662
11568TIP3    H156195   2.323   1.052   3.409 -0.1570  0.7627  0.7575
11568TIP3    H256196   2.294   0.903   3.417  0.1734  0.6123 -0.7012
11569TIP3   OH256197   5.312   0.675   3.934 -0.3661 -0.1855 -0.1355
11569TIP3    H156198   5.404   0.665   3.910  0.5145  1.5845  2.3396
11569TIP3    H256199   5.303   0.629   4.017 -0.8342  2.6007  1.4294
11570TIP3   OH256200   5.996   2.279   3.398 -0.7637  0.2971  0.1696
11570TIP3    H156201   5.988   2.247   3.308 -0.0923  3.3570 -1.0433
11570TIP3    H256202   6.089   2.304   3.406 -0.9398  0.5513  1.5276
11571TIP3   OH256203   4.123   1.495   2.422  0.9108 -0.1308 -0.1567
11571TIP3    H156204   4.195   1.518   2.363  0.6402 -1.1215 -0.8810
11571TIP3    H256205   4.156   1.420   2.472  0.9508  0.3867  0.6110
11572TIP3   OH256206   4.315   3.573   2.327  0.6713  0.1045  0.6166
11572TIP3    H156207   4.310   3.629   2.250 -0.0965 -1.7058 -0.6800
11572TIP3    H256208   4.391   3.516   2.311  1.3771  0.6699  1.8629
11573TIP3   OH256209   1.783   1.615   1.534 -0.3088 -0.6361 -0.0600
11573TIP3    H156210   1.699   1.610   1.488 -0.0926  0.6041 -0.6223
11573TIP3    H256211   1.772   1.687   1.596  0.6841  0.2754 -0.9085
11574TIP3   OH256212   0.141   1.517  14.173  0.1641 -0.0293 -0.1297
11574TIP3    H156213   0.232   1.546  14.175 -0.7936  3.1024  0.6491
11574TIP3    H256214   0.097   1.581  14.117 -2.3655  1.1391  3.0471
11575TIP3   OH256215   1.107   4.879   1.741  0.4116  0.4025  0.5003
11575TIP3    H156216   1.116   4.968   1.705  0.6252  0.0446 -0.3452
11575TIP3    H256217   1.188   4.835   1.716 -0.3245 -0.4856 -0.3902
11576TIP3   OH256218   5.380   1.932  10.854  0.5191  0.0954 -0.1524
11576TIP3    H156219   5.469   1.921  10.888  0.0600 -2.7416  0.2862
11576TIP3    H256220   5.332   1.974  10.926  1.0267 -0.2264  0.3848
11577TIP3   OH256221   1.264   1.657   0.254  0.4342  0.0294 -0.1326
11577TIP3    H156222   1.275   1.707   0.173  0.9846 -0.5142 -0.4087
11577TIP3    H256223   1.207   1.584   0.230  0.6813 -0.1909 -0.0679
11578TIP3   OH256224   4.326   6.270  13.622 -0.3455 -0.2193 -0.5727
11578TIP3    H156225   4.284   6.306  13.544 -0.1793 -1.2424 -1.1412
11578TIP3    H256226   4.321   6.175  13.611  1.7002 -0.3782 -0.4439
11579TIP3   OH256227   3.879   1.253   4.601 -0.2452 -0.2920 -0.2298
11579TIP3    H156228   3.963   1.290   4.628  0.4984 -1.6923 -0.6015
11579TIP3    H256229   3.823   1.261   4.678  0.9285 -1.4378  0.7553
11580TIP3   OH256230   4.539   6.153   6.317 -0.0323 -0.2639 -0.6741
11580TIP3    H156231   4.560   6.094   6.389 -0.4911  0.6540  0.2141
11580TIP3    H256232   4.470   6.108   6.268  1.2772 -1.5418 -1.3907
11581TIP3   OH256233   1.882   5.493  15.754  0.6710  1.1046  0.6035
11581TIP3    H156234   1.821   5.552  15.710  0.5998  0.8219  0.3131
11581TIP3    H256235   1.968   5.532  15.740  0.7950  0.2986 -0.9984
11582TIP3   OH256236   4.340   2.772   0.872  0.2436  0.8721  0.1009
11582TIP3    H156237   4.340   2.678   0.854 -0.4208  1.3206 -2.4156
11582TIP3    H256238   4.286   2.782   0.950  3.7395 -1.2419  2.9450
11583TIP3   OH256239   6.163   3.922  13.283  0.0782  0.2205  0.5900
11583TIP3    H156240   6.216   3.851  13.246  0.6883  1.3412 -0.7011
11583TIP3    H256241   6.079   3.914  13.239  0.2272  0.4667  0.2653
11584TIP3   OH256242   0.800   6.563  16.164  0.5254 -0.2152  0.6790
11584TIP3    H156243   0.778   6.622  16.091 -2.8405 -0.7260  1.2222
11584TIP3    H256244   0.840   6.620  16.229  0.1813  0.9089 -0.0721
11585TIP3   OH256245   3.794   6.169  13.926  0.9623  0.2806 -0.1882
11585TIP3    H156246   3.770   6.079  13.905  1.5080 -0.2925  1.5060
11585TIP3    H256247   3.877   6.183  13.882 -0.4348  0.8815 -2.6845
11586TIP3   OH256248   0.577   5.349  11.299 -0.2762  0.2866  0.0586
11586TIP3    H156249   0.612   5.351  11.210 -2.3051  0.4817 -0.7820
11586TIP3    H256250   0.546   5.439  11.314  2.0596  0.8124  1.8180
11587TIP3   OH256251   1.404   0.210  11.006  0.4339  0.0016 -0.5392
11587TIP3    H156252   1.329   0.175  10.957  0.3100  0.7580 -0.8941
11587TIP3    H256253   1.479   0.163  10.971  0.0741 -1.1251  0.1674
11588TIP3   OH256254   1.548   6.068   4.178 -0.2071  0.6921 -0.1962
11588TIP3    H156255   1.593   6.138   4.226  1.0753  1.6523 -2.7266
11588TIP3    H256256   1.496   6.114   4.112 -0.7226 -0.6686 -0.7455
11589TIP3   OH256257   2.287   0.889   0.469  0.2995  0.2899  0.4013
11589TIP3    H156258   2.363   0.929   0.513  0.9069 -1.9572  1.4563
11589TIP3    H256259   2.287   0.928   0.381  1.2990  2.0224  1.1296
11590TIP3   OH256260   5.711   3.052  11.454  0.0630 -0.1384 -0.0844
11590TIP3    H156261   5.627   3.008  11.439 -0.4926  0.6160  0.7687
11590TIP3    H256262   5.691   3.145  11.455  0.7617  0.0175  0.9655
11591TIP3   OH256263   1.632   3.139  11.669  0.3248 -0.4473  0.5182
11591TIP3    H156264   1.657   3.229  11.647 -1.0669 -0.9095 -3.4386
11591TIP3    H256265   1.556   3.148  11.726 -0.3213  0.9034 -0.5294
11592TIP3   OH256266   5.355   1.776   0.257  0.1750  0.1174 -0.2740
11592TIP3    H156267   5.377   1.720   0.182 -1.9808  0.4301 -1.1639
11592TIP3    H256268   5.319   1.715   0.321  1.4208 -0.0532  0.2855
11593TIP3   OH256269   5.157   0.631   1.671 -0.2226 -0.2988 -0.1763
11593TIP3    H156270   5.195   0.563   1.727 -1.1701  0.1310  0.9912
11593TIP3    H256271   5.065   0.636   1.697 -0.5480  0.2826 -1.3991
11594TIP3   OH256272   3.340   3.531   4.721  0.2985  0.5189 -0.0196
11594TIP3    H156273   3.353   3.439   4.746 -0.4868  0.4594  0.1876
11594TIP3    H256274   3.426   3.572   4.736  0.1367  0.2465  1.8096
11595TIP3   OH256275   2.137   5.486  11.541 -0.1773  0.1777 -0.3752
11595TIP3    H156276   2.047   5.487  11.508 -0.2765 -2.8139 -0.3598
11595TIP3    H256277   2.191   5.469  11.464  0.1215 -0.7186  0.0208
11596TIP3   OH256278   5.102   6.105  15.089  0.4981  0.6545  0.0816
11596TIP3    H156279   5.165   6.051  15.042  1.0927  0.9806  0.4902
11596TIP3    H256280   5.018   6.081  15.052  0.9476  0.8446 -1.0737
11597TIP3   OH256281   5.492   3.120   3.893  0.0329  0.1836 -0.0913
11597TIP3    H156282   5.567   3.088   3.943  0.2065  0.5973 -0.0867
11597TIP3    H256283   5.472   3.049   3.832  1.7155  0.8810 -1.4854
11598TIP3   OH256284   1.778   6.288  13.725  0.0405 -0.0031  0.9058
11598TIP3    H156285   1.758   6.381  13.720 -0.3077 -0.0635  1.1804
11598TIP3    H256286   1.710   6.245  13.674  0.9571 -0.0089 -0.3310
11599TIP3   OH256287   2.922   4.527   5.222 -0.0717  0.0983 -0.5340
11599TIP3    H156288   2.971   4.547   5.142  1.2089  0.3192  0.2853
11599TIP3    H256289   2.988   4.495   5.283 -0.5429  2.6146  1.3755
11600TIP3   OH256290   0.902   1.276   3.198  0.3268  0.1559  0.1566
11600TIP3    H156291   0.823   1.230   3.171  1.4524 -1.5707 -0.3068
11600TIP3    H256292   0.922   1.335   3.126  0.6722 -1.0051 -0.7133
11601TIP3   OH256293   6.307   2.314  15.948  0.3776 -0.4719  0.2865
11601TIP3    H156294   6.259   2.334  15.867  0.6777  0.8718  0.4230
11601TIP3    H256295   6.245   2.265  16.001 -0.7399  0.9509  0.3232
11602TIP3   OH256296   3.013   2.791  12.256 -0.0134 -0.5806 -0.6011
11602TIP3    H156297   3.026   2.815  12.347  0.5053 -1.5111 -0.4234
11602TIP3    H256298   2.979   2.702  12.259  0.2407 -0.7077 -1.3240
11603TIP3   OH256299   0.701   1.898  13.459 -0.2728  0.4765 -0.3130
11603TIP3    H156300   0.705   1.879  13.365  0.1162 -1.1779  0.0189
11603TIP3    H256301   0.793   1.903  13.486 -0.3242 -3.1084  0.7274
11604TIP3   OH256302   0.773   1.661   4.572  0.6452  0.0796  0.1098
11604TIP3    H156303   0.804   1.599   4.506  2.1819  2.7840 -1.8317
11604TIP3    H256304   0.853   1.685   4.620  0.0226  0.3466  1.0154
11605TIP3   OH256305   0.829   3.332   4.370 -0.4892  0.1399 -0.1250
11605TIP3    H156306   0.920   3.307   4.357 -0.2996  0.1312  1.1909
11605TIP3    H256307   0.819   3.413   4.321 -0.2302 -0.7480 -1.6794
11606TIP3   OH256308   5.365   2.283   4.490 -0.2260  0.2832  0.0537
11606TIP3    H156309   5.327   2.238   4.565  0.9011 -2.0820 -0.7301
11606TIP3    H256310   5.303   2.269   4.419 -1.3386  2.6010  0.5310
11607TIP3   OH256311   1.643   4.886  12.937  0.7408 -0.2146  0.5819
11607TIP3    H156312   1.581   4.951  12.969 -3.1893 -3.1297 -0.7445
11607TIP3    H256313   1.674   4.841  13.016  1.2757  1.3124  1.2569
11608TIP3   OH256314   1.538   6.665  13.931 -0.2325 -0.4423 -0.6793
11608TIP3    H156315   1.546   6.711  14.015  1.3788 -2.5998  0.3689
11608TIP3    H256316   1.502   6.731  13.872  0.7875  1.7950  1.1177
11609TIP3   OH256317   4.925   5.147  13.067 -0.3938 -0.0180  0.3272
11609TIP3    H156318   4.949   5.219  13.009 -0.2580 -1.3040 -1.2506
11609TIP3    H256319   4.903   5.190  13.150  0.5892  1.7527 -0.2836
11610TIP3   OH256320   4.523   5.258   3.040 -0.3811 -0.5484  0.2442
11610TIP3    H156321   4.512   5.324   2.972 -0.8670  0.4563  1.2941
11610TIP3    H256322   4.499   5.176   2.998  0.3461 -0.0780 -1.1024
11611TIP3   OH256323   4.900   1.949   3.554  0.1649  0.1561 -0.4286
11611TIP3    H156324   4.837   1.965   3.625  0.9526 -0.8060  0.5085
11611TIP3    H256325   4.966   1.892   3.594  1.7158  1.2869 -1.3439
11612TIP3   OH256326   2.098   6.341  16.335  0.1136 -0.1201  0.1812
11612TIP3    H156327   2.193   6.352  16.337  0.0649  0.1566  1.3110
11612TIP3    H256328   2.064   6.418  16.381 -0.5556 -1.2672  1.6446
11613TIP3   OH256329   3.059   6.258   4.203 -0.5392 -0.0082  0.6293
11613TIP3    H156330   2.985   6.212   4.244 -0.0711 -1.5362 -0.2141
11613TIP3    H256331   3.137   6.216   4.240 -0.1114 -0.7618 -1.0770
11614TIP3   OH256332   2.103   6.235  11.794 -0.5238  0.1653 -0.4779
11614TIP3    H156333   2.035   6.168  11.786 -2.1186  1.6994 -0.0319
11614TIP3    H256334   2.184   6.190  11.769 -1.2381 -2.4762  1.6739
11615TIP3   OH256335   2.737   2.305   3.616 -0.1041  0.1328 -0.4212
11615TIP3    H156336   2.796   2.278   3.545  2.5925  0.9043  1.4367
11615TIP3    H256337   2.743   2.233   3.679 -0.3745  0.6911  0.2380
11616TIP3   OH256338   0.365   0.594  12.278  0.2754 -0.3663 -0.2365
11616TIP3    H156339   0.342   0.678  12.318 -0.5634 -0.1132 -1.2370
11616TIP3    H256340   0.449   0.609  12.236 -0.4128  0.3044 -1.3923
11617TIP3   OH256341   4.645   5.011   5.547 -0.6033 -0.3310  0.4903
11617TIP3    H156342   4.720   4.960   5.517 -0.6219  0.6590 -1.2578
11617TIP3    H256343   4.576   4.993   5.484 -0.6721  1.6956 -0.0379
11618TIP3   OH256344   6.100   6.718   1.673  0.0391  0.1697 -0.4333
11618TIP3    H156345   6.123   6.643   1.619  2.0637  0.3676  0.1121
11618TIP3    H256346   6.010   6.701   1.702  0.1684 -1.6005 -1.0300
11619TIP3   OH256347   6.133   4.652   6.486  0.0262 -0.5645  0.2647
11619TIP3    H156348   6.074   4.589   6.527  0.3261 -0.1029  1.4106
11619TIP3    H256349   6.221   4.624   6.511  0.0842  1.4605  2.4859
11620TIP3   OH256350   3.856   6.097   5.032  0.0710  0.2718 -0.2225
11620TIP3    H156351   3.823   6.160   4.968  0.2116  0.1855 -0.3817
11620TIP3    H256352   3.922   6.047   4.984 -0.4426 -0.3764 -0.2669
11621TIP3   OH256353   2.362   1.200   3.511  0.3291  0.3599  0.3323
11621TIP3    H156354   2.435   1.256   3.485 -1.5184  2.6878 -0.0977
11621TIP3    H256355   2.357   1.209   3.606  0.5216  0.3199  0.3455
11622TIP3   OH256356   4.592   3.583   0.953  0.4170  0.2216  0.0134
11622TIP3    H156357   4.571   3.518   1.020 -0.9556 -0.6632 -1.2768
11622TIP3    H256358   4.672   3.549   0.912  0.4889  0.0745  0.2694
11623TIP3   OH256359   1.275   6.241   5.415 -0.4021 -0.6312  0.5081
11623TIP3    H156360   1.249   6.240   5.507  1.0433 -0.1938  0.9421
11623TIP3    H256361   1.318   6.326   5.404  1.3938 -1.5939  0.0003
11624TIP3   OH256362   2.914   5.939   5.176  0.3823 -0.0698  0.2123
11624TIP3    H156363   2.885   6.004   5.112  1.9849 -0.3708 -0.8354
11624TIP3    H256364   2.832   5.907   5.216 -0.6624  0.0111 -1.7858
11625TIP3   OH256365   1.866   4.011  14.041 -0.0112 -0.1459 -0.3948
11625TIP3    H156366   1.853   4.085  14.100  1.7869 -0.5985  0.5757
11625TIP3    H256367   1.807   3.943  14.073 -2.3711  1.1218 -1.8386
11626TIP3   OH256368   0.666   4.278  16.167  0.4603 -0.6092 -0.3520
11626TIP3    H156369   0.675   4.305  16.075 -1.1067 -0.9349 -0.6080
11626TIP3    H256370   0.659   4.360  16.215  0.6892 -0.4528 -0.5795
11627TIP3   OH256371   5.964   0.738  14.957  0.2562 -0.4983  0.0273
11627TIP3    H156372   5.922   0.718  14.874  0.0461 -1.1843  0.2941
11627TIP3    H256373   5.906   0.700  15.023  0.6097 -0.2868  0.4637
11628TIP3   OH256374   6.533   0.228   1.163  0.2890 -0.2888 -0.3998
11628TIP3    H156375   6.596   0.298   1.151  1.4912 -1.3682 -0.4736
11628TIP3    H256376   6.585   0.148   1.162 -0.9506 -1.1335  0.5976
11629TIP3   OH256377   2.845   0.022  11.788 -0.4130 -0.0765 -0.5250
11629TIP3    H156378   2.856  -0.039  11.861  0.3245  0.2819 -0.3373
11629TIP3    H256379   2.799  -0.029  11.721  0.8679 -1.0656 -0.6628
11630TIP3   OH256380   1.005   1.988   0.015  0.0257 -0.6004  0.0549
11630TIP3    H156381   0.931   1.981  -0.045 -1.0491  0.2121  1.2627
11630TIP3    H256382   0.968   1.968   0.101  0.9439  0.9785  0.8333
11631TIP3   OH256383   2.275   0.532  11.210  0.0127  0.2075 -0.1463
11631TIP3    H156384   2.363   0.502  11.191 -0.1301 -0.2043 -0.1743
11631TIP3    H256385   2.242   0.469  11.274 -0.8313 -0.5837 -1.3368
11632TIP3   OH256386   4.981   2.997   3.271  0.0888  0.4434 -0.6673
11632TIP3    H156387   5.011   3.071   3.324  1.9743 -0.7314 -0.0444
11632TIP3    H256388   5.004   3.021   3.181  0.8188  0.5724 -0.4537
11633TIP3   OH256389   2.754   6.793  14.735  0.0401 -0.2684 -0.1034
11633TIP3    H156390   2.675   6.763  14.780 -0.4216  0.2550 -0.5598
11633TIP3    H256391   2.810   6.825  14.806 -1.9993  3.5782 -0.0805
11634TIP3   OH256392   0.206   3.412   2.036 -0.3318 -0.3815 -0.0303
11634TIP3    H156393   0.258   3.491   2.021 -2.1905  0.2791 -3.8813
11634TIP3    H256394   0.131   3.442   2.087 -1.0366  0.4445 -1.4874
11635TIP3   OH256395   1.305   3.077   2.684  0.3952 -0.2313  0.0673
11635TIP3    H156396   1.284   3.109   2.596 -0.8613 -0.9686  0.1012
11635TIP3    H256397   1.312   2.982   2.675  1.9694 -0.1660  0.4215
11636TIP3   OH256398   4.371   0.447   0.022 -0.0972  0.5012  0.7400
11636TIP3    H156399   4.275   0.446   0.017 -0.0616  0.4378  0.0211
11636TIP3    H256400   4.399   0.478  -0.064  0.5567 -0.4544  0.6041
11637TIP3   OH256401   2.301   5.119   0.621  0.6232 -0.0890  0.2452
11637TIP3    H156402   2.276   5.052   0.558  1.7596  0.9864 -1.3757
11637TIP3    H256403   2.309   5.200   0.570 -1.2031  1.4286  2.2493
11638TIP3   OH256404   0.444   2.673  16.596 -0.2313  0.3251 -0.2336
11638TIP3    H156405   0.503   2.621  16.651 -0.2070  1.9049  1.2659
11638TIP3    H256406   0.495   2.691  16.517  1.2071  1.3810  0.9047
11639TIP3   OH256407   3.117   0.670  12.436  0.9341 -0.1497  0.4229
11639TIP3    H156408   3.187   0.634  12.491  1.5430 -0.6118 -0.6299
11639TIP3    H256409   3.099   0.756  12.474  1.9202 -0.1194  0.8459
11640TIP3   OH256410   1.103   3.424  17.231 -0.1772 -0.1456 -0.0914
11640TIP3    H156411   1.096   3.458  17.142 -0.4061 -0.1538 -0.0767
11640TIP3    H256412   1.192   3.391  17.237 -0.1275 -0.0488 -0.2821
11641TIP3   OH256413   5.592   5.070   5.364  0.3890 -0.2770 -0.5745
11641TIP3    H156414   5.507   5.106   5.337  0.4520 -0.4101 -0.9614
11641TIP3    H256415   5.632   5.041   5.282  0.6499 -0.5540 -0.3503
11642TIP3   OH256416   0.859   3.971   4.512 -0.0291 -0.1848 -0.0613
11642TIP3    H156417   0.945   3.963   4.552 -0.0620  0.2617  0.1052
11642TIP3    H256418   0.804   3.909   4.560  0.1697 -0.3842 -0.0903
11643TIP3   OH256419   0.913   0.910   4.456 -0.0279 -0.1217 -0.6201
11643TIP3    H156420   0.894   0.823   4.493  1.4121 -0.0398  0.3704
11643TIP3    H256421   0.891   0.902   4.364  1.9087 -2.1686 -0.9614
11644TIP3   OH256422   2.240   5.872  13.738 -0.9609 -0.1631  0.8001
11644TIP3    H156423   2.151   5.841  13.756 -0.9183 -1.3239 -0.9330
11644TIP3    H256424   2.232   5.968  13.742 -2.8631 -0.1412 -1.7907
11645TIP3   OH256425   6.614   5.911   4.939  0.6160 -0.5164 -0.3659
11645TIP3    H156426   6.697   5.897   4.984 -0.5838  0.1367  2.1140
11645TIP3    H256427   6.625   5.994   4.892  1.2688 -0.2742  0.2170
11646TIP3   OH256428   1.976   6.601  12.476 -0.2159  0.0170  0.3218
11646TIP3    H156429   1.996   6.507  12.470 -0.7753 -0.1629  1.2545
11646TIP3    H256430   1.883   6.605  12.497 -0.3214  0.7976 -0.2805
11647TIP3   OH256431   3.178   4.444   3.433  0.2102 -0.0486 -0.0418
11647TIP3    H156432   3.193   4.389   3.510  1.2272 -2.9722 -2.2843
11647TIP3    H256433   3.087   4.471   3.440  0.4980  0.3671  2.5689
11648TIP3   OH256434   5.318   0.361   3.278  0.4209 -0.3493  0.1595
11648TIP3    H156435   5.360   0.383   3.195  4.0516 -0.2935  1.8833
11648TIP3    H256436   5.375   0.294   3.317 -2.2011 -1.7070  1.7773
11649TIP3   OH256437   4.507   3.976   1.483 -0.1135  0.0576  0.4477
11649TIP3    H156438   4.452   3.973   1.562 -0.7068 -0.3202  0.0275
11649TIP3    H256439   4.514   4.069   1.463  1.1313  0.2510  1.6904
11650TIP3   OH256440   3.692   6.801   5.357 -0.0187 -0.5763 -0.0081
11650TIP3    H156441   3.738   6.740   5.414  0.5968 -0.4390 -0.3492
11650TIP3    H256442   3.751   6.877   5.351 -1.1293  0.3956  1.0570
11651TIP3   OH256443   5.903   0.018  15.456  0.3789 -0.0415 -0.0404
11651TIP3    H156444   5.893   0.046  15.547  0.3630  0.8894 -0.3229
11651TIP3    H256445   5.987  -0.028  15.454 -0.2444 -1.2353  0.7203
11652TIP3   OH256446   0.351   1.190  16.216 -0.3620  0.0510 -0.0854
11652TIP3    H156447   0.353   1.247  16.292 -2.0241 -0.8276  0.6568
11652TIP3    H256448   0.272   1.137  16.228  0.2253 -1.2194 -1.6016
11653TIP3   OH256449   5.894   3.095   0.402  0.0754  0.1442  0.1804
11653TIP3    H156450   5.884   3.188   0.380 -0.9618  0.0993  0.4571
11653TIP3    H256451   5.987   3.077   0.388  0.3149  1.2685  0.2864
11654TIP3   OH256452   2.475   3.575  11.353  0.5393  0.4789  0.2915
11654TIP3    H156453   2.561   3.614  11.362  0.0392  1.0049  3.4436
11654TIP3    H256454   2.489   3.481  11.367  0.5737  0.5982  1.0718
11655TIP3   OH256455   1.265   4.393   0.947  0.3236  0.2172 -0.4973
11655TIP3    H156456   1.308   4.470   0.911  0.4597  0.3718 -0.0105
11655TIP3    H256457   1.335   4.330   0.962  0.3186  0.2899 -0.1615
11656TIP3   OH256458   3.168   4.283   1.221  0.3552 -0.3783 -0.1319
11656TIP3    H156459   3.227   4.232   1.166  0.6419  0.3814 -0.5296
11656TIP3    H256460   3.112   4.330   1.159 -2.1574 -2.7903  0.2187
11657TIP3   OH256461   2.653   0.502  14.509  0.2683  0.0218 -0.4140
11657TIP3    H156462   2.595   0.562  14.556 -2.6228 -1.2393 -2.1741
11657TIP3    H256463   2.622   0.415  14.534  2.3482 -0.7122 -0.3159
11658TIP3   OH256464   4.692   2.367   4.814 -0.3629 -0.3339  0.0408
11658TIP3    H156465   4.715   2.301   4.880 -0.9194 -2.5666 -1.9440
11658TIP3    H256466   4.599   2.353   4.798 -0.1721  0.0128 -1.3957
11659TIP3   OH256467   3.024   0.562   1.397  0.1010 -0.2796 -0.1252
11659TIP3    H156468   2.941   0.592   1.362  0.5711 -0.6950 -1.6186
11659TIP3    H256469   3.076   0.642   1.408 -0.3836 -0.0505  0.5497
11660TIP3   OH256470   3.223   5.064  16.472 -0.3869 -0.3842 -0.6078
11660TIP3    H156471   3.180   5.077  16.388 -0.8210 -0.2296 -0.3656
11660TIP3    H256472   3.261   5.150  16.493 -1.4543 -0.0482 -0.0051
11661TIP3   OH256473   2.496   5.101   3.114 -0.2474 -0.1862  0.2805
11661TIP3    H156474   2.512   5.193   3.095 -1.1452  0.0150  0.4623
11661TIP3    H256475   2.455   5.066   3.035  0.9438 -0.6698 -0.1433
11662TIP3   OH256476   2.428   0.367   6.482 -0.3966 -0.6523 -0.1603
11662TIP3    H156477   2.343   0.343   6.518 -0.2986 -0.1039  0.4475
11662TIP3    H256478   2.409   0.435   6.418 -0.5474 -1.4606 -0.9820
11663TIP3   OH256479   6.090   6.314  17.276  0.1776  0.5877  0.2361
11663TIP3    H156480   6.152   6.245  17.253 -1.0091 -0.5203  0.3588
11663TIP3    H256481   6.117   6.340  17.365  0.2507 -0.1395  0.4347
11664TIP3   OH256482   4.566   4.349   1.094  0.8859 -0.3797 -0.6912
11664TIP3    H156483   4.627   4.299   1.148  0.0773 -0.1717  0.4243
11664TIP3    H256484   4.501   4.284   1.065  2.6191 -0.9746 -3.3733
11665TIP3   OH256485   4.041   1.988  14.864  0.1927  0.2030  0.8068
11665TIP3    H156486   4.107   1.934  14.821 -0.6458  0.2301 -0.5372
11665TIP3    H256487   4.025   2.059  14.803 -0.4733  0.6565  1.5017
11666TIP3   OH256488   4.472   5.282  12.545 -0.2032 -0.7397  0.6537
11666TIP3    H156489   4.520   5.311  12.622  2.6402 -0.0216 -1.3257
11666TIP3    H256490   4.472   5.186  12.551 -0.1160 -0.6839  1.5995
11667TIP3   OH256491   0.022   6.154  17.163  0.2407  0.2136 -0.1645
11667TIP3    H156492  -0.057   6.153  17.217  0.5491 -1.1195  0.2806
11667TIP3    H256493   0.030   6.245  17.133 -0.1113  0.9017  1.7745
11668TIP3   OH256494   0.354   5.232   1.763  0.7751 -0.7098 -0.5959
11668TIP3    H156495   0.318   5.249   1.676  0.7998 -1.4869 -0.7618
11668TIP3    H256496   0.434   5.284   1.767 -0.7754  1.7668  0.1100
11669TIP3   OH256497   1.284   5.245   3.663 -0.5828  0.1406 -0.4337
11669TIP3    H156498   1.265   5.322   3.717 -0.7907  1.0745 -1.8191
11669TIP3    H256499   1.356   5.274   3.606  0.5345 -1.2551  0.2251
11670TIP3   OH256500   5.639   1.189  11.068  0.5068  0.2900  0.1913
11670TIP3    H156501   5.578   1.149  11.130  1.5117 -0.7020  0.5422
11670TIP3    H256502   5.619   1.148  10.984 -0.6633  1.4305 -0.1097
11671TIP3   OH256503   3.793   5.664   5.373  0.1401  0.1543  0.1349
11671TIP3    H156504   3.869   5.705   5.414 -0.8212  3.4307 -1.2272
11671TIP3    H256505   3.717   5.710   5.409 -1.0276 -0.8127 -1.0179
11672TIP3   OH256506   3.180   1.359  12.814 -0.0532 -0.4844 -0.1920
11672TIP3    H156507   3.106   1.337  12.871 -1.0097  0.7887 -0.9124
11672TIP3    H256508   3.239   1.409  12.869  0.0282 -1.0588  0.2483
11673TIP3   OH256509   0.342   0.883  12.379  0.1694  0.7031 -0.0779
11673TIP3    H156510   0.260   0.932  12.377  0.1801  0.7566  0.6373
11673TIP3    H256511   0.409   0.950  12.392  0.1438  0.4764  1.3757
11674TIP3   OH256512   1.356   0.437   4.126  0.4365 -0.3663 -0.9254
11674TIP3    H156513   1.376   0.452   4.218 -2.2048  1.6617 -0.6456
11674TIP3    H256514   1.296   0.363   4.125 -0.6479  0.4967 -0.8741
11675TIP3   OH256515   6.213   0.536  14.478  0.5736  0.6497 -1.0589
11675TIP3    H156516   6.117   0.533  14.479  0.4570  3.5199  0.3077
11675TIP3    H256517   6.237   0.555  14.569  2.3232  2.6948 -1.9188
11676TIP3   OH256518   0.278   1.268   3.665 -0.7394  0.0398 -0.2572
11676TIP3    H156519   0.253   1.349   3.710  0.6395  0.0182  0.6028
11676TIP3    H256520   0.243   1.277   3.577  2.7434  3.4232 -1.4703
11677TIP3   OH256521   3.919   2.287   6.239  0.5726 -0.1617  0.7374
11677TIP3    H156522   4.006   2.297   6.200  0.9493  2.2005  2.0797
11677TIP3    H256523   3.932   2.226   6.312  0.4240 -2.3570 -1.0178
11678TIP3   OH256524   3.249   0.256   3.733  0.4215 -0.6117 -0.2536
11678TIP3    H156525   3.180   0.301   3.685  0.9444 -0.8756 -1.2723
11678TIP3    H256526   3.212   0.240   3.820 -0.1743  0.7768 -0.2406
11679TIP3   OH256527   6.120   5.331  15.721  0.0514 -0.4931  0.6666
11679TIP3    H156528   6.140   5.245  15.684  1.6327 -0.4935  1.4823
11679TIP3    H256529   6.027   5.343  15.706 -0.4775 -2.9512  1.7618
11680TIP3   OH256530   0.574   1.704   3.761  0.2023 -0.1949 -0.7037
11680TIP3    H156531   0.606   1.617   3.737  0.4326 -0.3787  0.2534
11680TIP3    H256532   0.500   1.687   3.819  0.9271  0.2485  0.3586
11681TIP3   OH256533   3.127   4.089   3.744 -0.0341  0.1902 -0.6873
11681TIP3    H156534   3.204   4.039   3.718  1.0444  1.8198 -0.6780
11681TIP3    H256535   3.129   4.167   3.689 -1.0159  0.8156  0.1502
11682TIP3   OH256536   6.262   4.458  16.609  0.6414  0.2568 -0.6367
11682TIP3    H156537   6.216   4.375  16.594  0.6264  0.1873 -0.2141
11682TIP3    H256538   6.331   4.435  16.672  0.9893  0.4468 -0.9513
11683TIP3   OH256539   0.321   0.646  13.036  0.6151  0.7763  0.1669
11683TIP3    H156540   0.275   0.564  13.015  2.2998 -0.3519  0.7171
11683TIP3    H256541   0.263   0.715  13.006 -1.7529 -0.5904  1.4590
11684TIP3   OH256542   4.980   6.616  14.347 -0.4553 -0.1730 -0.3177
11684TIP3    H156543   5.037   6.690  14.370 -0.6301 -0.0410 -0.3045
11684TIP3    H256544   4.980   6.615  14.251 -2.1877  1.2074 -0.3596
11685TIP3   OH256545   4.799   0.241   0.624  0.2136 -0.6298  0.1197
11685TIP3    H156546   4.810   0.193   0.541  1.2023 -1.8237  0.9185
11685TIP3    H256547   4.874   0.300   0.627 -1.4447  1.6027 -1.2547
11686TIP3   OH256548   3.084   6.523   5.412  0.9270 -0.3685 -0.0671
11686TIP3    H156549   3.160   6.579   5.397  1.5076 -1.1890 -0.2497
11686TIP3    H256550   3.105   6.477   5.493 -0.8193  1.7739  1.6397
11687TIP3   OH256551   1.802   0.775   1.800 -0.4102 -0.0333 -0.2927
11687TIP3    H156552   1.776   0.684   1.789  1.5522 -0.6406 -0.0607
11687TIP3    H256553   1.769   0.819   1.721  1.0022 -1.4993 -1.7340
11688TIP3   OH256554   3.330   5.503  16.735  0.3776  0.2560 -0.2923
11688TIP3    H156555   3.326   5.413  16.705 -0.7327  0.6298 -1.2819
11688TIP3    H256556   3.289   5.501  16.822  0.1524 -0.1475 -0.4077
11689TIP3   OH256557   3.250   6.396  12.124  1.0779  0.1111  0.5049
11689TIP3    H156558   3.238   6.490  12.115  0.3741 -0.1222 -1.0866
11689TIP3    H256559   3.213   6.375  12.210  0.0982  1.1069  0.3379
11690TIP3   OH256560   4.969   2.772   2.444 -0.1333  0.3979 -0.0763
11690TIP3    H156561   4.996   2.809   2.528  3.4171  0.7812 -1.3021
11690TIP3    H256562   4.982   2.844   2.382 -0.3648 -0.6342 -1.3230
11691TIP3   OH256563   1.777   5.845  12.588  0.3759 -0.0659 -0.3231
11691TIP3    H156564   1.855   5.880  12.630 -1.1091  1.2159  1.4889
11691TIP3    H256565   1.763   5.901  12.511 -1.0262  2.3592  1.6224
11692TIP3   OH256566   4.082   0.744  14.289 -0.9642 -0.3387 -0.7876
11692TIP3    H156567   4.108   0.657  14.260 -3.0147 -0.6843 -1.6526
11692TIP3    H256568   4.048   0.731  14.378  3.9762  0.5025  1.4016
11693TIP3   OH256569   6.591   3.722   2.573 -0.0764  0.6243  0.5764
11693TIP3    H156570   6.677   3.694   2.541 -1.3818 -2.3841 -0.4992
11693TIP3    H256571   6.575   3.666   2.650 -2.6406 -1.6234 -1.4631
11694TIP3   OH256572   0.565   6.644   4.049 -0.8642  0.1719  0.1516
11694TIP3    H156573   0.559   6.629   3.954 -1.1824 -0.6608  0.2993
11694TIP3    H256574   0.654   6.677   4.062 -0.3864 -0.9243 -0.2801
11695TIP3   OH256575   5.829   6.405  12.486  0.3763  0.0990 -0.3886
11695TIP3    H156576   5.773   6.482  12.494 -0.1359 -0.4410  1.2936
11695TIP3    H256577   5.819   6.359  12.568  1.0244 -1.5544 -1.2188
11696TIP3   OH256578   4.769   2.507   0.521  0.4801 -0.3970  0.0436
11696TIP3    H156579   4.710   2.472   0.454  1.1988 -1.2918 -0.1363
11696TIP3    H256580   4.725   2.487   0.604 -0.3209  0.5434 -0.1429
11697TIP3   OH256581   1.136   1.687  17.019 -0.1416  0.4957  0.0834
11697TIP3    H156582   1.119   1.593  17.015 -3.5331  0.9866  1.5020
11697TIP3    H256583   1.089   1.722  16.944  2.6569  0.9269 -1.5446
11698TIP3   OH256584   2.516   6.415  13.835 -0.1740 -0.2521  0.0442
11698TIP3    H156585   2.472   6.358  13.772  1.0045  0.5759 -1.5679
11698TIP3    H256586   2.604   6.380  13.843  0.9331  1.9350 -1.8400
11699TIP3   OH256587   0.552   1.906   3.217  0.4630  0.1800  0.9034
11699TIP3    H156588   0.614   1.890   3.288  0.4186  0.6040  1.0424
11699TIP3    H256589   0.608   1.937   3.144  0.3090  1.6333  1.3802
11700TIP3   OH256590   0.303   6.214   1.179 -0.1706  0.1883 -0.3190
11700TIP3    H156591   0.293   6.223   1.084 -0.4803 -3.2014 -0.6464
11700TIP3    H256592   0.397   6.211   1.193 -0.1255 -2.3446 -0.8938
11701TIP3   OH256593   0.742   3.373  12.511  0.1752  0.5424 -0.2657
11701TIP3    H156594   0.700   3.398  12.594  0.3057 -1.7154  0.5078
11701TIP3    H256595   0.826   3.419  12.512 -0.6105  1.9981 -0.0079
11702TIP3   OH256596   3.161   2.058  15.947 -0.3063  0.3769 -0.4080
11702TIP3    H156597   3.256   2.042  15.950 -0.3212  0.3388 -0.0794
11702TIP3    H256598   3.135   2.060  16.039 -0.6143  0.4639 -0.4985
11703TIP3   OH256599   3.226   5.819   4.484  0.2515  0.1212 -0.1679
11703TIP3    H156600   3.130   5.819   4.490  0.1540  0.6021 -1.6542
11703TIP3    H256601   3.255   5.829   4.575 -1.1144  1.2411  0.1670
11704TIP3   OH256602   1.320   5.843   0.546  0.3047 -0.3543  0.2782
11704TIP3    H156603   1.362   5.774   0.597  0.2766 -0.4600  0.1560
11704TIP3    H256604   1.338   5.923   0.596  1.5228 -0.2580 -0.3107
11705TIP3   OH256605   1.051   6.694   4.181  0.0552 -0.4168  0.5619
11705TIP3    H156606   0.991   6.643   4.125 -0.6754  0.6472  0.3633
11705TIP3    H256607   1.002   6.773   4.202  1.8857  1.0548 -0.6659
11706TIP3   OH256608   3.030   6.724   4.080 -0.2071  0.0626 -0.3833
11706TIP3    H156609   2.938   6.697   4.085 -0.3663  0.6959  0.1614
11706TIP3    H256610   3.077   6.653   4.124 -0.4059 -0.3989 -0.9114
11707TIP3   OH256611   6.764   4.174  14.827 -0.0936  0.3527  0.1782
11707TIP3    H156612   6.840   4.122  14.802  0.8972  1.6517  0.4221
11707TIP3    H256613   6.790   4.265  14.809 -1.0040  0.9397  1.7137
11708TIP3   OH256614   3.419   0.649   3.705 -0.5247  0.0415  0.2616
11708TIP3    H156615   3.346   0.613   3.755  0.6685  0.1301  2.1168
11708TIP3    H256616   3.423   0.596   3.625 -1.2175 -1.3905  1.1662
11709TIP3   OH256617   4.141   0.808   4.849  0.4324 -0.1332 -0.0378
11709TIP3    H156618   4.179   0.773   4.930 -1.3854  0.2965  1.0131
11709TIP3    H256619   4.146   0.735   4.787  0.6943 -0.8659  0.8322
11710TIP3   OH256620   1.504   2.508   4.355  0.0518  0.2467 -0.1965
11710TIP3    H156621   1.591   2.501   4.394  0.3978 -0.5955 -1.0989
11710TIP3    H256622   1.504   2.594   4.313 -0.3561  1.1907  1.7028
11711TIP3   OH256623   0.480   3.725   2.271 -0.3780  0.2875 -0.8153
11711TIP3    H156624   0.445   3.779   2.342 -1.4723 -0.5549 -0.6959
11711TIP3    H256625   0.568   3.760   2.256 -0.2260  0.6503  0.7683
11712TIP3   OH256626   2.635   3.765  14.989  0.3579 -0.0377  0.2738
11712TIP3    H156627   2.678   3.712  15.056  1.3617  0.5374  0.1007
11712TIP3    H256628   2.580   3.703  14.942 -2.8055  0.1288  3.5673
11713TIP3   OH256629   0.450   3.879  15.914  0.1307 -0.6077 -0.1393
11713TIP3    H156630   0.450   3.875  16.009  3.7664 -3.3973 -0.1570
11713TIP3    H256631   0.399   3.803  15.886 -1.0466  0.2800 -0.4515
11714TIP3   OH256632   4.479   6.399   3.465  0.2055  0.0151  0.3330
11714TIP3    H156633   4.447   6.311   3.444 -0.3163  0.4466 -0.7615
11714TIP3    H256634   4.501   6.437   3.380  1.7369  0.4519  0.9185
11715TIP3   OH256635   0.408   4.125   6.059  0.2419 -0.0805 -0.0769
11715TIP3    H156636   0.382   4.042   6.100 -0.6721  0.3400  0.2169
11715TIP3    H256637   0.355   4.130   5.980  0.2349  0.2641 -0.0491
11716TIP3   OH256638   5.449   2.545  15.024  0.2130  0.3663 -0.3040
11716TIP3    H156639   5.528   2.490  15.026  1.2217  1.7253 -1.1886
11716TIP3    H256640   5.424   2.546  14.931 -0.5096  0.4231 -0.1071
11717TIP3   OH256641   3.890   3.976  15.153 -0.2263 -0.2404  0.2051
11717TIP3    H156642   3.946   4.006  15.081 -0.0144 -0.5574  0.2355
11717TIP3    H256643   3.951   3.943  15.218 -0.5574 -3.8112 -1.2040
11718TIP3   OH256644   3.216   4.411  14.642 -0.3396 -0.1506  0.1834
11718TIP3    H156645   3.259   4.456  14.569 -0.8545  2.1533  1.2498
11718TIP3    H256646   3.249   4.322  14.638  0.2211  0.1418 -2.4058
11719TIP3   OH256647   3.831   4.746  17.275 -0.1115 -0.3251 -0.1066
11719TIP3    H156648   3.769   4.787  17.215 -1.1972 -0.2207  1.0668
11719TIP3    H256649   3.855   4.816  17.336  1.8072 -0.1390 -1.0146
11720TIP3   OH256650   1.302   3.022  13.396 -0.2875  0.1201  0.2308
11720TIP3    H156651   1.380   3.006  13.344 -1.2559  1.1254 -1.5640
11720TIP3    H256652   1.291   3.117  13.394 -1.2204  0.0359  0.9929
11721TIP3   OH256653   1.967   0.848   2.020 -0.6712 -0.3948  0.2179
11721TIP3    H156654   2.018   0.767   2.018  0.9185  0.6004 -2.8057
11721TIP3    H256655   1.898   0.835   1.955  0.3248  1.0858 -1.1721
11722TIP3   OH256656   1.742   6.442  15.334  0.0598 -0.0046 -0.0195
11722TIP3    H156657   1.698   6.497  15.399 -0.0386 -0.8512  0.6599
11722TIP3    H256658   1.678   6.429  15.265 -0.1604  0.1688  0.1539
11723TIP3   OH256659   3.121   3.444  14.918 -0.0903 -0.3499 -0.1538
11723TIP3    H156660   3.041   3.416  14.874 -0.5578 -0.8665  1.0196
11723TIP3    H256661   3.116   3.540  14.917 -0.5377 -0.3731 -0.4131
11724TIP3   OH256662   5.911   3.293  13.798 -0.2200  0.4376 -0.4674
11724TIP3    H156663   5.947   3.297  13.886  0.0178  1.4472 -0.6080
11724TIP3    H256664   5.913   3.200  13.775  2.5589  0.4923 -0.5836
11725TIP3   OH256665   0.635   1.374   0.962 -0.2252  0.2658  0.0481
11725TIP3    H156666   0.540   1.379   0.961 -0.2731 -0.5923 -0.1015
11725TIP3    H256667   0.655   1.289   0.922  0.7226  1.8706 -2.9895
11726TIP3   OH256668   3.452   1.870  11.137 -0.3647 -1.0100 -0.3925
11726TIP3    H156669   3.387   1.801  11.152  0.1809 -1.5275 -0.3825
11726TIP3    H256670   3.510   1.834  11.070 -0.5431 -0.2324 -0.9736
11727TIP3   OH256671   6.123   6.671   2.962  0.3939 -0.1529  0.2709
11727TIP3    H156672   6.212   6.708   2.968  0.0419  0.8176 -0.3915
11727TIP3    H256673   6.105   6.668   2.868 -0.1920 -0.5744  0.3943
11728TIP3   OH256674   1.150   0.500  13.011 -0.3891 -0.1481 -0.4293
11728TIP3    H156675   1.203   0.579  13.024 -0.6289 -0.2911  1.5340
11728TIP3    H256676   1.199   0.430  13.054 -1.6516 -0.4758  0.5112
11729TIP3   OH256677   3.978   2.849   5.904  0.0663  0.6831  0.3437
11729TIP3    H156678   3.978   2.909   5.979  0.4426  1.2169 -0.0856
11729TIP3    H256679   4.024   2.771   5.936  0.0727  0.8407  0.7229
11730TIP3   OH256680   4.280   1.473  10.794 -0.4708 -0.2025 -0.3698
11730TIP3    H156681   4.330   1.397  10.763 -0.3554 -0.4543  0.4346
11730TIP3    H256682   4.330   1.549  10.764 -0.2082 -0.4443 -0.5474
11731TIP3   OH256683   3.581   6.342  13.946  0.3394 -0.5564  0.7541
11731TIP3    H156684   3.658   6.285  13.953  0.7402  0.0525  1.3477
11731TIP3    H256685   3.564   6.371  14.036  0.7681  1.0730  0.3304
11732TIP3   OH256686   1.861   3.975  16.788  0.1086  0.1690 -0.0393
11732TIP3    H156687   1.808   4.052  16.768  0.8832  0.9036  0.7454
11732TIP3    H256688   1.936   4.008  16.836  0.7162 -1.0156 -0.1499
11733TIP3   OH256689   3.373   3.114  16.483  0.2931  0.3790  0.3656
11733TIP3    H156690   3.318   3.058  16.537 -0.2912  3.5737  3.2681
11733TIP3    H256691   3.460   3.108  16.523  0.8299 -0.4789 -0.9183
11734TIP3   OH256692   4.361   3.907  16.296 -0.3701  0.2449 -0.2895
11734TIP3    H156693   4.438   3.908  16.239 -0.2465  1.0939 -0.1068
11734TIP3    H256694   4.389   3.855  16.372  0.0744  0.6912 -0.1483
11735TIP3   OH256695   1.687   3.630   4.428 -0.2021  0.5143 -0.8167
11735TIP3    H156696   1.721   3.541   4.434 -0.7046  0.3146 -0.8477
11735TIP3    H256697   1.642   3.644   4.512 -1.3378  0.2182 -1.3658
11736TIP3   OH256698   6.590   4.772   1.628 -0.6359 -0.3058 -0.4195
11736TIP3    H156699   6.664   4.810   1.580 -0.3117  0.8221  0.9283
11736TIP3    H256700   6.628   4.699   1.677 -0.3445  0.3787  0.4064
11737TIP3   OH256701   6.375   1.921   4.267  0.7195 -0.1960  0.2218
11737TIP3    H156702   6.325   1.843   4.292  0.5099 -0.1040  0.0811
11737TIP3    H256703   6.415   1.897   4.183 -0.0623  0.1788 -0.2561
11738TIP3   OH256704   4.486   2.420   6.560 -0.3006  0.0963 -0.6555
11738TIP3    H156705   4.463   2.367   6.637  0.7727 -1.0105 -1.0678
11738TIP3    H256706   4.409   2.415   6.504 -0.6181 -0.1389 -0.2069
11739TIP3   OH256707   5.452   3.163   5.786 -0.0426 -0.0016  0.1644
11739TIP3    H156708   5.417   3.108   5.856  1.9817 -0.5514  0.7673
11739TIP3    H256709   5.505   3.104   5.733  1.7510  1.2294  0.5379
11740TIP3   OH256710   4.773   5.073   0.368 -0.1688  0.0774  0.3827
11740TIP3    H156711   4.682   5.044   0.361 -0.4030  0.9627 -0.3026
11740TIP3    H256712   4.774   5.135   0.441 -0.0318 -0.2470  0.6575
11741TIP3   OH256713   0.270   3.561  10.658  0.3609 -0.1516 -0.1901
11741TIP3    H156714   0.240   3.494  10.598  0.2710  0.7921 -1.2130
11741TIP3    H256715   0.348   3.524  10.699 -1.0657 -1.8435  1.0608
11742TIP3   OH256716   3.039   1.692   2.865 -0.0479  0.0763  0.2260
11742TIP3    H156717   3.017   1.767   2.810 -0.3609 -0.2213 -0.0571
11742TIP3    H256718   3.131   1.673   2.844  0.1996  0.7222  0.7056
11743TIP3   OH256719   3.467   3.745  12.920  0.1908 -0.6298  0.4174
11743TIP3    H156720   3.404   3.680  12.889 -0.6941  0.9995 -1.3372
11743TIP3    H256721   3.421   3.793  12.989  1.2171 -2.4985  2.4682
11744TIP3   OH256722   2.143   4.200   3.713 -0.6900  0.1959  0.0944
11744TIP3    H156723   2.215   4.199   3.775 -1.5948  1.2000  1.1836
11744TIP3    H256724   2.145   4.288   3.675 -0.8396 -0.0407 -0.4663
11745TIP3   OH256725   0.397   1.292  12.918  0.0899 -0.6589 -0.3059
11745TIP3    H156726   0.444   1.288  13.002 -0.5778  1.5887  0.2268
11745TIP3    H256727   0.390   1.201  12.890  0.8987 -1.4027  1.7625
11746TIP3   OH256728   3.342   4.797  13.240  0.3780 -0.1656 -0.0795
11746TIP3    H156729   3.431   4.831  13.231  0.2566 -0.3702 -2.5284
11746TIP3    H256730   3.300   4.819  13.156 -2.4475  1.5410  1.7018
11747TIP3   OH256731   6.771   0.005  14.925  0.0702  0.7505 -0.6599
11747TIP3    H156732   6.749  -0.010  14.833  0.4299 -0.2812 -0.5869
11747TIP3    H256733   6.838  -0.061  14.944 -0.3089  0.6881  0.4544
11748TIP3   OH256734   3.969   3.094  11.069  0.1707  0.1544  0.1611
11748TIP3    H156735   4.029   3.032  11.110  0.5250  0.5911  0.2981
11748TIP3    H256736   4.022   3.139  11.004 -0.3386 -0.4033 -0.6559
11749TIP3   OH256737   3.785   2.877   4.739 -0.3380  0.2837 -0.0000
11749TIP3    H156738   3.842   2.854   4.813  1.4090  0.3440 -1.2830
11749TIP3    H256739   3.781   2.796   4.688 -0.2398  0.6970 -0.6582
11750TIP3   OH256740   4.841   5.917  16.122 -0.5534 -0.1993 -0.8515
11750TIP3    H156741   4.921   5.937  16.171 -1.0163 -1.3841  0.4341
11750TIP3    H256742   4.785   5.994  16.134 -0.4231 -0.2308  0.0032
11751TIP3   OH256743   5.481   5.842  13.995  0.0910 -0.2944  1.0168
11751TIP3    H156744   5.433   5.816  14.073  1.9430 -1.5978  1.7793
11751TIP3    H256745   5.494   5.936  14.004 -3.1447  0.2565  0.2802
11752TIP3   OH256746   6.672   3.403  13.617  0.4823 -0.3881 -0.1165
11752TIP3    H156747   6.687   3.418  13.710  0.3898  2.8045 -0.5533
11752TIP3    H256748   6.754   3.367  13.585  0.4009 -1.8312  1.2500
11753TIP3   OH256749   3.374   6.659  15.236  0.4640  0.3895  0.0584
11753TIP3    H156750   3.464   6.645  15.207  0.7992  0.6685  0.9437
11753TIP3    H256751   3.337   6.717  15.170  0.2176 -1.5514 -1.5621
11754TIP3   OH256752   4.927   2.892  15.124 -0.0814  0.3499  0.2612
11754TIP3    H156753   4.930   2.858  15.213 -2.3046 -0.9647 -0.1370
11754TIP3    H256754   4.844   2.939  15.118 -0.8270 -1.1610 -1.6747
11755TIP3   OH256755   4.823   0.579  11.775 -0.5004 -0.0785 -0.4298
11755TIP3    H156756   4.807   0.673  11.770 -1.1473 -0.2483 -1.9413
11755TIP3    H256757   4.872   0.567  11.856  0.9502  1.7620 -0.9802
11756TIP3   OH256758   1.244   4.922   2.105 -0.1626  0.2977 -0.5109
11756TIP3    H156759   1.324   4.972   2.123  0.2076 -1.2933  2.5452
11756TIP3    H256760   1.178   4.989   2.088  1.4197  1.6769 -1.3978
11757TIP3   OH256761   2.640   2.696   3.176  0.0845 -0.3846 -0.7678
11757TIP3    H156762   2.556   2.726   3.141 -0.1218 -0.0744 -0.0202
11757TIP3    H256763   2.633   2.711   3.270  0.3187 -1.9870 -0.4851
11758TIP3   OH256764   0.615   6.048  15.809  0.2717 -0.5226  0.1066
11758TIP3    H156765   0.612   6.063  15.903 -1.0987 -1.9939  0.3316
11758TIP3    H256766   0.572   5.963  15.797 -1.3993  0.5553 -2.0174
11759TIP3   OH256767   4.306   2.936  14.212  0.1990 -0.2016 -0.2230
11759TIP3    H156768   4.252   2.986  14.151  0.2490  0.5589  0.3563
11759TIP3    H256769   4.391   2.980  14.212  0.3899 -0.5693 -0.0771
11760TIP3   OH256770   2.291   6.110  14.833 -0.0324  0.2281 -0.1012
11760TIP3    H156771   2.260   6.050  14.765 -1.4529 -0.0120  0.7463
11760TIP3    H256772   2.362   6.159  14.791 -0.3303 -0.5029 -1.4884
11761TIP3   OH256773   2.324   0.582  11.936 -0.0002  0.0019  0.1563
11761TIP3    H156774   2.317   0.539  12.021 -1.1239  0.3671  0.2515
11761TIP3    H256775   2.360   0.515  11.878  0.2397 -0.4191  0.7911
11762TIP3   OH256776   2.088   3.524   5.723 -0.3674  0.0198  0.3193
11762TIP3    H156777   2.000   3.496   5.747 -0.8018  0.6877 -0.5117
11762TIP3    H256778   2.132   3.443   5.696 -1.6047  0.0992 -2.0298
11763TIP3   OH256779   6.545   2.911   6.980 -0.0054  0.0355  0.0986
11763TIP3    H156780   6.612   2.972   7.011 -0.8896 -0.2556  2.7213
11763TIP3    H256781   6.579   2.825   7.004 -0.7197 -0.1951  0.2909
11764TIP3   OH256782   6.193   3.820   5.710 -0.4886  0.2615  0.5386
11764TIP3    H156783   6.131   3.819   5.784  0.2272  1.1308  1.1596
11764TIP3    H256784   6.157   3.756   5.648 -1.9221  0.6334  0.9629
11765TIP3   OH256785   2.092   5.698  10.880  0.6418  0.6040 -0.2180
11765TIP3    H156786   2.091   5.704  10.976  0.8098  2.0031 -0.2857
11765TIP3    H256787   2.157   5.632  10.860  0.0335 -0.2672  0.6651
11766TIP3   OH256788   2.550   5.367  15.735  0.3488  0.3644 -0.4071
11766TIP3    H156789   2.639   5.399  15.751  1.5274 -1.2409 -3.2965
11766TIP3    H256790   2.535   5.383  15.642 -2.1092 -0.1247 -0.1368
11767TIP3   OH256791   3.417   2.982   1.209  0.0437 -0.9984 -0.3052
11767TIP3    H156792   3.372   3.060   1.176 -0.3962 -1.5650 -1.0647
11767TIP3    H256793   3.505   3.012   1.229  0.1783 -0.5310 -1.5609
11768TIP3   OH256794   4.497   1.968  13.992  0.0578  0.5850 -0.3270
11768TIP3    H156795   4.527   2.015  14.070  0.1060 -0.0556  0.0405
11768TIP3    H256796   4.482   2.037  13.927 -0.7672  1.2011  0.5011
11769TIP3   OH256797   5.293   0.086  12.492 -0.2657  0.2326  0.1254
11769TIP3    H156798   5.274  -0.001  12.458 -0.0240 -0.6976  2.3083
11769TIP3    H256799   5.218   0.140  12.464  0.2993 -0.2904 -2.4897
11770TIP3   OH256800   2.069   4.761   1.464  0.3178  0.0336 -0.2151
11770TIP3    H156801   1.984   4.799   1.440  0.5660 -0.4718 -1.9447
11770TIP3    H256802   2.128   4.837   1.471  0.4975  0.1340 -2.3476
11771TIP3   OH256803   0.461   6.366  13.834  0.0045 -0.0919  0.2673
11771TIP3    H156804   0.411   6.431  13.883  2.1581 -0.2629  2.7991
11771TIP3    H256805   0.400   6.292  13.823 -0.2508 -0.4161  3.5263
11772TIP3   OH256806   6.524   1.019  14.105 -0.8897  0.4563  0.8386
11772TIP3    H156807   6.454   0.966  14.141 -0.5406 -1.1628 -0.7830
11772TIP3    H256808   6.604   0.979  14.138 -0.6336  0.3142  0.0451
11773TIP3   OH256809   4.764   5.976   6.415  0.5901 -0.8692 -0.2003
11773TIP3    H156810   4.720   6.037   6.475  1.2442 -0.0864 -0.5131
11773TIP3    H256811   4.736   5.889   6.445 -1.1472 -0.3912 -0.3708
11774TIP3   OH256812   0.210   3.793  16.471 -0.2245 -0.0650 -0.4176
11774TIP3    H156813   0.248   3.877  16.494  0.0732 -0.0713 -0.8906
11774TIP3    H256814   0.145   3.814  16.404  0.1925 -0.2753 -0.8828
11775TIP3   OH256815   6.457   4.423  16.816 -0.0119 -0.0781 -0.1577
11775TIP3    H156816   6.418   4.437  16.902 -0.8131  0.1876 -0.5651
11775TIP3    H256817   6.455   4.328  16.804  1.3129 -0.2228  0.6802
11776TIP3   OH256818   1.423   2.576   3.464 -0.6997 -0.9001 -0.0043
11776TIP3    H156819   1.403   2.659   3.421 -1.7702 -0.6578  0.9379
11776TIP3    H256820   1.502   2.594   3.515 -0.0637 -0.8845 -0.9872
11777TIP3   OH256821   5.546   1.761   5.263  0.3179 -0.0949  0.3127
11777TIP3    H156822   5.595   1.726   5.338 -1.7596 -2.7648  0.4687
11777TIP3    H256823   5.567   1.702   5.191 -0.6358  0.2569 -0.2636
11778TIP3   OH256824   0.006   0.822   0.574  0.0593 -0.1593  0.3414
11778TIP3    H156825   0.075   0.863   0.624  0.9630  1.2972 -2.0327
11778TIP3    H256826  -0.071   0.824   0.632  0.7532  2.5448  1.2152
11779TIP3   OH256827   3.206   0.322  12.522 -0.3316 -0.0658  0.3303
11779TIP3    H156828   3.165   0.329  12.608  0.0765 -0.2340  0.5401
11779TIP3    H256829   3.296   0.353  12.536 -0.6315  1.1339 -0.3117
11780TIP3   OH256830   1.613   5.589  17.117  0.1450  0.3907  0.1080
11780TIP3    H156831   1.592   5.520  17.055  0.2276 -1.1695  1.7850
11780TIP3    H256832   1.529   5.631  17.136 -0.0258  0.2295 -0.2871
11781TIP3   OH256833   4.381   3.604   5.478  0.4477 -0.1062 -0.0720
11781TIP3    H156834   4.309   3.548   5.507 -0.2731  0.8053 -0.0841
11781TIP3    H256835   4.361   3.624   5.387  0.0218  1.2337  0.3099
11782TIP3   OH256836   4.075   6.642  14.086 -0.1563 -0.0268 -0.1568
11782TIP3    H156837   4.161   6.604  14.101  0.1104  0.8845  0.6596
11782TIP3    H256838   4.059   6.631  13.992  1.0055  0.1212 -0.3733
11783TIP3   OH256839   6.363   6.198   3.685  0.0042 -1.0176  0.5073
11783TIP3    H156840   6.329   6.176   3.598  0.2127 -1.5794  0.5658
11783TIP3    H256841   6.285   6.213   3.738 -0.1360 -1.3840  0.4037
11784TIP3   OH256842   2.191   1.795   2.459 -0.3932 -0.4305 -0.0558
11784TIP3    H156843   2.282   1.772   2.443 -0.2226  0.1531  0.0598
11784TIP3    H256844   2.195   1.867   2.521 -0.9976 -1.7631  1.5628
11785TIP3   OH256845   0.976   0.939   1.471 -0.0624 -0.1194 -0.3989
11785TIP3    H156846   1.045   0.899   1.523  0.4185 -0.5305 -1.3494
11785TIP3    H256847   0.941   0.867   1.418  1.7892  0.9758 -3.2015
11786TIP3   OH256848   6.129   1.088   0.082 -0.8442 -0.3101  0.2316
11786TIP3    H156849   6.192   1.017   0.071 -0.8092 -0.3668  0.7526
11786TIP3    H256850   6.176   1.166   0.053 -0.3408 -0.2735  1.1371
11787TIP3   OH256851   4.373   2.474  11.807 -0.3602  0.1321  0.2207
11787TIP3    H156852   4.329   2.391  11.790  0.6591 -0.3558 -0.0955
11787TIP3    H256853   4.337   2.534  11.741 -1.6288  0.1456  0.9132
11788TIP3   OH256854   0.593   0.813  14.397 -0.2922 -0.1652  0.4382
11788TIP3    H156855   0.577   0.724  14.364 -0.9646  0.7661 -1.8519
11788TIP3    H256856   0.639   0.800  14.480 -0.4887 -2.6558  0.1929
11789TIP3   OH256857   0.288   4.273  13.274 -0.3179  0.4886  0.2851
11789TIP3    H156858   0.226   4.324  13.327  1.8460  1.0433  2.3846
11789TIP3    H256859   0.341   4.340  13.230 -0.1876  0.0321 -0.2472
11790TIP3   OH256860   2.931   2.803   5.341 -0.5615 -0.2239 -0.5984
11790TIP3    H156861   2.851   2.822   5.390 -0.7031  0.1134 -0.9510
11790TIP3    H256862   2.969   2.889   5.323 -0.0798 -0.3890 -0.3643
11791TIP3   OH256863   5.904   4.997  13.786 -0.7018  0.0003  0.0387
11791TIP3    H156864   5.947   5.080  13.763  1.5037 -1.3561 -0.8136
11791TIP3    H256865   5.905   4.995  13.882 -1.5792  1.3395  0.1039
11792TIP3   OH256866   1.060   3.360  16.941 -0.0056 -0.6124  0.7641
11792TIP3    H156867   1.107   3.323  16.866  0.9708  0.3706  0.8895
11792TIP3    H256868   0.985   3.301  16.954  0.3069 -1.2764 -0.4325
11793TIP3   OH256869   5.772   0.967  15.151  0.2030  0.2917 -0.1290
11793TIP3    H156870   5.819   0.884  15.161  1.7489  1.1382 -0.2697
11793TIP3    H256871   5.794   1.017  15.230 -3.6676 -0.8057  1.7794
11794TIP3   OH256872   3.079   1.055   4.193 -0.3900 -0.1930  0.1942
11794TIP3    H156873   3.082   1.071   4.098  1.1656  0.6853  0.3791
11794TIP3    H256874   3.166   1.024   4.215 -0.9070 -0.9175  1.2654
11795TIP3   OH256875   3.766   5.508   1.507 -0.2286  0.5945 -0.1184
11795TIP3    H156876   3.862   5.510   1.501 -0.1977 -0.3413  0.1144
11795TIP3    H256877   3.738   5.583   1.454  0.4889 -1.0595 -2.9196
11796TIP3   OH256878   6.788   6.386   2.393  0.4492  0.1291  0.1244
11796TIP3    H156879   6.822   6.358   2.478  0.8709 -0.5067 -0.2422
11796TIP3    H256880   6.693   6.373   2.400  0.4501  0.3678  0.6014
11797TIP3   OH256881   2.688   3.528   5.712 -0.1608 -0.2499  0.2768
11797TIP3    H156882   2.744   3.508   5.787  0.2691 -1.0007 -0.2331
11797TIP3    H256883   2.612   3.471   5.722 -1.0284  1.0549  1.1802
11798TIP3   OH256884   6.543   2.601  13.958  0.0358 -0.3063 -0.0608
11798TIP3    H156885   6.566   2.575  14.048 -0.0197  1.7348  0.5615
11798TIP3    H256886   6.480   2.672  13.969 -1.4201 -1.3060 -1.7466
11799TIP3   OH256887   2.998   3.209  12.401  0.3512  0.7407 -0.9824
11799TIP3    H156888   3.007   3.299  12.432 -1.4796  0.8750 -0.7720
11799TIP3    H256889   3.068   3.161  12.445 -0.5258  1.4602  1.2688
11800TIP3   OH256890   3.007   3.827  11.529  0.1466 -0.5581 -0.3044
11800TIP3    H156891   2.974   3.854  11.615  2.9328  0.6846  0.4588
11800TIP3    H256892   3.003   3.731  11.530  1.4056 -0.6126  1.7701
11801TIP3   OH256893   2.442   0.609  15.565  0.0117 -0.0781  0.0117
11801TIP3    H156894   2.489   0.547  15.621  0.3454  1.1131  1.0818
11801TIP3    H256895   2.413   0.678  15.625  2.2290  2.3393 -1.5740
11802TIP3   OH256896   2.109   0.001   5.260  0.3670 -0.1931 -0.1173
11802TIP3    H156897   2.114   0.091   5.227  0.7806 -0.4793 -0.8164
11802TIP3    H256898   2.064  -0.048   5.191 -1.2093 -0.2194  0.8884
11803TIP3   OH256899   1.125   6.099  16.761  0.1796 -0.2266  0.2576
11803TIP3    H156900   1.081   6.016  16.741 -0.1686 -0.5232  2.1260
11803TIP3    H256901   1.066   6.143  16.822  1.8284 -0.0320  1.7628
11804TIP3   OH256902   3.476   5.859  12.138 -0.1280 -0.0635  0.0875
11804TIP3    H156903   3.535   5.858  12.063 -1.6896 -0.4834 -1.1587
11804TIP3    H256904   3.411   5.926  12.116  2.0103  3.2681  3.1854
11805TIP3   OH256905   4.680   3.713  15.770 -0.2097  0.4613 -0.2372
11805TIP3    H156906   4.604   3.690  15.716 -0.9749  2.0936  0.1143
11805TIP3    H256907   4.740   3.756  15.709 -1.1245  2.4138  0.1879
11806TIP3   OH256908   5.704   0.356  15.728  0.1774 -0.0691 -0.0190
11806TIP3    H156909   5.711   0.450  15.741 -0.6674 -0.1265  0.9191
11806TIP3    H256910   5.777   0.319  15.779 -0.3739 -0.0054  0.8301
11807TIP3   OH256911   3.134   0.471   4.989  0.1251  0.1935 -0.2803
11807TIP3    H156912   3.088   0.515   4.917 -0.3720  0.1287 -0.0021
11807TIP3    H256913   3.089   0.501   5.068 -1.4483 -2.2745 -0.1811
11808TIP3   OH256914   4.007   2.333  14.486 -0.2313  0.0623 -0.8440
11808TIP3    H156915   3.943   2.394  14.449 -0.9121 -0.5830 -0.7418
11808TIP3    H256916   3.970   2.308  14.570 -0.2814 -0.9993 -1.1703
11809TIP3   OH256917   0.588   0.993  13.695  0.5101 -0.4308 -0.0315
11809TIP3    H156918   0.630   1.077  13.715  0.5226 -0.4695  0.1005
11809TIP3    H256919   0.619   0.972  13.607  1.0319 -0.6261  0.2015
11810TIP3   OH256920   4.650   2.525  12.259 -0.0370 -0.1906 -0.4818
11810TIP3    H156921   4.587   2.538  12.189  0.0098  0.8049 -0.3444
11810TIP3    H256922   4.605   2.468  12.322 -1.8609  2.6891  0.9385
11811TIP3   OH256923   3.463   3.124  14.623 -0.2964 -0.4045 -0.3445
11811TIP3    H156924   3.494   3.113  14.533 -0.0586  0.5127 -0.3763
11811TIP3    H256925   3.502   3.206  14.652 -0.6229 -0.5424  0.4947
11812TIP3   OH256926   4.428   5.850  11.810  0.0001  0.3872 -0.0686
11812TIP3    H156927   4.439   5.798  11.731 -1.5594 -1.4017  0.8517
11812TIP3    H256928   4.351   5.905  11.792 -0.4117 -0.0892  0.2470
11813TIP3   OH256929   3.161   6.282  10.370  0.3163 -0.8444 -0.3860
11813TIP3    H156930   3.091   6.289  10.436  0.5983 -2.3657  0.0821
11813TIP3    H256931   3.116   6.254  10.290  0.2589 -0.9559 -0.3131
11814TIP3   OH256932   0.410   3.261   1.884  0.0756 -0.4833 -0.0831
11814TIP3    H156933   0.480   3.326   1.888  1.1140 -1.6137  0.3165
11814TIP3    H256934   0.341   3.298   1.940  0.1785  0.8238 -0.7997
11815TIP3   OH256935   2.342   6.330   1.491 -0.6336  0.5280 -0.8952
11815TIP3    H156936   2.246   6.335   1.488 -0.7742 -0.9791  0.3275
11815TIP3    H256937   2.368   6.405   1.545 -1.3250 -0.5106  0.9407
11816TIP3   OH256938   6.803   6.090  15.610  0.4655  0.6862 -0.8013
11816TIP3    H156939   6.887   6.118  15.573  0.3255  2.4730  0.2069
11816TIP3    H256940   6.811   6.108  15.704 -0.2820 -1.0808 -0.3680
11817TIP3   OH256941   1.648   2.320   3.658 -0.0781  0.5547 -0.1735
11817TIP3    H156942   1.597   2.303   3.579 -1.0459 -0.6405  0.6832
11817TIP3    H256943   1.679   2.233   3.686  0.7392  1.0264  0.4364
11818TIP3   OH256944   2.382   1.165  14.338 -0.6959 -0.3806  0.3092
11818TIP3    H156945   2.461   1.183  14.287  0.5709 -2.3533  1.5034
11818TIP3    H256946   2.340   1.251  14.347 -0.9255  0.0548 -3.8887
11819TIP3   OH256947   6.113   0.229   2.912 -0.6048 -0.3001  0.2461
11819TIP3    H156948   6.183   0.273   2.960 -1.0767 -0.2491  0.8953
11819TIP3    H256949   6.157   0.190   2.836  0.1685 -0.4492  0.7590
11820TIP3   OH256950   4.797   1.301  14.961  0.5300  0.4778  0.5070
11820TIP3    H156951   4.855   1.377  14.965 -0.2893  1.0395  1.9115
11820TIP3    H256952   4.775   1.282  15.052 -2.1347  0.7551 -0.0343
11821TIP3   OH256953   6.080   6.214  13.598  0.5060  0.6527 -0.4008
11821TIP3    H156954   6.141   6.262  13.653  1.3686 -0.9493  0.0683
11821TIP3    H256955   6.034   6.155  13.658  2.0256 -1.6774 -1.4889
11822TIP3   OH256956   1.097   0.208   1.508 -0.2980  0.2066  0.8970
11822TIP3    H156957   1.041   0.283   1.528  0.0771  0.5427  0.6857
11822TIP3    H256958   1.082   0.147   1.580 -0.5501  0.5147  1.1064
11823TIP3   OH256959   6.393   2.165  15.172 -0.1515  0.3104  0.4606
11823TIP3    H156960   6.379   2.084  15.124  1.5153  0.8055 -0.9148
11823TIP3    H256961   6.372   2.143  15.263  0.8641 -1.8367  0.2040
11824TIP3   OH256962   5.451   5.727   4.648 -0.5720  0.3921 -0.4930
11824TIP3    H156963   5.464   5.736   4.742 -0.4216 -0.0530 -0.4671
11824TIP3    H256964   5.381   5.789   4.627  0.6461  1.8157 -0.4054
11825TIP3   OH256965   0.029   2.132   3.215  0.0741  0.6198  0.4035
11825TIP3    H156966   0.112   2.152   3.171 -0.9294 -0.4821 -2.0873
11825TIP3    H256967  -0.032   2.198   3.181 -0.6121  0.0248  0.4672
11826TIP3   OH256968   4.575   0.717   2.857  0.1274  0.1897  0.5137
11826TIP3    H156969   4.610   0.663   2.787 -1.1294 -0.1245  0.1275
11826TIP3    H256970   4.653   0.754   2.899  0.8879  0.3015 -0.9617
11827TIP3   OH256971   4.533   3.125   1.653  0.5184 -0.0375 -0.1310
11827TIP3    H156972   4.476   3.078   1.713  1.8203  0.2257  1.3493
11827TIP3    H256973   4.562   3.059   1.590 -1.2385 -0.2120 -0.7676
11828TIP3   OH256974   6.275   2.323  11.995  0.1255 -0.7833 -0.1553
11828TIP3    H156975   6.319   2.238  12.002 -1.1134 -1.5497 -1.3924
11828TIP3    H256976   6.192   2.312  12.042 -0.1488 -0.3424 -0.5270
11829TIP3   OH256977   3.227   3.463  16.670 -0.2825  0.4238 -0.2586
11829TIP3    H156978   3.174   3.384  16.659 -1.0578  1.0064 -0.7794
11829TIP3    H256979   3.169   3.525  16.715 -0.0223  1.0383 -0.7539
11830TIP3   OH256980   5.004   1.045   5.216  0.4596  0.1772  0.1288
11830TIP3    H156981   5.018   0.986   5.142 -1.7641 -0.2995  0.0397
11830TIP3    H256982   4.998   0.986   5.292  1.6842  0.5765  0.5352
11831TIP3   OH256983   0.230   5.789  16.854  0.2363  0.3988 -0.5386
11831TIP3    H156984   0.302   5.761  16.911 -0.3380  1.1243  0.5520
11831TIP3    H256985   0.262   5.772  16.765  0.6041 -2.0601  0.0263
11832TIP3   OH256986   0.817   0.420  14.373  0.5293  0.0532 -0.0060
11832TIP3    H156987   0.820   0.396  14.466  2.1771 -0.0030 -0.0713
11832TIP3    H256988   0.908   0.423  14.346  0.1133  1.3397 -1.3088
11833TIP3   OH256989   0.842   4.779   1.791  0.3180  0.0719 -0.0136
11833TIP3    H156990   0.913   4.751   1.733 -0.3761 -0.3203 -0.6814
11833TIP3    H256991   0.763   4.742   1.752 -0.4086  1.4952  0.0663
11834TIP3   OH256992   2.293   6.401  12.729 -0.4831 -0.1470  0.0240
11834TIP3    H156993   2.242   6.322  12.746 -0.3507  0.0854  1.6096
11834TIP3    H256994   2.281   6.418  12.636 -1.0602 -1.6501 -0.1835
11835TIP3   OH256995   0.606   4.273  16.880  0.1562 -0.2474  0.6301
11835TIP3    H156996   0.580   4.365  16.881  0.2157 -0.2322  0.7711
11835TIP3    H256997   0.548   4.232  16.816 -1.0075 -0.4428  1.8003
11836TIP3   OH256998   2.203   5.073   6.184 -0.0698  0.2161 -0.6066
11836TIP3    H156999   2.297   5.054   6.178 -0.0176 -0.3765  1.8816
11836TIP3    H257000   2.160   4.989   6.164 -0.0478  0.1239 -0.2607
11837TIP3   OH257001   1.758   4.422   4.405  0.1350 -0.1003  0.1667
11837TIP3    H157002   1.766   4.452   4.495 -1.8947 -0.0107  0.3432
11837TIP3    H257003   1.677   4.371   4.403  0.7825 -1.1450 -1.3369
11838TIP3   OH257004   1.155   1.291   3.322 -0.0951 -0.0640  0.2184
11838TIP3    H157005   1.070   1.317   3.286 -0.2039 -2.9458 -1.8026
11838TIP3    H257006   1.133   1.234   3.396  0.0873 -0.1396  0.2139
11839TIP3   OH257007   4.591   5.875   5.396  0.4086  0.5478  0.0702
11839TIP3    H157008   4.614   5.880   5.303  1.8008 -1.1725  0.2973
11839TIP3    H257009   4.591   5.966   5.425 -1.2897  1.2070 -1.8861
11840TIP3   OH257010   6.024   3.427   4.593  0.0906  0.0850 -0.2035
11840TIP3    H157011   5.992   3.373   4.522  0.1211  0.1850 -0.2935
11840TIP3    H257012   6.108   3.462   4.562 -0.3711  0.9341 -0.5216
11841TIP3   OH257013   3.193   6.781  16.286 -0.3162 -0.2026  0.2248
11841TIP3    H157014   3.126   6.774  16.218 -0.8791  0.4437  0.7102
11841TIP3    H257015   3.266   6.728  16.253  0.1353  1.5602 -1.7384
11842TIP3   OH257016   5.858   1.398  10.918 -0.2974  0.2059 -0.0200
11842TIP3    H157017   5.950   1.403  10.893  0.1820 -3.0538  0.9197
11842TIP3    H257018   5.859   1.375  11.011 -2.0666  0.5113  0.1007
11843TIP3   OH257019   5.088   0.502   3.625 -0.0729 -0.0571 -0.0080
11843TIP3    H157020   5.099   0.556   3.704 -0.8715 -1.3263  0.9860
11843TIP3    H257021   5.162   0.528   3.569  0.4796  0.9004  1.1214
11844TIP3   OH257022   2.831   3.441   5.961 -0.4027  0.3115  0.3562
11844TIP3    H157023   2.792   3.356   5.940 -0.7118  0.6569 -0.5196
11844TIP3    H257024   2.926   3.425   5.960 -0.3879  0.3532 -1.6302
11845TIP3   OH257025   3.858   1.741  15.313  0.3128  0.3121  0.2346
11845TIP3    H157026   3.804   1.713  15.239 -0.1661  1.0240  0.3113
11845TIP3    H257027   3.795   1.765  15.381  0.7563 -0.5241  0.9417
11846TIP3   OH257028   6.453   0.260   5.867 -0.3263 -0.5657  0.1622
11846TIP3    H157029   6.390   0.319   5.907 -2.0148 -1.9933 -0.3726
11846TIP3    H257030   6.450   0.281   5.774  1.1567  0.4335  0.3117
11847TIP3   OH257031   5.128   0.621   2.035  0.2129 -0.2635  0.1322
11847TIP3    H157032   5.155   0.575   2.115  0.2319 -0.6109 -0.0691
11847TIP3    H257033   5.181   0.580   1.966 -0.1929 -0.3413 -0.1362
11848TIP3   OH257034   2.906   2.995   1.018 -0.1378 -0.9225  0.6233
11848TIP3    H157035   2.856   3.035   0.947 -0.4028  0.0302  1.3212
11848TIP3    H257036   2.994   2.985   0.984 -0.8450 -2.8509 -0.7107
11849TIP3   OH257037   5.148   0.802   5.911 -0.3449  0.0139  0.0357
11849TIP3    H157038   5.199   0.723   5.930 -1.5561 -1.1811 -1.5503
11849TIP3    H257039   5.214   0.871   5.904  0.8984 -1.1714 -0.2549
11850TIP3   OH257040   5.483   1.715   2.385 -0.1641 -0.5453 -0.0788
11850TIP3    H157041   5.548   1.692   2.451 -0.5563 -0.0985  0.4664
11850TIP3    H257042   5.523   1.689   2.301  0.5003 -0.7287  0.2940
11851TIP3   OH257043   0.701   5.491  14.795  0.0032  0.0446 -0.4959
11851TIP3    H157044   0.642   5.525  14.727  0.5714 -0.8533 -1.4573
11851TIP3    H257045   0.644   5.442  14.854 -0.4821  0.7510 -0.3622
11852TIP3   OH257046   0.226   5.203  14.377  0.0524 -0.0592 -0.1079
11852TIP3    H157047   0.230   5.281  14.433 -1.6823 -0.6242  0.8287
11852TIP3    H257048   0.148   5.216  14.324 -1.5184 -2.1648  1.6110
11853TIP3   OH257049   5.107   3.690  15.482 -0.0554  0.0253 -0.3413
11853TIP3    H157050   5.123   3.764  15.423  0.6375  0.0192 -0.1654
11853TIP3    H257051   5.069   3.623  15.427 -1.1854  0.7066 -0.3979
11854TIP3   OH257052   3.967   4.118  11.426 -0.5010  0.5108  0.2953
11854TIP3    H157053   4.047   4.122  11.374 -0.7918 -1.4363 -0.3566
11854TIP3    H257054   3.955   4.025  11.445 -1.9509  0.8967  1.4281
11855TIP3   OH257055   0.586   1.865  14.671 -0.9570 -0.0796  0.1027
11855TIP3    H157056   0.493   1.887  14.680 -0.2490  2.8621  1.0368
11855TIP3    H257057   0.629   1.921  14.736  1.3495 -2.3869  0.6165
11856TIP3   OH257058   6.741   6.345  12.702  0.3851  0.7471 -0.1472
11856TIP3    H157059   6.745   6.412  12.771 -1.1294 -0.2651  0.9703
11856TIP3    H257060   6.829   6.306  12.701  0.3081  0.5112  1.4896
11857TIP3   OH257061   2.653   5.892  15.439  0.8844  0.0509  0.1364
11857TIP3    H157062   2.630   5.869  15.350 -0.8701 -0.0238  0.6030
11857TIP3    H257063   2.738   5.936  15.431  0.2084  1.0724 -1.6872
11858TIP3   OH257064   5.769   6.817   3.749 -0.0687  0.5536  0.3833
11858TIP3    H157065   5.729   6.732   3.767  0.7186  0.3559  1.2240
11858TIP3    H257066   5.810   6.842   3.832  0.3959  1.3780 -0.0911
11859TIP3   OH257067   2.804   4.050  14.741 -0.6590  0.1695  0.5650
11859TIP3    H157068   2.822   4.142  14.758 -2.4065  1.0833 -2.1672
11859TIP3    H257069   2.886   4.015  14.706  0.1829  0.4963  2.1521
11860TIP3   OH257070   4.544   2.819  15.859 -0.5490 -0.3081 -1.0148
11860TIP3    H157071   4.505   2.902  15.887  0.9330  0.2034 -0.3798
11860TIP3    H257072   4.487   2.752  15.897 -1.7917  0.4129 -1.5807
11861TIP3   OH257073   2.910   3.812   2.457 -0.5157  0.0295  0.2838
11861TIP3    H157074   2.997   3.778   2.435 -0.7310  0.0640 -0.6790
11861TIP3    H257075   2.908   3.814   2.552  0.3003 -0.5974  0.3227
11862TIP3   OH257076   1.085   4.849   4.351  0.5522 -0.4194  0.2442
11862TIP3    H157077   1.081   4.789   4.277  1.0287 -0.0469 -0.0846
11862TIP3    H257078   1.038   4.804   4.421 -2.4768  0.4500 -1.1405
11863TIP3   OH257079   0.791   5.608  11.347  0.3327 -0.2020 -0.0338
11863TIP3    H157080   0.851   5.534  11.355 -0.2990 -0.5625  1.4721
11863TIP3    H257081   0.704   5.569  11.356 -0.0945  0.4452 -1.2770
11864TIP3   OH257082   6.354   0.854   0.882  0.1626 -0.2759 -0.0612
11864TIP3    H157083   6.285   0.792   0.906  1.6998 -2.2916 -0.6592
11864TIP3    H257084   6.310   0.939   0.881 -1.6253 -1.1163  2.4029
11865TIP3   OH257085   5.735   5.637  14.863  0.1041 -0.2520 -0.2262
11865TIP3    H157086   5.776   5.704  14.809 -0.5757 -1.5541 -2.4292
11865TIP3    H257087   5.773   5.555  14.832 -2.0138 -1.2206 -0.3577
11866TIP3   OH257088   6.154   3.554   1.250 -0.3115  0.8863 -0.9489
11866TIP3    H157089   6.232   3.606   1.267 -0.6875  0.9953  0.5908
11866TIP3    H257090   6.106   3.556   1.333 -1.2782 -0.2999 -1.4631
11867TIP3   OH257091   4.208   0.645   0.317 -0.2149  0.2318 -0.1702
11867TIP3    H157092   4.240   0.556   0.333 -0.3129  0.4669  1.4673
11867TIP3    H257093   4.264   0.679   0.248  0.9911 -0.4762  0.4483
11868TIP3   OH257094   2.676   4.366   3.240 -0.3005 -0.3084  0.2159
11868TIP3    H157095   2.704   4.348   3.330  0.3014 -0.6890 -0.0434
11868TIP3    H257096   2.637   4.453   3.244 -0.1729 -0.2740  0.8228
11869TIP3   OH257097   0.055   6.375   5.784 -0.0366 -0.1260  0.4967
11869TIP3    H157098  -0.009   6.441   5.758 -4.4192 -3.8632  1.1235
11869TIP3    H257099   0.084   6.336   5.701 -0.4791 -0.0572  0.3071
11870TIP3   OH257100   4.944   1.471  12.881  0.9395  0.2643 -0.2705
11870TIP3    H157101   4.899   1.533  12.939 -0.3936 -1.6499  0.7860
11870TIP3    H257102   4.931   1.505  12.793  2.4604  2.8945  0.4540
11871TIP3   OH257103   4.723   1.668  11.462  0.6075  0.5024 -1.0962
11871TIP3    H157104   4.779   1.595  11.436  0.0891 -0.1927 -0.3059
11871TIP3    H257105   4.634   1.632  11.459  0.3088  1.2250 -1.1023
11872TIP3   OH257106   0.887   4.442   4.847 -0.6033 -0.5391  0.0712
11872TIP3    H157107   0.872   4.350   4.822 -2.5711 -0.3920  0.6912
11872TIP3    H257108   0.824   4.492   4.796  2.1634  0.7937 -2.2236
11873TIP3   OH257109   2.382   6.781   4.974  0.5310  0.1286  0.0921
11873TIP3    H157110   2.316   6.843   4.944 -0.6089 -0.8250  0.5955
11873TIP3    H257111   2.332   6.706   5.007  1.8288 -0.1370  1.5061
11874TIP3   OH257112   0.165   1.527  15.445  0.7037 -0.2114  0.5756
11874TIP3    H157113   0.118   1.446  15.421 -0.1817 -0.3805  2.7187
11874TIP3    H257114   0.257   1.504  15.437  0.5450  0.3250 -4.4069
11875TIP3   OH257115   3.871   2.870  13.117 -0.2801 -0.1264 -1.0089
11875TIP3    H157116   3.914   2.893  13.035  1.5011  1.2484  0.2703
11875TIP3    H257117   3.906   2.783  13.138  0.8881  0.4186 -0.6531
11876TIP3   OH257118   2.600   0.568  13.173  0.5159 -0.1222  0.1321
11876TIP3    H157119   2.629   0.590  13.261  0.4679 -2.4128  0.7442
11876TIP3    H257120   2.515   0.612  13.165  0.4851  0.0429  1.2329
11877TIP3   OH257121   4.540   3.097  14.236 -0.6123 -0.0988 -0.3666
11877TIP3    H157122   4.535   3.158  14.162 -1.2583 -1.7577 -1.7270
11877TIP3    H257123   4.631   3.103  14.266 -0.7084  1.6301 -0.3865
11878TIP3   OH257124   5.028   1.876  16.296  0.0370  0.1566  0.3030
11878TIP3    H157125   4.993   1.830  16.373  1.1022 -1.7475 -0.3174
11878TIP3    H257126   4.951   1.920  16.259 -1.1503 -1.6186  0.5857
11879TIP3   OH257127   0.037   6.765   5.872 -0.8205  0.1001  0.5749
11879TIP3    H157128   0.002   6.790   5.786  1.3572 -1.3078 -0.7816
11879TIP3    H257129   0.122   6.726   5.852  0.5377  1.4002  3.5541
11880TIP3   OH257130   2.825   0.986   5.786  0.0592 -1.0379  0.4170
11880TIP3    H157131   2.792   0.937   5.711  1.1200 -0.0109 -0.7565
11880TIP3    H257132   2.896   1.039   5.750 -0.7493  1.0059  1.7509
11881TIP3   OH257133   4.256   2.417  15.107 -0.2754 -0.1836 -0.1036
11881TIP3    H157134   4.321   2.388  15.171 -0.3002 -2.4464 -1.0539
11881TIP3    H257135   4.303   2.479  15.051  1.0596 -1.7308 -0.7334
11882TIP3   OH257136   1.697   6.615   5.116  0.0621  0.5807  0.3612
11882TIP3    H157137   1.655   6.687   5.069  0.7693  1.8687  1.6459
11882TIP3    H257138   1.755   6.658   5.178  4.5484 -1.0783 -2.3804
11883TIP3   OH257139   4.108   0.231   5.780 -0.3476 -0.1060 -0.4452
11883TIP3    H157140   4.100   0.219   5.685 -1.7409  1.5924 -0.5735
11883TIP3    H257141   4.029   0.191   5.816 -1.1653  1.6307 -0.2556
11884TIP3   OH257142   1.003   6.744   2.715 -0.0347  0.2983  0.5863
11884TIP3    H157143   1.015   6.680   2.645 -0.6836 -0.4409  1.1377
11884TIP3    H257144   1.060   6.817   2.692  0.2760 -0.2401 -0.3479
11885TIP3   OH257145   0.868   0.622  13.066 -0.4706  0.1582 -0.4582
11885TIP3    H157146   0.917   0.557  13.016 -2.2854 -2.2425  0.7581
11885TIP3    H257147   0.779   0.618  13.030 -0.1998  3.3555 -1.6204
11886TIP3   OH257148   5.010   3.964   1.799  0.0368 -0.0778  0.0009
11886TIP3    H157149   5.033   4.055   1.780 -0.8614  0.6641  2.3561
11886TIP3    H257150   4.937   3.944   1.739 -0.4887  1.1103  0.2392
11887TIP3   OH257151   5.264   0.598   0.474 -0.3493  0.2596 -0.3580
11887TIP3    H157152   5.319   0.600   0.396 -0.7677 -1.1637 -0.7035
11887TIP3    H257153   5.292   0.520   0.522 -0.5653  0.7382  0.5706
11888TIP3   OH257154   0.929   0.856   1.035  0.7537 -0.4579 -0.1403
11888TIP3    H157155   0.957   0.765   1.047  0.3806 -0.6369 -0.5867
11888TIP3    H257156   1.001   0.908   1.071  1.1691 -0.9241 -0.2758
11889TIP3   OH257157   5.437   6.042   5.684 -0.1681  0.3130  0.1783
11889TIP3    H157158   5.411   6.031   5.775  0.5345  0.4543  0.4010
11889TIP3    H257159   5.509   5.980   5.672  1.5646  2.2151  0.4965
11890TIP3   OH257160   2.094   0.915  11.527 -0.5184 -0.2291  0.6189
11890TIP3    H157161   2.093   0.963  11.444 -0.9023  1.3524  1.5267
11890TIP3    H257162   2.187   0.908  11.549 -0.5635  2.8239  2.0051
11891TIP3   OH257163   6.356   5.595   4.021  0.8014 -0.2344  0.0102
11891TIP3    H157164   6.312   5.524   4.067 -1.0780 -0.6057 -2.3275
11891TIP3    H257165   6.420   5.551   3.964  1.7820  0.1290  0.8129
11892TIP3   OH257166   4.210   5.039  10.936 -0.4478  0.0143  0.4002
11892TIP3    H157167   4.207   4.950  10.899 -0.2472 -0.0876  0.6266
11892TIP3    H257168   4.125   5.077  10.914 -1.1379 -0.7683  1.6171
11893TIP3   OH257169   1.795   4.202  15.496 -0.3153 -0.1738  0.1620
11893TIP3    H157170   1.734   4.240  15.560  0.7489  1.1435  0.4168
11893TIP3    H257171   1.881   4.224  15.529  0.2651  0.2872 -1.5910
11894TIP3   OH257172   1.858   2.071   0.895  0.4737 -0.2566 -0.3570
11894TIP3    H157173   1.948   2.063   0.924  0.1311 -0.9934  0.5532
11894TIP3    H257174   1.862   2.061   0.800  1.3090 -0.6588 -0.2847
11895TIP3   OH257175   5.356   0.297  16.069  0.5238 -0.1615 -0.2830
11895TIP3    H157176   5.424   0.364  16.061 -1.3309  1.6345 -1.5177
11895TIP3    H257177   5.317   0.292  15.982 -1.8640 -0.1209  0.7421
11896TIP3   OH257178   0.588   3.588   5.646 -0.2441 -0.0230 -0.4334
11896TIP3    H157179   0.519   3.623   5.703 -0.1952  0.4718 -0.6738
11896TIP3    H257180   0.554   3.603   5.557 -0.9837 -2.1049 -0.5325
11897TIP3   OH257181   0.770   3.305  11.197 -0.2520 -0.1517  0.4343
11897TIP3    H157182   0.757   3.212  11.215 -3.3878  0.5381  2.1494
11897TIP3    H257183   0.804   3.308  11.107  0.1098 -2.9374  0.4504
11898TIP3   OH257184   6.250   5.580  15.393  0.2850  0.1589 -0.4695
11898TIP3    H157185   6.275   5.526  15.318 -1.2354 -1.4432  0.1198
11898TIP3    H257186   6.269   5.670  15.366 -2.0780 -0.1923 -3.5435
11899TIP3   OH257187   5.542   4.173  14.707  0.9272 -0.2378  0.0379
11899TIP3    H157188   5.539   4.251  14.650  1.1625  1.0372  1.7168
11899TIP3    H257189   5.453   4.166  14.742  0.9476 -0.6366  0.0034
11900TIP3   OH257190   6.048   5.576   3.475  0.4182  0.1894 -0.4736
11900TIP3    H157191   6.042   5.487   3.510  1.5065 -0.0819 -0.9715
11900TIP3    H257192   6.081   5.629   3.548  0.2693  0.0856 -0.3327
11901TIP3   OH257193   4.741   4.552   3.776  0.2511 -0.0605  0.0678
11901TIP3    H157194   4.748   4.460   3.802 -2.3772  0.2120  1.8642
11901TIP3    H257195   4.794   4.599   3.841  0.1013 -0.1238  0.2355
11902TIP3   OH257196   3.110   2.118  14.874 -0.1189  0.4382  0.1269
11902TIP3    H157197   3.065   2.164  14.803  0.2015 -0.8097 -0.8983
11902TIP3    H257198   3.041   2.094  14.936 -0.1917  3.0403  1.1303
11903TIP3   OH257199   0.531   2.861   1.492  0.1887 -0.2848 -0.1753
11903TIP3    H157200   0.443   2.862   1.455  0.7697 -1.0597 -1.6097
11903TIP3    H257201   0.590   2.858   1.416  1.4735  0.7872  0.7481
11904TIP3   OH257202   0.785   0.747   3.159  0.4665 -0.0540  0.3021
11904TIP3    H157203   0.824   0.699   3.233 -0.3450 -0.9492  0.1550
11904TIP3    H257204   0.752   0.827   3.198 -1.4825 -1.2848  1.2471
11905TIP3   OH257205   1.556   0.675   5.447 -0.3744  0.6386  0.5198
11905TIP3    H157206   1.497   0.698   5.519 -1.3619  1.1543 -0.4487
11905TIP3    H257207   1.643   0.684   5.484 -0.8985 -0.6210  2.1271
11906TIP3   OH257208   0.947   0.363  12.909 -0.1355  0.8376 -0.0310
11906TIP3    H157209   1.014   0.429  12.928  0.4965  0.0482  0.5114
11906TIP3    H257210   0.964   0.293  12.972 -0.4034 -0.1290 -1.0246
11907TIP3   OH257211   6.339   1.536  16.812  0.2093  0.4562  0.2696
11907TIP3    H157212   6.389   1.459  16.786  0.9051  0.7462  0.7557
11907TIP3    H257213   6.364   1.603  16.750 -3.0694 -0.6678 -2.3977
11908TIP3   OH257214   2.234   1.913  15.675  0.0404  0.3762 -0.2754
11908TIP3    H157215   2.300   1.865  15.626 -0.8014 -0.5245 -0.5478
11908TIP3    H257216   2.151   1.875  15.648 -0.5730  1.2374  0.3421
11909TIP3   OH257217   2.033   4.642   4.577  1.1714  0.1584  0.6425
11909TIP3    H157218   1.961   4.581   4.595  0.7666 -0.2389 -2.0330
11909TIP3    H257219   1.998   4.728   4.601 -0.0372 -0.0903 -0.1928
11910TIP3   OH257220   0.798   5.588   5.721 -0.2837 -0.7265  0.6272
11910TIP3    H157221   0.799   5.546   5.807  2.2353 -0.9088  0.5718
11910TIP3    H257222   0.877   5.554   5.678 -0.8994  0.2497 -1.3192
11911TIP3   OH257223   1.658   3.165   2.444  0.4882  0.6942  0.5058
11911TIP3    H157224   1.741   3.137   2.406  1.5596 -0.2548  3.4593
11911TIP3    H257225   1.599   3.173   2.369  2.4185 -1.5201 -1.3117
11912TIP3   OH257226   6.763   4.780  14.452  0.7916 -0.0546  0.3644
11912TIP3    H157227   6.837   4.772  14.392  0.6090 -0.0187  0.1362
11912TIP3    H257228   6.775   4.866  14.492  1.9602 -0.8594  1.7793
11913TIP3   OH257229   1.751   6.378  15.937  0.3191  0.5522 -0.1501
11913TIP3    H157230   1.745   6.294  15.982  0.9764  0.5153 -0.1359
11913TIP3    H257231   1.694   6.436  15.988 -1.6273 -0.3406 -1.2408
11914TIP3   OH257232   4.028   2.814  12.722 -0.4061 -0.1154  0.5132
11914TIP3    H157233   4.121   2.825  12.739 -0.0735 -1.6272 -0.2472
11914TIP3    H257234   3.987   2.890  12.763  1.2434  1.0337  0.1001
11915TIP3   OH257235   0.929   3.551  13.746  0.5882  0.3408 -0.0097
11915TIP3    H157236   0.899   3.562  13.836  0.6574 -0.8168  0.1587
11915TIP3    H257237   1.022   3.573  13.749  0.8301 -0.7009  0.4148
11916TIP3   OH257238   0.703   1.002   5.764 -0.3817 -0.0530 -0.1317
11916TIP3    H157239   0.764   1.054   5.817 -1.7818  1.7336 -0.2165
11916TIP3    H257240   0.693   0.920   5.812  2.8205 -0.8004 -0.6064
11917TIP3   OH257241   5.122   2.581   3.431  0.0134 -0.8312  0.3220
11917TIP3    H157242   5.163   2.551   3.350  0.7529 -1.1607  0.8174
11917TIP3    H257243   5.029   2.586   3.410  0.3153 -0.0006 -0.8262
11918TIP3   OH257244   2.275   0.663   4.108  0.0375  0.0948 -0.4764
11918TIP3    H157245   2.305   0.572   4.103 -0.8679 -0.1457 -1.7877
11918TIP3    H257246   2.250   0.675   4.199  1.4584 -0.5481  0.0285
11919TIP3   OH257247   6.759   0.702   1.838  0.2262 -0.4802 -0.5683
11919TIP3    H157248   6.775   0.635   1.904 -0.8823 -1.0668 -0.8868
11919TIP3    H257249   6.755   0.784   1.888  1.8953 -0.6099 -0.2195
11920TIP3   OH257250   6.352   6.260  14.596 -0.9228  0.2945 -0.5254
11920TIP3    H157251   6.274   6.315  14.607 -2.3678 -1.4757 -1.7057
11920TIP3    H257252   6.334   6.208  14.518  0.5746 -1.5987  0.3577
11921TIP3   OH257253   1.650   5.108   4.367 -0.0265 -0.3668  0.0702
11921TIP3    H157254   1.695   5.192   4.362  0.8812 -0.9209 -1.6301
11921TIP3    H257255   1.574   5.118   4.310 -1.7503  0.3672  2.4685
11922TIP3   OH257256   5.940   5.085   2.694  0.1801  0.4609 -0.4808
11922TIP3    H157257   5.967   5.046   2.777 -0.5295 -0.0452 -0.4793
11922TIP3    H257258   5.856   5.126   2.713  0.3866  1.0150 -0.7625
11923TIP3   OH257259   2.592   6.090  13.009  0.4815  0.0943  0.0803
11923TIP3    H157260   2.538   6.132  13.075  0.0647  1.0020 -0.8356
11923TIP3    H257261   2.670   6.062  13.057  0.5056  1.3856  0.8187
11924TIP3   OH257262   4.477   2.639  15.418 -0.6778 -0.3110 -0.5044
11924TIP3    H157263   4.503   2.657  15.328  1.9485 -3.5695 -0.4761
11924TIP3    H257264   4.474   2.544  15.424 -0.5839 -0.1683  2.9197
11925TIP3   OH257265   4.453   2.836  14.766 -0.7430 -0.4253 -0.1728
11925TIP3    H157266   4.549   2.833  14.770 -0.8411 -1.0838  2.8926
11925TIP3    H257267   4.429   2.914  14.816 -1.7923  0.0744 -1.4361
11926TIP3   OH257268   1.117   5.071  13.242 -0.7816 -0.5332  0.1209
11926TIP3    H157269   1.171   5.052  13.319 -1.0990 -0.2790  0.4082
11926TIP3    H257270   1.175   5.055  13.167  0.3799  1.8428  0.4666
11927TIP3   OH257271   2.886   6.556  12.961 -0.0542 -1.1228  0.0263
11927TIP3    H157272   2.878   6.583  13.052  2.0013  0.3258 -0.1881
11927TIP3    H257273   2.848   6.468  12.958  1.1121 -1.7372  2.5369
11928TIP3   OH257274   2.482   0.652  15.877  0.6425  0.2021  0.3290
11928TIP3    H157275   2.571   0.621  15.863  1.1034  2.3536 -1.9332
11928TIP3    H257276   2.470   0.652  15.972  2.8478 -0.6371  0.6169
11929TIP3   OH257277   1.923   4.321  12.986  0.7047  0.0778  0.3619
11929TIP3    H157278   1.874   4.240  13.001 -3.5628  2.4997  0.5412
11929TIP3    H257279   1.944   4.319  12.892  1.3313 -1.5490  0.5247
11930TIP3   OH257280   6.539   4.575   4.714  0.5454  0.4809  0.3667
11930TIP3    H157281   6.537   4.601   4.806  0.6506  2.1724 -0.0967
11930TIP3    H257282   6.452   4.538   4.697  1.2608 -1.9690  1.7170
11931TIP3   OH257283   6.481   5.084   1.818 -0.0032 -0.2118 -0.3523
11931TIP3    H157284   6.410   5.126   1.867 -1.5004 -2.3373 -0.6199
11931TIP3    H257285   6.544   5.056   1.884 -1.0253 -1.2432  0.1966
11932TIP3   OH257286   2.013   4.862  12.066  0.0798 -0.1580  0.2982
11932TIP3    H157287   2.007   4.943  12.117  2.9627 -0.6437  1.5177
11932TIP3    H257288   1.957   4.801  12.114 -1.7340  0.9483 -0.3594
11933TIP3   OH257289   1.511   6.307   0.964 -0.1742 -0.0877  0.4747
11933TIP3    H157290   1.479   6.259   1.041 -1.3881  0.3016  0.2192
11933TIP3    H257291   1.433   6.322   0.911  0.0749  2.7796  0.8612
11934TIP3   OH257292   5.770   5.792   6.483  0.2347  0.7161 -0.0399
11934TIP3    H157293   5.712   5.836   6.546 -1.4559  1.5144 -2.1138
11934TIP3    H257294   5.827   5.862   6.450  1.7157  0.1360  1.1832
11935TIP3   OH257295   1.502   5.009  16.627  0.5117 -0.3404 -0.1727
11935TIP3    H157296   1.543   4.935  16.582 -0.5267 -0.8242 -0.3578
11935TIP3    H257297   1.412   4.979  16.644  0.3663  0.5235  0.6059
11936TIP3   OH257298   4.341   1.422   4.822  0.1162  0.4345  0.3345
11936TIP3    H157299   4.385   1.338   4.808  1.7328  1.5255 -1.3707
11936TIP3    H257300   4.334   1.429   4.917  1.0545 -1.0632  0.5399
11937TIP3   OH257301   6.070   4.240   5.376 -0.3418 -0.1081 -0.3484
11937TIP3    H157302   5.982   4.238   5.412  0.5028  1.9531  2.0217
11937TIP3    H257303   6.107   4.155   5.399 -1.4126 -0.6394 -0.5616
11938TIP3   OH257304   0.583   0.149   1.318  0.7627  0.0255  0.2525
11938TIP3    H157305   0.573   0.242   1.336 -2.5759 -0.2096 -0.0488
11938TIP3    H257306   0.548   0.105   1.396  1.8384 -0.9851  0.1875
11939TIP3   OH257307   3.438   5.148   0.054 -0.7468 -0.2773 -0.1163
11939TIP3    H157308   3.384   5.073   0.029 -1.6142 -0.8221  3.1915
11939TIP3    H257309   3.501   5.113   0.116  0.9584  1.1333 -1.0187
11940TIP3   OH257310   3.921   1.106   2.934 -0.3321 -0.1059 -0.0442
11940TIP3    H157311   3.905   1.163   2.859 -2.1905 -2.2207 -1.3235
11940TIP3    H257312   3.992   1.049   2.905 -0.2193 -0.1188  0.2620
11941TIP3   OH257313   2.126   5.788  15.014  0.0514 -0.2348 -0.5628
11941TIP3    H157314   2.063   5.818  14.949 -1.7925 -0.2973  1.1578
11941TIP3    H257315   2.141   5.863  15.071 -0.0943 -0.8397  0.2875
11942TIP3   OH257316   0.711   3.163  17.277  1.0189 -0.1598  0.1952
11942TIP3    H157317   0.652   3.090  17.261  1.7623 -0.6642 -0.2526
11942TIP3    H257318   0.683   3.198  17.362 -0.3984  0.0754 -0.3674
11943TIP3   OH257319   6.153   5.649   1.620  0.1747 -0.6695 -0.1278
11943TIP3    H157320   6.072   5.634   1.571  0.2984 -1.6207 -0.0510
11943TIP3    H257321   6.203   5.711   1.565 -0.5831 -0.0965 -0.1853
11944TIP3   OH257322   4.564   4.824   5.307 -0.2032 -0.4485  0.5517
11944TIP3    H157323   4.497   4.888   5.328  0.6524  0.7253 -0.2096
11944TIP3    H257324   4.555   4.756   5.374  0.5637  1.7455  2.9773
11945TIP3   OH257325   0.151   6.677  12.987  0.2094  0.2296  0.3105
11945TIP3    H157326   0.116   6.592  13.013 -0.2083  0.7629  1.5378
11945TIP3    H257327   0.074   6.732  12.974  0.5288  0.8400  1.0034
11946TIP3   OH257328   5.955   0.360   1.536  0.0739  0.3404 -0.2068
11946TIP3    H157329   5.984   0.387   1.449  0.9344  2.3515  0.6856
11946TIP3    H257330   5.906   0.435   1.570  0.3085 -0.1771  1.3220
11947TIP3   OH257331   0.678   1.219   2.662 -0.1050  0.4912  0.0662
11947TIP3    H157332   0.759   1.268   2.657  1.9161 -2.6658  0.5323
11947TIP3    H257333   0.670   1.175   2.577 -1.2798  0.7008  0.0499
11948TIP3   OH257334   1.082   2.620   6.072  0.2641 -0.4780 -0.7442
11948TIP3    H157335   1.121   2.534   6.054  0.5792 -0.3309 -0.7670
11948TIP3    H257336   1.082   2.627   6.167  0.6870 -0.2971 -0.7575
11949TIP3   OH257337   5.304   6.041   1.916 -0.4691  0.5166 -0.0019
11949TIP3    H157338   5.388   6.002   1.942 -0.8576  0.7104  1.5938
11949TIP3    H257339   5.327   6.131   1.890 -0.0799  0.3499 -0.2398
11950TIP3   OH257340   1.496   5.837  12.654  0.1630 -0.1337 -0.3076
11950TIP3    H157341   1.477   5.754  12.611 -0.4164  0.6843 -1.6304
11950TIP3    H257342   1.592   5.838  12.663  0.3404 -0.0796 -2.0536
11951TIP3   OH257343   5.135   3.065  16.722  0.2180 -0.1188 -0.1025
11951TIP3    H157344   5.040   3.070  16.728  0.1126 -1.5239 -0.3225
11951TIP3    H257345   5.167   3.138  16.775 -1.0051  1.7649 -1.9245
11952TIP3   OH257346   2.119   2.059  16.636 -0.1007  0.2223 -0.1392
11952TIP3    H157347   2.027   2.083  16.645 -0.3123 -0.5557 -0.2568
11952TIP3    H257348   2.167   2.136  16.668 -0.7923  0.2853  0.7670
11953TIP3   OH257349   1.624   2.175   2.587 -0.5336  0.1634  0.1518
11953TIP3    H157350   1.716   2.202   2.592 -0.9090  1.2778  1.5173
11953TIP3    H257351   1.606   2.137   2.673 -1.1734 -0.6769 -0.3492
11954TIP3   OH257352   6.223   1.797  15.543 -0.4615 -0.3308  0.5495
11954TIP3    H157353   6.132   1.780  15.519  0.5668 -1.6165 -2.7720
11954TIP3    H257354   6.266   1.711  15.535  1.4182  0.6278  0.1396
11955TIP3   OH257355   6.577   3.914  15.194  0.4324  0.8283 -0.4264
11955TIP3    H157356   6.526   3.916  15.113 -0.0188 -0.4822 -0.1982
11955TIP3    H257357   6.657   3.866  15.170 -0.8121 -1.7928  0.4840
11956TIP3   OH257358   1.853   6.016  13.154 -0.9558 -0.0303 -0.3160
11956TIP3    H157359   1.913   5.957  13.199 -1.3651  0.9270  1.5332
11956TIP3    H257360   1.901   6.046  13.077 -0.0643 -1.3348 -0.2761
11957TIP3   OH257361   6.446   0.527  14.797 -0.4182 -0.1753 -0.4932
11957TIP3    H157362   6.530   0.569  14.814 -1.3374  2.0749 -1.3302
11957TIP3    H257363   6.396   0.540  14.877 -0.1158 -1.2083 -0.1254
11958TIP3   OH257364   2.424   1.961   1.678  0.2143 -0.0199 -0.0026
11958TIP3    H157365   2.405   1.877   1.635  2.4401  0.2647 -1.6197
11958TIP3    H257366   2.492   1.941   1.742 -1.8007 -0.0839  2.1921
11959TIP3   OH257367   5.714   4.555  12.078  0.3385 -0.4585  0.0002
11959TIP3    H157368   5.637   4.594  12.036 -0.6862 -0.5053  1.7804
11959TIP3    H257369   5.783   4.620  12.069 -0.6662  0.7174  0.7317
11960TIP3   OH257370   3.089   4.262  13.244 -0.2669 -0.4106  0.0689
11960TIP3    H157371   3.038   4.285  13.167  1.9279 -0.7899 -1.5431
11960TIP3    H257372   3.179   4.284  13.221  0.1124  2.1596  3.5917
11961TIP3   OH257373   2.787   4.199   0.129  0.4731  0.4447 -0.7361
11961TIP3    H157374   2.791   4.200   0.034  1.5697  0.1425 -0.6957
11961TIP3    H257375   2.704   4.156   0.149  0.0111  0.9410 -1.5517
11962TIP3   OH257376   4.851   1.334   5.607 -0.2165  0.4130  0.2367
11962TIP3    H157377   4.911   1.282   5.554  0.0817  0.0396  0.9273
11962TIP3    H257378   4.796   1.379   5.544  0.7033  0.6494 -0.4088
11963TIP3   OH257379   3.238   2.225   2.972  0.1474  0.4406  0.4182
11963TIP3    H157380   3.193   2.237   2.889 -0.4290  0.7609  0.7754
11963TIP3    H257381   3.325   2.194   2.948 -1.0819 -2.7350 -0.2210
11964TIP3   OH257382   1.079   4.525  11.115 -0.0376 -0.6692 -0.2164
11964TIP3    H157383   1.010   4.512  11.050  0.4882 -1.5199 -0.6072
11964TIP3    H257384   1.077   4.445  11.167  1.1579 -1.0163 -0.6999
11965TIP3   OH257385   6.220   3.150   3.058  0.8437  0.0294 -0.3153
11965TIP3    H157386   6.198   3.189   3.142  1.2419  1.2456 -0.7694
11965TIP3    H257387   6.142   3.102   3.032 -0.0936  1.5820 -0.3608
11966TIP3   OH257388   2.685   1.936   1.801 -0.1511 -0.2724 -0.2273
11966TIP3    H157389   2.761   1.925   1.859 -1.8645 -1.4525  1.8322
11966TIP3    H257390   2.642   2.016   1.833 -0.1233  0.0491 -0.9935
11967TIP3   OH257391   5.574   4.251   5.268  0.5875  0.3457  0.0483
11967TIP3    H157392   5.558   4.335   5.224 -0.8824  0.4327  0.7160
11967TIP3    H257393   5.523   4.187   5.218  0.6327  0.0765  0.3463
11968TIP3   OH257394   3.684   0.133  16.824  0.4873  0.1716  0.4124
11968TIP3    H157395   3.778   0.138  16.842  0.5827  1.1993 -0.3171
11968TIP3    H257396   3.671   0.195  16.752 -0.9134  0.7173  1.1458
11969TIP3   OH257397   0.215   2.089  16.212 -0.4952 -0.2091  0.7865
11969TIP3    H157398   0.233   2.088  16.118  1.3912  2.2241  1.0787
11969TIP3    H257399   0.119   2.084  16.219 -0.5313 -3.2428 -1.1375
11970TIP3   OH257400   4.261   2.071   5.741  0.2279 -0.0651  0.1702
11970TIP3    H157401   4.242   2.128   5.667 -1.0967 -0.0180  0.5424
11970TIP3    H257402   4.218   2.114   5.816 -0.4550 -1.3465  0.5262
11971TIP3   OH257403   0.041   1.671   2.740 -0.0985 -0.2333  0.0010
11971TIP3    H157404   0.056   1.762   2.763 -0.3990 -0.6871  2.1615
11971TIP3    H257405   0.114   1.647   2.683  1.3151  0.6752  1.4013
11972TIP3   OH257406   0.018   4.232   2.023  0.7654  0.0084  0.4204
11972TIP3    H157407   0.104   4.251   1.984  1.0372 -1.8620  0.0709
11972TIP3    H257408   0.038   4.184   2.103  0.0198 -1.8833 -0.4960
11973TIP3   OH257409   4.833   2.081   5.302 -0.1411 -0.5200  0.0299
11973TIP3    H157410   4.796   2.047   5.384 -1.0887  0.7548  0.1366
11973TIP3    H257411   4.850   2.003   5.250 -0.3226 -1.2967  1.1042
11974TIP3   OH257412   5.780   5.011   0.388 -0.2053 -0.3914  0.4265
11974TIP3    H157413   5.834   5.078   0.346  0.6193 -1.4527 -0.2094
11974TIP3    H257414   5.690   5.033   0.362 -0.0610  1.1785  1.2241
11975TIP3   OH257415   1.050   3.802   3.199 -0.1672  0.0909 -0.3446
11975TIP3    H157416   1.022   3.877   3.147  0.5112  1.0951  0.7357
11975TIP3    H257417   1.144   3.795   3.182  0.0884  0.5238  0.8756
11976TIP3   OH257418   1.858   3.500  17.148  0.7427 -0.0044  0.7050
11976TIP3    H157419   1.865   3.588  17.183  2.0647  0.2067 -0.0500
11976TIP3    H257420   1.870   3.511  17.053 -1.9384 -0.6524  0.2281
11977TIP3   OH257421   0.640   2.061   2.488 -0.0996 -0.1957 -0.1104
11977TIP3    H157422   0.701   2.119   2.533  2.1282 -2.3083 -0.2780
11977TIP3    H257423   0.561   2.114   2.474  1.2473  2.2208  1.1968
11978TIP3   OH257424   4.905   5.489  14.649  0.0227  0.1373  0.2090
11978TIP3    H157425   4.996   5.483  14.679  0.4167  0.0354 -1.0016
11978TIP3    H257426   4.910   5.480  14.554 -1.0972  1.8723 -0.0357
11979TIP3   OH257427   3.629   1.946  12.233 -0.3693 -0.6290  0.6131
11979TIP3    H157428   3.577   1.908  12.162  1.5640 -0.0799 -1.1584
11979TIP3    H257429   3.587   2.030  12.251 -0.3034 -0.3186 -0.6038
11980TIP3   OH257430   5.776   1.545   4.603  0.7657  0.0517 -0.3048
11980TIP3    H157431   5.852   1.559   4.547  1.0318 -1.2571 -0.2868
11980TIP3    H257432   5.808   1.486   4.672  0.7878  2.5721  1.9190
11981TIP3   OH257433   0.632   6.519  10.580  0.0221 -0.0251 -0.2916
11981TIP3    H157434   0.628   6.614  10.582 -1.6437 -0.0074 -2.8832
11981TIP3    H257435   0.719   6.498  10.614  0.1075  2.3619  1.0516
11982TIP3   OH257436   1.607   0.435  12.202 -0.3516  0.0134  0.5334
11982TIP3    H157437   1.534   0.384  12.168  0.2233 -1.7881  1.9525
11982TIP3    H257438   1.676   0.425  12.136 -1.1289  1.1633 -0.4765
11983TIP3   OH257439   4.084   1.387  13.154 -0.3711  0.1333  0.1343
11983TIP3    H157440   4.067   1.351  13.242  1.0215  1.0256  0.7811
11983TIP3    H257441   4.112   1.477  13.170  1.0460 -0.0600 -1.1488
11984TIP3   OH257442   1.141   6.169   2.346  0.3128 -0.4118  0.1342
11984TIP3    H157443   1.217   6.188   2.292  1.1847 -0.6187  1.2822
11984TIP3    H257444   1.162   6.204   2.432 -0.0498 -2.2135  0.9912
11985TIP3   OH257445   2.657   2.542   1.742  0.5869 -0.4092  0.3730
11985TIP3    H157446   2.699   2.456   1.740  0.1583 -0.5927 -1.1813
11985TIP3    H257447   2.727   2.603   1.718  0.4252 -0.5252 -0.4006
11986TIP3   OH257448   5.403   6.014  15.723  0.5216 -0.2833  0.5887
11986TIP3    H157449   5.470   6.064  15.676 -0.7146  1.2337  0.3996
11986TIP3    H257450   5.425   5.922  15.705  0.8895  0.2306 -1.8468
11987TIP3   OH257451   3.172   4.004  13.848  0.1921  0.3246 -0.1517
11987TIP3    H157452   3.231   3.977  13.778  1.2922  1.0693  0.4795
11987TIP3    H257453   3.118   4.073  13.808 -1.1292 -1.2301 -1.1010
11988TIP3   OH257454   3.114   4.165   2.039  0.1792 -0.0585 -0.2046
11988TIP3    H157455   3.143   4.110   2.111  1.5112  0.8997  0.0008
11988TIP3    H257456   3.022   4.139   2.025 -0.2483  0.1093  2.1354
11989TIP3   OH257457   3.862   3.104  15.071 -0.5173 -0.2002  0.1712
11989TIP3    H157458   3.914   3.141  14.999  0.5187 -1.3934  0.3004
11989TIP3    H257459   3.927   3.079  15.137 -1.4600  0.9227  1.5667
11990TIP3   OH257460   6.397   5.172   1.085  0.2421 -0.2180  0.2248
11990TIP3    H157461   6.433   5.089   1.115 -0.3532 -0.2863  0.7666
11990TIP3    H257462   6.409   5.232   1.159  0.5977  0.1530 -0.1330
11991TIP3   OH257463   6.638   3.505   2.752 -0.3702 -0.1025 -0.4747
11991TIP3    H157464   6.635   3.446   2.827  1.6610  0.0451 -0.2580
11991TIP3    H257465   6.631   3.447   2.676  0.1134 -0.4871 -0.2291
11992TIP3   OH257466   3.340   1.539   4.124  0.8327  0.0657  0.1453
11992TIP3    H157467   3.379   1.619   4.090  1.6965  0.0069  0.9910
11992TIP3    H257468   3.367   1.536   4.216  1.4134 -1.5805 -0.0726
11993TIP3   OH257469   1.330   1.849   4.629  0.1463 -0.1378 -0.2442
11993TIP3    H157470   1.249   1.900   4.627  0.1919 -0.1176 -1.4336
11993TIP3    H257471   1.399   1.914   4.619  0.2838 -0.2368  0.0582
11994TIP3   OH257472   1.570   6.023  13.223  0.6356 -0.2677 -0.2892
11994TIP3    H157473   1.652   6.031  13.175  0.9507  0.1876  0.3198
11994TIP3    H257474   1.510   6.083  13.179  1.8153  2.5233  1.7790
11995TIP3   OH257475   2.135   1.883  16.402  0.0495 -0.3773 -0.5106
11995TIP3    H157476   2.138   1.915  16.492 -0.7684  0.5486 -0.8035
11995TIP3    H257477   2.044   1.855  16.390 -0.6824  2.4501 -2.0344
11996TIP3   OH257478   1.253   2.696  16.079  0.7494 -0.1370 -0.3481
11996TIP3    H157479   1.190   2.632  16.045 -0.8181  0.7796  0.7634
11996TIP3    H257480   1.334   2.646  16.091  0.0339 -1.5058 -1.0986
11997TIP3   OH257481   4.690   2.857   3.153 -0.2774  0.7052  0.3111
11997TIP3    H157482   4.607   2.814   3.134  0.1298  0.3979 -0.7991
11997TIP3    H257483   4.709   2.908   3.074  1.5830 -0.8029 -0.2331
11998TIP3   OH257484   3.393   1.407  15.762  0.4546  0.0169  0.2482
11998TIP3    H157485   3.366   1.458  15.839 -0.6343 -0.8753  0.4699
11998TIP3    H257486   3.395   1.317  15.793 -0.4598 -0.4099 -0.8987
11999TIP3   OH257487   1.205   3.969  11.054 -0.0964  0.2167 -0.1821
11999TIP3    H157488   1.185   4.027  10.981 -1.1587  1.6319  1.2019
11999TIP3    H257489   1.138   3.989  11.119 -0.1728 -2.2128  0.5264
12000TIP3   OH257490   4.822   6.311  11.169 -0.4245 -0.3629 -0.3037
12000TIP3    H157491   4.829   6.366  11.091  0.5118  0.4239  0.3147
12000TIP3    H257492   4.831   6.372  11.242  3.4380 -1.6144  0.4020
12001TIP3   OH257493   6.694   6.783   0.529  0.4841 -0.0960 -0.4867
12001TIP3    H157494   6.628   6.731   0.483 -0.7936 -0.4251  1.5945
12001TIP3    H257495   6.749   6.718   0.572  0.1804  0.2071  0.3853
12002TIP3   OH257496   5.594   0.421  16.472  0.8584 -0.0520 -0.1268
12002TIP3    H157497   5.501   0.419  16.450  0.5378 -1.7828  1.1965
12002TIP3    H257498   5.604   0.499  16.526 -0.1992 -0.7317  1.1050
12003TIP3   OH257499   6.188   5.860  12.506  0.5077  0.6728 -0.0514
12003TIP3    H157500   6.281   5.837  12.511  0.1054 -1.0409 -0.3405
12003TIP3    H257501   6.162   5.835  12.418 -0.4197  0.4297  0.2927
12004TIP3   OH257502   0.964   1.516   1.294 -0.0010 -0.0759  0.4771
12004TIP3    H157503   0.876   1.542   1.321  0.2639  0.5057  0.7937
12004TIP3    H257504   1.021   1.586   1.327  0.3969  0.3469 -1.0641
12005TIP3   OH257505   6.627   0.095  11.696  0.1591  0.0603 -0.3130
12005TIP3    H157506   6.625   0.002  11.674 -3.1189  0.3788 -1.5953
12005TIP3    H257507   6.710   0.107  11.742  0.8831 -3.3743 -0.6093
12006TIP3   OH257508   5.472   5.950  12.873  0.0172  0.1047  0.5174
12006TIP3    H157509   5.400   5.893  12.845 -0.5548  0.7656  0.6280
12006TIP3    H257510   5.472   5.945  12.968  1.4182 -1.4736  0.4575
12007TIP3   OH257511   2.694   6.229  11.367  0.5648  0.2816  0.1281
12007TIP3    H157512   2.746   6.307  11.388  2.0407 -0.2265 -1.5687
12007TIP3    H257513   2.646   6.253  11.288 -0.3242  0.0712  0.5995
12008TIP3   OH257514   3.376   6.079  11.197 -0.0015 -0.3319 -0.5527
12008TIP3    H157515   3.414   6.089  11.109 -1.3997  0.1712 -1.1155
12008TIP3    H257516   3.284   6.059  11.181 -0.4194  0.4413  0.8133
12009TIP3   OH257517   4.928   2.149  15.247  0.0943 -0.0360  0.1833
12009TIP3    H157518   4.993   2.093  15.290 -0.7109  0.0109  1.4613
12009TIP3    H257519   4.884   2.090  15.185  0.4826 -0.3749  0.2234
12010TIP3   OH257520   5.824   5.750   2.289 -0.5322  0.4051  0.5993
12010TIP3    H157521   5.782   5.737   2.374 -1.8302 -2.7999 -0.4660
12010TIP3    H257522   5.917   5.759   2.309 -0.7750 -0.7705  2.3397
12011TIP3   OH257523   0.735   0.848  12.533 -0.9728 -0.8546 -0.3720
12011TIP3    H157524   0.793   0.776  12.507 -1.0566 -0.2133 -2.4948
12011TIP3    H257525   0.705   0.885  12.449 -1.2104  1.4172  0.6798
12012TIP3   OH257526   6.544   6.127   2.908 -0.1500 -0.0326  0.2385
12012TIP3    H157527   6.559   6.081   2.825  0.3611 -1.8584  1.3172
12012TIP3    H257528   6.615   6.191   2.913 -1.4887  1.6808 -1.7959
12013TIP3   OH257529   0.720   0.646   5.479 -0.2889 -0.8478 -0.6265
12013TIP3    H157530   0.773   0.723   5.496  0.2827 -1.3250 -0.2309
12013TIP3    H257531   0.631   0.672   5.503  0.1247 -0.7665  0.8583
12014TIP3   OH257532   2.164   1.963  13.800 -0.6330 -0.4372 -0.0678
12014TIP3    H157533   2.201   1.876  13.806  1.0144  0.3448  1.4389
12014TIP3    H257534   2.203   2.012  13.872 -0.6230  1.8792 -1.5602
12015TIP3   OH257535   5.804   4.190  13.103 -0.2710  0.3603  0.7086
12015TIP3    H157536   5.721   4.155  13.070  0.1122  0.0150  0.0895
12015TIP3    H257537   5.786   4.282  13.122 -0.6192  0.4461 -0.0319
12016TIP3   OH257538   1.860   0.954   5.371  0.0489 -0.5039 -0.1666
12016TIP3    H157539   1.791   0.954   5.303 -0.4698  0.5030  0.3531
12016TIP3    H257540   1.832   1.021   5.433  2.0249  0.6148 -0.4676
12017TIP3   OH257541   3.213   4.846  13.504  0.4830  0.0812  0.0669
12017TIP3    H157542   3.206   4.753  13.521 -1.9115 -0.0599 -1.4622
12017TIP3    H257543   3.256   4.852  13.419 -0.9211  0.2900 -0.6449
12018TIP3   OH257544   1.168   1.254  13.546  0.2089  0.1494  0.1040
12018TIP3    H157545   1.190   1.347  13.549 -1.6598  0.6435 -0.6794
12018TIP3    H257546   1.167   1.233  13.453 -0.5711 -0.3506  0.2238
12019TIP3   OH257547   1.740   6.589  13.512  0.0244  0.1670 -0.3748
12019TIP3    H157548   1.761   6.580  13.605 -0.8235  2.0126  0.0237
12019TIP3    H257549   1.820   6.625  13.473  0.0093  0.4498 -0.1491
12020TIP3   OH257550   1.021   5.157   3.788  0.3263 -0.1025 -0.3964
12020TIP3    H157551   1.046   5.155   3.880  2.3430 -1.0175 -0.9155
12020TIP3    H257552   1.102   5.181   3.742 -1.0495  1.9813 -1.8017
12021TIP3   OH257553   4.495   2.915   3.452  0.2011  0.3940  0.2283
12021TIP3    H157554   4.434   2.961   3.510  1.0410  0.4611  1.0744
12021TIP3    H257555   4.448   2.906   3.370 -0.7910  0.8275  0.7400
12022TIP3   OH257556   5.555   3.101  16.666 -0.6248 -0.3621  0.3001
12022TIP3    H157557   5.630   3.058  16.707 -0.1470 -0.1083 -0.3029
12022TIP3    H257558   5.478   3.055  16.701 -0.1544 -1.1163  0.3421
12023TIP3   OH257559   6.243   6.414   0.205  0.2755  0.3167  0.4624
12023TIP3    H157560   6.337   6.415   0.191  0.0814  1.1155 -0.7968
12023TIP3    H257561   6.231   6.354   0.279  1.6611 -0.7036 -0.1128
12024TIP3   OH257562   1.651   5.884  11.134  0.7476 -0.0328  0.0986
12024TIP3    H157563   1.690   5.885  11.046  3.3266  0.6033  1.2021
12024TIP3    H257564   1.640   5.977  11.156 -0.9362 -0.2004  0.0290
12025TIP3   OH257565   2.476   1.907  15.072  0.4537  0.0788 -0.1520
12025TIP3    H157566   2.540   1.882  15.138  0.7305  0.0787 -0.4172
12025TIP3    H257567   2.527   1.913  14.991  0.0403 -0.3298 -0.4428
12026TIP3   OH257568   2.799   3.169  13.072  0.1394  0.1125  0.3861
12026TIP3    H157569   2.885   3.126  13.070 -0.0668 -0.2631 -1.3595
12026TIP3    H257570   2.749   3.119  13.137  1.2400  0.3696  1.4586
12027TIP3   OH257571   6.518   6.488   4.970 -0.2802  0.8270  0.2008
12027TIP3    H157572   6.503   6.395   4.953  0.1496  0.8132 -0.0991
12027TIP3    H257573   6.470   6.505   5.052 -0.5617  0.4019  0.1282
12028TIP3   OH257574   5.521   4.245  11.593  0.4905 -1.1241 -0.0995
12028TIP3    H157575   5.529   4.154  11.565 -0.7685 -1.4498  0.5329
12028TIP3    H257576   5.547   4.245  11.685 -2.2621 -1.4034  0.7235
12029TIP3   OH257577   2.201   2.701   4.216 -0.4134 -0.1624 -0.2627
12029TIP3    H157578   2.117   2.656   4.204 -0.1186 -1.0753  1.0047
12029TIP3    H257579   2.247   2.649   4.282  0.5677  1.1361  0.0991
12030TIP3   OH257580   3.568   6.206   2.169  0.8614 -0.5534 -0.2055
12030TIP3    H157581   3.508   6.272   2.135  3.0179  0.1520 -2.7610
12030TIP3    H257582   3.585   6.233   2.259 -2.0571 -0.3867  0.3394
12031TIP3   OH257583   0.830   3.466  12.968  0.1682  0.0222 -0.1229
12031TIP3    H157584   0.782   3.496  12.891 -0.2622  0.7882  0.4358
12031TIP3    H257585   0.795   3.519  13.040 -0.0578 -1.2809  0.7461
12032TIP3   OH257586   5.599   4.188   3.536 -0.6094  0.2037  0.4176
12032TIP3    H157587   5.545   4.182   3.457  0.8504 -1.0846 -0.5156
12032TIP3    H257588   5.682   4.224   3.506  0.3437 -1.3229  1.1408
12033TIP3   OH257589   0.430   5.769   2.895 -0.2378  0.4100 -0.0148
12033TIP3    H157590   0.404   5.701   2.958 -0.5626  0.8378  0.3144
12033TIP3    H257591   0.377   5.845   2.918 -0.9317  0.3279 -1.3253
12034TIP3   OH257592   3.901   6.415   1.125  0.0293 -0.3119 -0.8897
12034TIP3    H157593   3.952   6.355   1.069  0.1270 -0.1110 -1.0178
12034TIP3    H257594   3.835   6.360   1.165  0.2310 -0.5415 -0.8706
12035TIP3   OH257595   2.903   4.552  10.378 -0.0631 -0.6009  0.1063
12035TIP3    H157596   2.926   4.459  10.372 -0.5801 -0.7111 -0.2188
12035TIP3    H257597   2.807   4.553  10.380 -0.0992 -0.0000 -1.3083
12036TIP3   OH257598   5.714   5.924   6.165  0.2300 -0.8859  0.1043
12036TIP3    H157599   5.680   5.980   6.234 -0.4186 -0.2530 -0.7201
12036TIP3    H257600   5.708   5.836   6.201  1.4763 -0.4336  1.5076
12037TIP3   OH257601   5.303   0.764   3.111 -0.1877  0.3024  0.0221
12037TIP3    H157602   5.340   0.679   3.134 -1.9779 -0.5322 -0.1038
12037TIP3    H257603   5.367   0.827   3.142  0.5762 -1.0500  1.2672
12038TIP3   OH257604   0.531   3.025   1.883 -0.2881  0.3269  0.3450
12038TIP3    H157605   0.619   3.043   1.916 -0.6246  1.0540  0.8607
12038TIP3    H257606   0.490   3.111   1.878 -0.8755  0.0146 -0.1691
12039TIP3   OH257607   1.059   3.798  13.386 -0.1425 -0.2098  0.1231
12039TIP3    H157608   1.115   3.754  13.323 -0.4373  0.4180 -0.5877
12039TIP3    H257609   1.119   3.831  13.453  0.2894  0.1107 -0.4233
12040TIP3   OH257610   1.309   2.460  13.339 -0.6375 -0.4354 -0.5040
12040TIP3    H157611   1.366   2.455  13.262  1.4305 -0.6861  1.0131
12040TIP3    H257612   1.361   2.504  13.405 -2.0224 -1.1230  1.0924
12041TIP3   OH257613   1.296   2.176   2.311  0.4134 -0.9913 -0.2780
12041TIP3    H157614   1.327   2.266   2.313  1.4065 -1.3427  1.3054
12041TIP3    H257615   1.221   2.178   2.253 -0.8490  1.2704  1.3405
12042TIP3   OH257616   2.423   5.985   4.105 -0.3798 -0.0943  0.4299
12042TIP3    H157617   2.497   5.948   4.056 -0.2092 -2.8896  2.6923
12042TIP3    H257618   2.442   6.079   4.110  2.0105 -0.4905 -0.6690
12043TIP3   OH257619   4.802   3.668   3.462  0.5070  0.0878  0.1054
12043TIP3    H157620   4.890   3.633   3.476 -0.0181 -0.8287  1.1242
12043TIP3    H257621   4.778   3.708   3.545 -0.1585  0.1034 -0.0914
12044TIP3   OH257622   5.305   1.641   5.427  0.1739  0.0252  0.1864
12044TIP3    H157623   5.326   1.660   5.518  0.2947 -1.3678  0.4442
12044TIP3    H257624   5.326   1.723   5.381  1.9786  0.1033  1.1001
12045TIP3   OH257625   2.130   1.101   5.172  0.3864 -0.2833 -0.6850
12045TIP3    H157626   2.140   1.013   5.207 -0.5835 -0.8187 -1.6860
12045TIP3    H257627   2.057   1.094   5.111 -1.1340  1.7010  0.8182
12046TIP3   OH257628   5.030   2.102   1.535 -0.1735 -0.2562  0.1946
12046TIP3    H157629   5.004   2.113   1.444 -0.1103  1.9849  0.4309
12046TIP3    H257630   4.965   2.151   1.585  0.2191 -0.8551  1.3140
12047TIP3   OH257631   1.111   4.898  12.056 -0.0508 -0.0996 -0.1135
12047TIP3    H157632   1.157   4.823  12.091  1.7086  1.1297  0.2424
12047TIP3    H257633   1.065   4.864  11.979  0.0657 -1.6890  0.4954
12048TIP3   OH257634   4.693   4.758  12.974  0.1978  0.3787 -0.4685
12048TIP3    H157635   4.683   4.680  12.918  0.0259 -1.3335  1.8678
12048TIP3    H257636   4.787   4.773  12.977  0.3733 -0.8155  0.4625
12049TIP3   OH257637   2.880   5.326  16.408 -0.5516 -0.0616 -0.3534
12049TIP3    H157638   2.813   5.329  16.477 -0.2152 -0.6896  0.0083
12049TIP3    H257639   2.830   5.326  16.327 -1.0381 -1.1865 -0.0791
12050TIP3   OH257640   1.518   2.491   1.638  0.8434 -0.0521 -0.3635
12050TIP3    H157641   1.552   2.578   1.660 -0.0778  0.1460  0.3117
12050TIP3    H257642   1.560   2.469   1.555  0.8626  1.1676 -0.6884
12051TIP3   OH257643   5.694   3.830   2.344 -0.1477  0.2266 -0.2449
12051TIP3    H157644   5.667   3.876   2.265 -1.5045 -1.4074 -0.7461
12051TIP3    H257645   5.638   3.753   2.348  2.4966 -1.7679  0.2042
12052TIP3   OH257646   2.193   0.473   2.762 -0.2083  0.0449 -0.0914
12052TIP3    H157647   2.180   0.534   2.835  1.2693  0.9923 -0.6094
12052TIP3    H257648   2.174   0.387   2.800  0.3057  0.5551  1.3542
12053TIP3   OH257649   4.402   5.465   2.910 -0.1116 -0.0182  0.1013
12053TIP3    H157650   4.307   5.457   2.903 -0.2155 -0.4744  1.9089
12053TIP3    H257651   4.433   5.466   2.819 -1.6726 -1.8274 -0.4726
12054TIP3   OH257652   2.303   0.697  14.046 -0.0518 -0.2905  0.1472
12054TIP3    H157653   2.318   0.695  14.141 -1.2189 -3.0423  0.3010
12054TIP3    H257654   2.358   0.627  14.012 -1.4150 -0.8436 -0.9479
12055TIP3   OH257655   5.953   5.217   5.247 -0.1426  0.4480 -0.4467
12055TIP3    H157656   6.001   5.299   5.236  0.3724  0.3060  0.6459
12055TIP3    H257657   5.961   5.172   5.162  2.4169  0.0319 -0.0293
12056TIP3   OH257658   4.692   3.647   1.646  0.0322  0.2811  0.2241
12056TIP3    H157659   4.609   3.620   1.684 -0.8786  0.0657 -1.8198
12056TIP3    H257660   4.758   3.626   1.712 -1.4411 -0.4083  1.4901
12057TIP3   OH257661   1.383   4.703  16.247  0.4261  0.5441 -0.3341
12057TIP3    H157662   1.371   4.775  16.309  0.0860  2.4015 -2.4864
12057TIP3    H257663   1.294   4.673  16.230  0.5735 -0.4745  0.6203
12058TIP3   OH257664   0.281   2.000   3.036  0.2173 -0.1266  0.0088
12058TIP3    H157665   0.278   1.948   3.117 -0.6147  1.3962  0.9747
12058TIP3    H257666   0.298   2.089   3.065 -0.0860  0.4336 -1.5025
12059TIP3   OH257667   2.679   4.908   3.236 -0.6083  0.2477 -0.4357
12059TIP3    H157668   2.611   4.969   3.207  0.0078  1.0495 -0.1999
12059TIP3    H257669   2.731   4.890   3.157 -0.3318  0.6189 -0.3375
12060TIP3   OH257670   2.905   4.040  11.397  0.1827 -0.0539 -0.1538
12060TIP3    H157671   2.944   3.978  11.460  0.4789 -0.0350 -0.3163
12060TIP3    H257672   2.942   4.015  11.313  0.2845  0.3310 -0.2229
12061TIP3   OH257673   3.895   2.381  13.524  0.5866 -0.1905  0.3754
12061TIP3    H157674   3.988   2.366  13.538  0.6630 -0.3054 -0.2479
12061TIP3    H257675   3.852   2.308  13.570  0.6070  2.0685  4.1715
12062TIP3   OH257676   3.090   1.498  15.049 -0.1849 -0.0723 -0.0474
12062TIP3    H157677   3.166   1.452  15.087 -0.0960  0.9491  1.0526
12062TIP3    H257678   3.114   1.590  15.053 -1.2791  0.2224 -0.1658
12063TIP3   OH257679   5.094   0.649  15.799  0.0559 -0.0252  0.0680
12063TIP3    H157680   5.048   0.730  15.778 -0.0788 -0.2125 -0.3859
12063TIP3    H257681   5.038   0.605  15.863  1.0299  1.0847  1.7076
12064TIP3   OH257682   5.576   4.647  14.120  0.1315  0.0336 -0.2774
12064TIP3    H157683   5.488   4.638  14.082  0.2927  0.3833 -0.7494
12064TIP3    H257684   5.618   4.563  14.105  0.9751  0.8675 -2.9350
12065TIP3   OH257685   4.239   1.322   1.299 -0.1976 -0.1274 -0.4844
12065TIP3    H157686   4.294   1.400   1.297 -0.4965  0.1159  0.6482
12065TIP3    H257687   4.233   1.295   1.207  1.0848  0.3409 -0.7149
12066TIP3   OH257688   4.182   0.513  14.208 -0.0113  0.2095 -0.2110
12066TIP3    H157689   4.131   0.454  14.153  0.0202 -0.1607  0.1541
12066TIP3    H257690   4.256   0.540  14.154 -0.5590  0.6981 -0.7245
12067TIP3   OH257691   3.000   5.370   1.710 -0.0751  0.3518  0.0020
12067TIP3    H157692   2.980   5.439   1.647 -0.9543 -0.2934 -0.4491
12067TIP3    H257693   2.914   5.334   1.733  0.2867  0.1939  1.1267
12068TIP3   OH257694   5.471   2.484  12.504 -0.1161 -0.4276 -0.0719
12068TIP3    H157695   5.435   2.504  12.590 -0.5120 -0.2614 -0.2738
12068TIP3    H257696   5.409   2.420  12.467 -0.1029 -0.2821 -0.3455
12069TIP3   OH257697   1.882   1.732   4.167  0.0300 -0.2525  0.6850
12069TIP3    H157698   1.923   1.744   4.253 -0.9714 -0.4317  1.2072
12069TIP3    H257699   1.857   1.639   4.166 -1.2377  0.0687  0.8021
12070TIP3   OH257700   5.851   5.307  15.833 -0.3735 -1.4038 -0.2919
12070TIP3    H157701   5.792   5.294  15.759 -2.3562 -1.4943  1.2493
12070TIP3    H257702   5.861   5.402  15.839 -1.6340 -1.2970  0.3696
12071TIP3   OH257703   6.177   2.213   4.051  0.5678  0.1089  0.1151
12071TIP3    H157704   6.119   2.289   4.056  1.3843  0.6373  2.0743
12071TIP3    H257705   6.202   2.196   4.142  1.1034 -1.9694 -0.3922
12072TIP3   OH257706   3.631   6.144   2.849 -0.0830 -0.0034  0.2598
12072TIP3    H157707   3.568   6.213   2.868  1.3115  0.9646  1.5106
12072TIP3    H257708   3.716   6.182   2.871  0.8913 -1.4928 -0.7936
12073TIP3   OH257709   3.081   0.801   1.245  0.0011  0.1144  0.0705
12073TIP3    H157710   3.043   0.873   1.295  1.5717  0.5147  0.7274
12073TIP3    H257711   3.152   0.841   1.195 -0.3505 -0.6302 -1.0520
12074TIP3   OH257712   3.321   2.580  12.629  0.0732  0.6494 -0.0516
12074TIP3    H157713   3.295   2.620  12.711 -1.0845 -0.5428  0.1767
12074TIP3    H257714   3.404   2.536  12.650 -0.1811  0.4078  0.4558
12075TIP3   OH257715   1.657   6.126  11.312 -0.2447  0.6910 -0.0910
12075TIP3    H157716   1.574   6.083  11.334 -1.6377  3.1109 -0.4095
12075TIP3    H257717   1.639   6.219  11.324  0.9591  1.6700 -4.8770
12076TIP3   OH257718   1.601   0.782  14.712 -0.4634  0.7333  0.0938
12076TIP3    H157719   1.583   0.745  14.626  0.8735 -0.0569  0.1539
12076TIP3    H257720   1.662   0.854  14.695  0.3414  0.1392  0.4519
12077TIP3   OH257721   4.962   1.110   0.444 -0.0477  0.3848 -0.2406
12077TIP3    H157722   5.028   1.126   0.511 -0.2475  2.1270 -0.4491
12077TIP3    H257723   4.886   1.077   0.492  0.5382 -0.4238  0.1365
12078TIP3   OH257724   0.886   2.633   5.738 -0.0561 -0.2120  0.2894
12078TIP3    H157725   0.840   2.713   5.710 -0.0668 -0.5313 -0.6378
12078TIP3    H257726   0.879   2.633   5.833  1.4352  1.7998  0.4364
12079TIP3   OH257727   0.276   0.825  13.435 -0.8148 -0.2756  0.2179
12079TIP3    H157728   0.270   0.878  13.514 -1.1249  1.0910 -0.7085
12079TIP3    H257729   0.343   0.759  13.454 -0.4197  0.4665  1.3650
12080TIP3   OH257730   2.185   0.176  14.155 -0.4908  1.1243  0.3382
12080TIP3    H157731   2.136   0.096  14.176 -0.8493  0.9413 -1.1420
12080TIP3    H257732   2.221   0.160  14.068  0.6684  2.0078  0.6401
12081TIP3   OH257733   3.510   0.496   3.503  0.0282  0.1417  0.5486
12081TIP3    H157734   3.487   0.403   3.504 -1.4930  0.4974  0.5071
12081TIP3    H257735   3.552   0.510   3.418  2.1715 -0.9367  1.4197
12082TIP3   OH257736   3.913   3.479   3.690 -0.0528 -0.6075 -0.0767
12082TIP3    H157737   3.897   3.569   3.718 -1.3838 -1.1351  0.9325
12082TIP3    H257738   3.849   3.427   3.739  0.0412 -1.9926 -1.3786
12083TIP3   OH257739   5.450   0.527  12.148  0.8461 -0.5941  0.0537
12083TIP3    H157740   5.437   0.444  12.194 -0.8472  0.3773  1.3926
12083TIP3    H257741   5.436   0.594  12.216  0.6393  0.8159 -1.3552
12084TIP3   OH257742   0.487   4.258   5.427 -0.0050 -0.2102  0.2791
12084TIP3    H157743   0.479   4.261   5.332  0.6859  0.2875  0.2377
12084TIP3    H257744   0.570   4.213   5.443 -0.3924 -0.8043  0.6548
12085TIP3   OH257745   4.488   4.985   1.710 -0.1492  0.3682 -0.0622
12085TIP3    H157746   4.526   4.949   1.629 -0.6974  1.4027 -0.7875
12085TIP3    H257747   4.467   4.908   1.762 -0.3195 -0.3358 -1.1445
12086TIP3   OH257748   6.479   3.701  16.785  0.0503  0.2179  0.1825
12086TIP3    H157749   6.497   3.616  16.744  0.3829  0.7194 -0.7151
12086TIP3    H257750   6.406   3.737  16.734 -1.1076 -0.1932  1.5148
12087TIP3   OH257751   3.529   2.337  12.875 -0.5450 -0.6654 -0.0849
12087TIP3    H157752   3.604   2.390  12.906 -2.6668  2.2145  0.3297
12087TIP3    H257753   3.468   2.339  12.948 -2.1974 -0.6294 -1.4548
12088TIP3   OH257754   0.232   4.447   1.658  0.2912  0.2688  0.0262
12088TIP3    H157755   0.323   4.447   1.686  0.9204 -0.3300 -1.9513
12088TIP3    H257756   0.207   4.355   1.656 -0.1740  0.3933 -0.0268
12089TIP3   OH257757   5.735   5.806   5.909  0.7139  0.3715  0.1143
12089TIP3    H157758   5.762   5.716   5.889  0.0637  0.2109 -0.0282
12089TIP3    H257759   5.753   5.815   6.003 -2.1069 -0.9285  0.8142
12090TIP3   OH257760   6.571   1.392  13.528 -0.2768 -0.3155  0.3977
12090TIP3    H157761   6.530   1.386  13.614  1.4127 -0.9976  1.1783
12090TIP3    H257762   6.654   1.438  13.544  0.9622 -2.1547 -0.5194
12091TIP3   OH257763   2.630   5.513  11.352 -0.1382  0.0651 -0.1734
12091TIP3    H157764   2.654   5.426  11.383 -0.6440  0.8971  2.6967
12091TIP3    H257765   2.539   5.505  11.325  0.7557 -1.0386 -2.9509
12092TIP3   OH257766   5.974   2.563  15.434 -0.5422  0.1391 -0.1408
12092TIP3    H157767   6.004   2.649  15.462 -0.2580 -0.3986  1.2851
12092TIP3    H257768   6.053   2.508  15.436 -1.2858 -0.9170  2.1618
12093TIP3   OH257769   2.743   5.905  12.591 -0.2182  0.7953  0.4309
12093TIP3    H157770   2.681   5.836  12.568  1.5274 -0.9061  0.6903
12093TIP3    H257771   2.764   5.947  12.508 -0.8872  0.6792  0.2014
12094TIP3   OH257772   5.686   4.813  13.120 -0.4642  0.6907 -0.4974
12094TIP3    H157773   5.676   4.907  13.132 -1.4810  0.4293  0.8595
12094TIP3    H257774   5.720   4.803  13.031  0.4665  2.3791 -0.3475
12095TIP3   OH257775   5.809   3.935   1.877 -0.4782 -0.2320  0.2493
12095TIP3    H157776   5.725   3.952   1.834 -0.8630  0.0375  1.0848
12095TIP3    H257777   5.871   3.922   1.806 -0.9147  1.1631 -0.3983
12096TIP3   OH257778   5.991   4.094   2.398  0.2465 -0.4005  0.4168
12096TIP3    H157779   5.938   4.029   2.445  0.0695 -0.7649 -0.2808
12096TIP3    H257780   6.017   4.157   2.466  2.5376 -2.5403  1.6081
12097TIP3   OH257781   5.772   6.516  12.216  0.3064 -0.1633  0.1144
12097TIP3    H157782   5.791   6.433  12.258  0.9894 -0.6728 -1.1516
12097TIP3    H257783   5.814   6.509  12.130 -1.8861  0.4414 -1.0313
12098TIP3   OH257784   3.333   0.726  11.244  0.2069  0.1110 -0.2027
12098TIP3    H157785   3.369   0.639  11.229 -0.0365  0.0823 -0.6326
12098TIP3    H257786   3.389   0.764  11.312  0.5222 -0.2520 -0.2588
12099TIP3   OH257787   5.295   0.351   1.052  0.2082 -0.2573  0.3204
12099TIP3    H157788   5.213   0.316   1.020 -0.0608 -0.6734  1.4216
12099TIP3    H257789   5.297   0.326   1.145  1.1819  0.4626  0.5046
12100TIP3   OH257790   5.137   1.143   0.649 -0.2546  0.0516 -0.0488
12100TIP3    H157791   5.208   1.206   0.665  0.2575 -0.9147  1.6165
12100TIP3    H257792   5.117   1.108   0.736 -0.3327 -2.2890 -0.9805
12101TIP3   OH257793   3.967   5.094  14.094  0.0142 -0.4514 -0.0510
12101TIP3    H157794   3.963   5.140  14.178  1.3435 -0.0277 -0.2029
12101TIP3    H257795   3.890   5.037  14.094 -2.0439  2.2211 -0.1217
12102TIP3   OH257796   2.640   3.859  11.055 -0.2558  0.2513 -0.3352
12102TIP3    H157797   2.695   3.897  10.987 -0.6435 -0.0280 -0.8144
12102TIP3    H257798   2.553   3.853  11.014 -0.1444 -1.4243 -0.3884
12103TIP3   OH257799   2.788   6.749  16.869  0.2630 -0.0307  0.7256
12103TIP3    H157800   2.719   6.814  16.861 -0.0952 -0.7170 -2.0567
12103TIP3    H257801   2.754   6.685  16.932 -0.4880  1.0228  1.4028
12104TIP3   OH257802   4.985   3.404  12.027 -0.4155  0.2432 -0.6162
12104TIP3    H157803   5.011   3.313  12.042 -0.7360  0.0609 -1.1483
12104TIP3    H257804   4.980   3.412  11.931 -2.4540  0.2250 -0.5330
12105TIP3   OH257805   1.724   5.828  14.963 -0.3279  0.6734 -0.5468
12105TIP3    H157806   1.759   5.764  15.026 -1.6587  1.3070  0.8752
12105TIP3    H257807   1.662   5.778  14.910  0.3163  0.2868 -0.9500
12106TIP3   OH257808   4.132   3.781   3.103 -0.1213 -0.0583 -0.0927
12106TIP3    H157809   4.225   3.794   3.086 -0.2653 -1.3759 -2.0994
12106TIP3    H257810   4.092   3.784   3.016 -2.3020  2.9088  0.9179
12107TIP3   OH257811   0.059   5.590  14.302  0.0902  0.6080 -0.6816
12107TIP3    H157812   0.132   5.636  14.260 -0.3445  2.5329  0.6117
12107TIP3    H257813   0.038   5.643  14.379 -1.0982 -1.2347  0.3025
12108TIP3   OH257814   6.515   2.673   4.880  0.2761  0.1063  0.0262
12108TIP3    H157815   6.551   2.629   4.803 -1.7673  0.3019 -1.0649
12108TIP3    H257816   6.545   2.763   4.872  2.3847 -0.4709  0.9566
12109TIP3   OH257817   5.823   6.470   3.332 -0.6076  0.3520  0.3391
12109TIP3    H157818   5.749   6.529   3.345 -1.3382 -0.2728 -0.8273
12109TIP3    H257819   5.812   6.438   3.242  0.8909 -0.0109  0.2703
12110TIP3   OH257820   0.688   4.506  13.595 -0.3393  0.3701  0.0626
12110TIP3    H157821   0.777   4.514  13.629 -0.4630  2.9925 -0.0846
12110TIP3    H257822   0.666   4.414  13.607  1.5108  0.1630  2.2976
12111TIP3   OH257823   1.906   2.463   5.160 -0.0622  0.1951 -0.0602
12111TIP3    H157824   1.975   2.434   5.220 -1.7145 -0.6512  1.5046
12111TIP3    H257825   1.873   2.544   5.199 -1.3219 -0.4949  0.3444
12112TIP3   OH257826   3.427   4.473   4.189  1.0175 -0.1189 -0.0924
12112TIP3    H157827   3.493   4.496   4.123 -0.2988  0.6848 -1.1367
12112TIP3    H257828   3.434   4.542   4.254  1.1434  0.0073 -0.2394
12113TIP3   OH257829   0.711   4.444   0.917 -0.0282  0.5900 -0.4655
12113TIP3    H157830   0.727   4.385   0.843  0.2726 -0.1692  0.2022
12113TIP3    H257831   0.785   4.505   0.915 -0.1767  0.7608 -0.9691
12114TIP3   OH257832   0.784   5.323  11.533 -0.2045  0.7098  0.1731
12114TIP3    H157833   0.875   5.324  11.506  0.1685  2.1944  1.4280
12114TIP3    H257834   0.747   5.244  11.492  1.3484  0.6963 -1.2286
12115TIP3   OH257835   3.533   4.951  13.755 -0.0295 -0.1312  0.0527
12115TIP3    H157836   3.504   4.861  13.768 -1.1781  0.1416 -0.5605
12115TIP3    H257837   3.461   5.004  13.789 -0.3238  0.5589 -1.6016
12116TIP3   OH257838   6.521   4.107  12.439  0.3483  0.2075 -0.0861
12116TIP3    H157839   6.519   4.191  12.393 -0.8233  0.3804  0.2574
12116TIP3    H257840   6.531   4.130  12.531 -0.3009 -0.0193  0.0405
12117TIP3   OH257841   2.392   0.131   3.891  0.2855 -0.0049  0.3291
12117TIP3    H157842   2.459   0.199   3.882  0.3293  0.1984  1.9845
12117TIP3    H257843   2.402   0.099   3.980 -0.5682 -1.3169 -0.0286
12118TIP3   OH257844   4.108   3.775   3.894 -0.1129 -0.0966  0.0823
12118TIP3    H157845   4.153   3.695   3.921 -0.1252 -0.7950 -1.8863
12118TIP3    H257846   4.015   3.756   3.907 -0.0934 -0.2674 -0.0254
12119TIP3   OH257847   0.093   5.484  13.113  0.0311  0.0426  0.5696
12119TIP3    H157848   0.179   5.525  13.098  0.5411 -0.6862  1.4210
12119TIP3    H257849   0.065   5.518  13.198 -1.1519  1.3297 -0.3301
12120TIP3   OH257850   1.456   2.832  14.651 -0.2834  0.3371  0.1223
12120TIP3    H157851   1.525   2.896  14.638  0.5944 -0.1683  2.0908
12120TIP3    H257852   1.415   2.823  14.565  1.7327  1.0342 -0.9412
12121TIP3   OH257853   1.767   3.516  14.917 -0.0897 -0.0933  0.0190
12121TIP3    H157854   1.722   3.593  14.952  0.0058 -0.0799  0.1130
12121TIP3    H257855   1.744   3.516  14.824  0.0813  0.1685 -0.0254
12122TIP3   OH257856   4.495   1.952   5.124  0.4457  0.1152  0.0487
12122TIP3    H157857   4.568   1.903   5.087  1.0176  0.1737  1.0781
12122TIP3    H257858   4.512   1.953   5.218 -0.1657  1.3072  0.1526
12123TIP3   OH257859   2.331   5.987  15.498 -0.1691 -0.0644 -0.0590
12123TIP3    H157860   2.317   5.909  15.552  1.4994 -0.6479 -0.4428
12123TIP3    H257861   2.302   6.060  15.553  1.9226 -0.5888  1.8120
12124TIP3   OH257862   3.620   2.100   0.151  0.3564 -0.2686  0.1201
12124TIP3    H157863   3.689   2.037   0.173 -0.5826 -1.3397  0.0424
12124TIP3    H257864   3.551   2.047   0.112 -1.0859  0.6187  1.4230
12125TIP3   OH257865   4.240   6.272  11.075 -0.3038 -0.5625  0.0684
12125TIP3    H157866   4.202   6.238  10.994 -1.3154 -2.0846  1.1662
12125TIP3    H257867   4.188   6.233  11.145  1.9982 -1.1175  1.5463
12126TIP3   OH257868   0.280   6.500   1.338 -0.5464  0.8065 -0.1733
12126TIP3    H157869   0.365   6.521   1.298 -0.0950 -0.1442  0.2701
12126TIP3    H257870   0.240   6.438   1.276 -1.2020  1.7367 -0.6999
12127TIP3   OH257871   1.904   5.613   4.090  0.0187  0.5552 -0.3910
12127TIP3    H157872   1.912   5.540   4.027 -1.4809  1.3653 -1.5593
12127TIP3    H257873   1.821   5.597   4.134 -0.1986  1.4385 -0.4805
12128TIP3   OH257874   3.719   1.917  12.653 -0.1108  0.5298 -0.5555
12128TIP3    H157875   3.696   1.929  12.561 -0.1089  1.2106 -0.4648
12128TIP3    H257876   3.635   1.921  12.700 -0.3116 -1.4536 -0.6884
12129TIP3   OH257877   1.271   2.236  14.977 -0.5787 -0.0378 -0.0165
12129TIP3    H157878   1.246   2.316  15.023 -0.2711  0.5542 -0.8570
12129TIP3    H257879   1.206   2.227  14.907 -1.1879 -1.0597  0.6784
12130TIP3   OH257880   3.984   6.640  13.537  0.6569  0.1488 -0.0920
12130TIP3    H157881   4.022   6.709  13.483 -0.2381  1.2278  0.6394
12130TIP3    H257882   4.055   6.614  13.596  0.3878  1.9188  1.0459
12131TIP3   OH257883   4.891   3.562  15.235 -0.1238 -0.7025  0.3702
12131TIP3    H157884   4.926   3.630  15.178 -0.4783 -0.6164  0.2582
12131TIP3    H257885   4.853   3.497  15.176  0.7210 -1.2778  0.4534
12132TIP3   OH257886   0.138   1.860  11.516 -0.0178  0.0258 -0.0155
12132TIP3    H157887   0.135   1.881  11.423  0.3777 -0.1120 -0.0603
12132TIP3    H257888   0.065   1.799  11.529 -0.0130 -0.0305 -0.2519
12133TIP3   OH257889   3.103   6.811  12.912 -0.3531  0.5167 -0.5978
12133TIP3    H157890   3.055   6.783  12.835  0.8530 -0.4248 -1.0096
12133TIP3    H257891   3.185   6.848  12.878  0.2286  0.0153  0.2172
12134TIP3   OH257892   4.093   0.478   1.367 -0.0634 -0.4803 -0.1232
12134TIP3    H157893   4.153   0.453   1.437 -0.1185 -1.8741 -0.5645
12134TIP3    H257894   4.012   0.431   1.387 -0.6397  0.4622 -0.1858
12135TIP3   OH257895   6.233   1.404  13.789  0.6321 -0.0271 -0.2702
12135TIP3    H157896   6.139   1.389  13.786  0.5121  0.6198  0.0336
12135TIP3    H257897   6.271   1.329  13.744 -0.1069  0.4553 -1.7468
12136TIP3   OH257898   2.447   6.477   3.951 -0.0746 -0.7756 -0.7958
12136TIP3    H157899   2.445   6.528   3.870 -0.9627 -0.3152 -0.4865
12136TIP3    H257900   2.480   6.537   4.017  1.1867 -1.3158 -0.9238
12137TIP3   OH257901   2.033   1.554   0.572  0.1270 -0.2467  0.1166
12137TIP3    H157902   2.013   1.463   0.594 -0.6753  0.1397  1.0437
12137TIP3    H257903   1.979   1.606   0.632  2.5062  0.8347  1.4227
12138TIP3   OH257904   5.337   2.002  16.715  0.4233  0.4687 -0.6355
12138TIP3    H157905   5.291   1.936  16.663 -0.6922 -0.2163  1.2141
12138TIP3    H257906   5.277   2.077  16.717 -0.2159 -0.0667  0.9434
12139TIP3   OH257907   6.456   4.221   4.790 -0.3661  0.4658  0.3104
12139TIP3    H157908   6.427   4.171   4.866 -0.5484  0.7957  0.4603
12139TIP3    H257909   6.490   4.302   4.827 -1.0344  0.8911 -0.0062
12140TIP3   OH257910   4.556   5.024  12.595  0.2198 -0.3361  0.6634
12140TIP3    H157911   4.635   4.971  12.583 -0.9815 -1.9288 -0.3502
12140TIP3    H257912   4.516   4.989  12.675  0.6264  0.6247  1.3064
12141TIP3   OH257913   3.118   3.888   1.277 -0.1964  0.0202 -0.1864
12141TIP3    H157914   3.158   3.961   1.325  0.9132  1.0343 -2.5918
12141TIP3    H257915   3.188   3.824   1.269 -0.5494 -0.3950  0.0436
12142TIP3   OH257916   1.625   3.048  16.581  0.0047 -0.0465 -0.0885
12142TIP3    H157917   1.596   2.986  16.648 -1.4315 -1.2136 -1.7374
12142TIP3    H257918   1.544   3.091  16.552  0.5609  0.2009 -1.2989
12143TIP3   OH257919   6.035   3.922  14.111  0.3826 -0.0966 -0.1084
12143TIP3    H157920   6.041   3.980  14.187 -1.4069  0.7844 -0.6000
12143TIP3    H257921   6.124   3.888  14.099  1.0068  0.9389  1.4419
12144TIP3   OH257922   4.500   4.851   1.254 -0.0034 -0.6853  0.1926
12144TIP3    H157923   4.516   4.762   1.224  0.8986 -0.6410  0.5191
12144TIP3    H257924   4.490   4.902   1.173  1.6409 -0.7053 -0.0504
12145TIP3   OH257925   6.304   2.326  12.803 -0.4854  0.0589 -0.6883
12145TIP3    H157926   6.252   2.247  12.820 -1.3352  0.5531 -0.9997
12145TIP3    H257927   6.361   2.301  12.730 -2.2219  0.3863 -2.1909
12146TIP3   OH257928   3.669   1.462   6.034 -0.4287  0.4133  0.1607
12146TIP3    H157929   3.582   1.489   6.005 -1.1797 -1.0264  1.0297
12146TIP3    H257930   3.653   1.412   6.114  1.2811  0.9390  0.8535
12147TIP3   OH257931   2.697   2.064   4.153  0.3162  0.1278 -0.1953
12147TIP3    H157932   2.616   2.038   4.197  0.8970  0.4855  1.1345
12147TIP3    H257933   2.742   1.982   4.134 -0.8679 -0.1253 -1.9626
12148TIP3   OH257934   5.476   5.498  17.146 -0.0113 -0.7272 -0.5966
12148TIP3    H157935   5.501   5.470  17.058 -1.2683  0.2833 -1.2962
12148TIP3    H257936   5.488   5.593  17.145 -0.3516 -0.6659  0.2156
12149TIP3   OH257937   6.060   5.677   5.723 -0.1246  0.4055 -0.0818
12149TIP3    H157938   6.120   5.710   5.790  0.0322  2.5656 -1.2688
12149TIP3    H257939   6.035   5.754   5.672 -2.5462 -0.7394 -0.7078
12150TIP3   OH257940   1.898   5.575  12.795 -0.3966 -0.3448  0.4357
12150TIP3    H157941   1.811   5.611  12.812 -1.7391 -4.0866  2.0683
12150TIP3    H257942   1.930   5.548  12.882  1.4790 -0.9992 -0.4345
12151TIP3   OH257943   5.639   3.883  16.210  0.5139 -0.6179 -0.2717
12151TIP3    H157944   5.645   3.948  16.139 -1.4537  0.9269  0.9273
12151TIP3    H257945   5.550   3.848  16.202  0.9059 -1.7384  0.3285
12152TIP3   OH257946   4.998   4.325  12.347 -0.0269  0.3608  0.6451
12152TIP3    H157947   5.009   4.240  12.304 -1.3548  0.1136  0.7790
12152TIP3    H257948   4.914   4.319  12.392 -0.0650  1.6988  0.7780
12153TIP3   OH257949   5.747   0.897  14.692  0.1542 -0.0010 -0.3560
12153TIP3    H157950   5.723   0.829  14.754  1.0605 -0.2402 -0.2513
12153TIP3    H257951   5.712   0.868  14.608  0.5665 -0.6199 -0.3187
12154TIP3   OH257952   2.812   4.812   5.744 -0.4431  0.4252  0.3470
12154TIP3    H157953   2.782   4.903   5.750  0.8595  0.8399  0.6794
12154TIP3    H257954   2.757   4.765   5.807 -0.5419  1.1330  0.7961
12155TIP3   OH257955   0.414   5.593   0.710 -0.0551  0.2793 -0.0621
12155TIP3    H157956   0.365   5.610   0.630  0.6041  1.5418 -0.2138
12155TIP3    H257957   0.465   5.514   0.690 -0.3212  0.2625 -0.6981
12156TIP3   OH257958   1.356   5.253   2.315 -0.2506  0.0521 -0.3784
12156TIP3    H157959   1.443   5.282   2.343 -1.5289  1.9375  1.7913
12156TIP3    H257960   1.364   5.241   2.220  2.0362  1.4722 -0.3950
12157TIP3   OH257961   5.252   2.005   2.911  0.4543 -0.1086 -0.7377
12157TIP3    H157962   5.300   2.027   2.990  0.7945 -0.4336 -0.8567
12157TIP3    H257963   5.161   1.998   2.940  0.4420  0.7125 -0.5543
12158TIP3   OH257964   3.744   3.424   5.773  0.1264  0.1613  0.3190
12158TIP3    H157965   3.683   3.478   5.824  0.9894  0.7572  0.7289
12158TIP3    H257966   3.720   3.440   5.682  1.0090  2.0087  0.3957
12159TIP3   OH257967   6.319   4.834  13.320  0.0820  0.6337  0.7508
12159TIP3    H157968   6.271   4.815  13.400 -0.1462  1.8675  0.9100
12159TIP3    H257969   6.301   4.926  13.301 -0.3143  0.2197 -1.0185
12160TIP3   OH257970   6.232   2.258  14.834  0.2431  0.6813  0.7156
12160TIP3    H157971   6.207   2.276  14.925 -0.4130  1.1839  0.4418
12160TIP3    H257972   6.215   2.341  14.788 -0.4840  0.0900 -0.0851
12161TIP3   OH257973   5.380   3.237  14.943  0.2156  0.3246 -0.1735
12161TIP3    H157974   5.378   3.244  14.847  0.9408  0.9433 -0.1453
12161TIP3    H257975   5.453   3.178  14.962  0.2902  0.4740  0.0109
12162TIP3   OH257976   4.398   1.367  16.061  0.4618 -0.1890  0.0105
12162TIP3    H157977   4.313   1.391  16.025  1.8641  1.9483 -1.9968
12162TIP3    H257978   4.402   1.412  16.145 -1.6843 -2.9654  1.6992
12163TIP3   OH257979   0.822   4.854  13.518  0.0199 -0.7998 -0.0896
12163TIP3    H157980   0.912   4.832  13.541 -0.4334 -0.9406  1.5828
12163TIP3    H257981   0.778   4.866  13.602 -1.6423 -1.1933 -0.8962
12164TIP3   OH257982   2.876   5.309  15.599  0.2400  0.3301  0.0299
12164TIP3    H157983   2.906   5.330  15.511 -0.1622 -0.0457 -0.2015
12164TIP3    H257984   2.862   5.395  15.640  0.0664  0.5135 -0.4006
12165TIP3   OH257985   5.352   2.931  12.422  0.4170  0.6740 -0.2999
12165TIP3    H157986   5.430   2.877  12.420  0.3387  0.5234  0.5404
12165TIP3    H257987   5.279   2.869  12.415  0.3395  0.7045  0.2231
12166TIP3   OH257988   5.490   2.742  11.146  0.1599 -0.0656 -0.1486
12166TIP3    H157989   5.488   2.785  11.061  1.4260  0.0525 -0.1187
12166TIP3    H257990   5.398   2.734  11.171 -0.2939 -1.3595 -2.1543
12167TIP3   OH257991   5.654   3.023  12.128  0.0200 -0.1537 -0.3665
12167TIP3    H157992   5.713   2.972  12.183 -0.3949  0.0530  0.2739
12167TIP3    H257993   5.619   3.091  12.186 -0.9634 -0.3670 -0.7001
12168TIP3   OH257994   1.268   4.694  12.187 -0.5758  0.4117 -0.2803
12168TIP3    H157995   1.195   4.687  12.249 -2.3021 -1.4441 -2.4371
12168TIP3    H257996   1.345   4.673  12.240 -1.9155 -0.3694  1.4470
12169TIP3   OH257997   3.082   4.576   5.025  0.3707 -0.5420  0.7203
12169TIP3    H157998   3.066   4.602   4.935  2.5702  0.8216  0.6735
12169TIP3    H257999   3.111   4.485   5.019 -1.2287 -1.0317  0.2521
12170TIP3   OH258000   0.280   1.194  13.791  0.5081  0.1107 -0.4243
12170TIP3    H158001   0.197   1.238  13.811 -0.3278 -0.9863 -1.4312
12170TIP3    H258002   0.330   1.260  13.742 -0.4961  0.1826 -1.3840
12171TIP3   OH258003   5.789   1.418   0.236  0.6637  0.3762  0.8563
12171TIP3    H158004   5.852   1.458   0.296  0.1187  1.3605  0.7859
12171TIP3    H258005   5.750   1.492   0.190 -0.4634 -0.2358  0.8178
12172TIP3   OH258006   3.819   1.558   5.472 -0.4531 -0.0961  0.1656
12172TIP3    H158007   3.866   1.477   5.490 -1.4121 -0.2689  2.0480
12172TIP3    H258008   3.788   1.548   5.382  1.2912 -0.8643 -0.3646
12173TIP3   OH258009   2.929   3.086   5.293  0.3310  0.1580  0.4386
12173TIP3    H158010   2.988   3.115   5.224  0.9986 -0.0941  0.9004
12173TIP3    H258011   2.967   3.121   5.374  1.4264 -2.3747  1.0695
12174TIP3   OH258012   2.253   4.365   2.339 -0.0928  0.9040 -0.2660
12174TIP3    H158013   2.334   4.341   2.384 -1.2002 -0.8291  0.8691
12174TIP3    H258014   2.271   4.345   2.247  0.4365 -0.4297  0.1119
12175TIP3   OH258015   5.766   3.113  13.461 -0.1029 -0.2419 -0.9145
12175TIP3    H158016   5.811   3.109  13.546 -2.7498  2.8905  0.7630
12175TIP3    H258017   5.835   3.134  13.398  1.3356  0.9891  1.0158
12176TIP3   OH258018   3.043   5.721   2.362 -0.1779  0.0309 -0.4167
12176TIP3    H158019   2.960   5.716   2.410  1.9285 -0.8067  3.3892
12176TIP3    H258020   3.040   5.648   2.301 -2.4244  0.2944 -0.6537
12177TIP3   OH258021   6.777   4.519  17.102 -0.3707  0.4795 -0.2654
12177TIP3    H158022   6.705   4.561  17.056 -0.6893  0.5113  0.2551
12177TIP3    H258023   6.781   4.565  17.186  1.5148  1.8124 -1.0449
12178TIP3   OH258024   1.936   3.122  14.329  0.9970 -0.2530 -0.4818
12178TIP3    H158025   2.019   3.156  14.295  0.5209  1.0982 -0.3188
12178TIP3    H258026   1.932   3.155  14.419 -0.0084  0.1928 -0.6886
12179TIP3   OH258027   6.528   6.482   2.914 -0.1904 -0.3009  0.0855
12179TIP3    H158028   6.453   6.462   2.971 -1.3283 -0.1525 -1.3366
12179TIP3    H258029   6.506   6.568   2.876  0.6626 -0.2934 -0.3904
12180TIP3   OH258030   2.170   4.948  14.705  0.1926  0.6343 -0.0193
12180TIP3    H158031   2.095   4.892  14.723 -0.4649  1.4580 -0.1809
12180TIP3    H258032   2.206   4.970  14.791  0.7728 -0.4632  0.0229
12181TIP3   OH258033   4.302   3.096  12.014 -0.2756  0.1738 -0.3277
12181TIP3    H158034   4.328   3.126  12.101 -0.6646 -0.9212  0.1844
12181TIP3    H258035   4.351   3.014  12.002 -2.0878 -0.9647 -0.1019
12182TIP3   OH258036   3.632   3.672  13.578  0.1890  0.6381  0.8152
12182TIP3    H158037   3.715   3.668  13.625  0.2596  0.8010  0.7029
12182TIP3    H258038   3.617   3.582  13.548  1.2695  0.9938 -0.8204
12183TIP3   OH258039   0.792   0.963  14.278  0.4900 -0.0254  0.3583
12183TIP3    H158040   0.721   0.906  14.305  1.7822 -1.6000  0.5091
12183TIP3    H258041   0.766   0.995  14.192 -0.6017 -0.2248  0.6062
12184TIP3   OH258042   2.126   6.092   5.519 -0.0913  0.0304  0.3745
12184TIP3    H158043   2.036   6.091   5.551 -0.4073 -0.9926 -0.5362
12184TIP3    H258044   2.132   6.172   5.465 -0.1578  0.6222  1.2309
12185TIP3   OH258045   5.869   6.469   5.580  0.8089  0.2162 -0.0094
12185TIP3    H158046   5.825   6.389   5.549  0.1870  0.8056 -0.6625
12185TIP3    H258047   5.811   6.540   5.553  1.9126  0.9661 -0.4290
12186TIP3   OH258048   3.796   2.526   3.916  0.2355 -0.4759  0.1528
12186TIP3    H158049   3.718   2.476   3.893 -0.8280  0.6178  1.2774
12186TIP3    H258050   3.856   2.512   3.843 -1.0271 -1.3107 -0.7436
12187TIP3   OH258051   0.063   5.712  11.069 -0.3508 -0.1703  0.4029
12187TIP3    H158052   0.014   5.777  11.119 -1.2159  0.0059 -0.6687
12187TIP3    H258053   0.021   5.710  10.983  0.1952 -1.5449  0.1539
12188TIP3   OH258054   6.432   2.267   3.940  0.0994  0.0376  0.5750
12188TIP3    H158055   6.418   2.297   3.850  0.8210  1.1525  0.8333
12188TIP3    H258056   6.345   2.235   3.967 -0.3734  0.6801 -0.1454
12189TIP3   OH258057   3.104   2.809  16.475  0.5035 -0.4979 -0.2656
12189TIP3    H158058   3.074   2.776  16.390 -0.7102 -2.0153  0.7358
12189TIP3    H258059   3.188   2.765  16.489  1.1187  0.3872 -1.0257
12190TIP3   OH258060   1.735   0.610  12.376 -0.1065 -0.0381  0.9366
12190TIP3    H158061   1.796   0.654  12.317  0.6914 -2.6378 -0.2454
12190TIP3    H258062   1.682   0.554  12.319 -1.1580 -0.5399  2.3665
12191TIP3   OH258063   5.089   3.966   3.349 -0.5001  0.6061 -0.1609
12191TIP3    H158064   5.101   3.881   3.306  2.2881  1.9229 -2.1594
12191TIP3    H258065   5.030   3.948   3.422  0.5280 -3.1640 -0.1610
12192TIP3   OH258066   1.013   2.188  14.455  0.2819 -0.4082  0.1983
12192TIP3    H158067   1.016   2.236  14.538 -0.8179  0.6059 -0.3380
12192TIP3    H258068   1.104   2.185  14.426  0.4135  1.0088  0.4330
12193TIP3   OH258069   3.807   5.920  12.125  0.0025  0.1592  0.8445
12193TIP3    H158070   3.748   5.982  12.168  1.0012  1.6337  0.1215
12193TIP3    H258071   3.797   5.938  12.032 -1.0121 -1.9927  0.5056
12194TIP3   OH258072   2.861   2.686   4.653  0.0608  0.1782  0.0155
12194TIP3    H158073   2.911   2.604   4.658 -0.9383 -0.3807  1.0735
12194TIP3    H258074   2.916   2.744   4.601  0.6193 -1.2831 -1.0491
12195TIP3   OH258075   4.005   2.593   0.936  0.1809 -0.7876  0.1416
12195TIP3    H158076   3.966   2.611   1.021  0.2401 -2.0382  0.4432
12195TIP3    H258077   4.100   2.597   0.952  0.1875  0.4109 -0.1842
12196TIP3   OH258078   5.044   5.546   1.224  0.1342 -0.2933  0.1070
12196TIP3    H158079   4.997   5.468   1.256  0.0017  1.2629  3.9602
12196TIP3    H258080   4.976   5.611   1.210  0.5846  0.2513  0.4131
12197TIP3   OH258081   6.212   5.574  10.674  0.5788  0.2687  0.4988
12197TIP3    H158082   6.152   5.539  10.741  0.5380  1.9581  1.3724
12197TIP3    H258083   6.285   5.609  10.724  1.5366 -0.2884 -0.4848
12198TIP3   OH258084   5.358   0.063  13.382  0.3855 -0.2140  0.4232
12198TIP3    H158085   5.451   0.059  13.404  0.3786 -2.0537  0.1591
12198TIP3    H258086   5.356   0.086  13.289  0.5778 -0.4904  0.3524
12199TIP3   OH258087   5.401   5.311  15.900  0.7074  0.0528 -0.3482
12199TIP3    H158088   5.360   5.270  15.976 -0.4097  0.1876 -0.8709
12199TIP3    H258089   5.474   5.362  15.937 -0.5883  1.1513  0.7859
12200TIP3   OH258090   3.085   4.719   0.950  0.1415  0.2495  0.3798
12200TIP3    H158091   3.022   4.673   1.005  0.1434  2.7907  2.5952
12200TIP3    H258092   3.032   4.761   0.883 -0.2374  0.2014  0.6509
12201TIP3   OH258093   0.576   6.402  14.450  0.1965  0.1607  0.2441
12201TIP3    H158094   0.493   6.391  14.495  0.4787  1.1622  1.0171
12201TIP3    H258095   0.573   6.338  14.379 -1.5200  0.6724 -0.1616
12202TIP3   OH258096   5.455   1.185  17.259 -0.1228 -0.7490 -0.1122
12202TIP3    H158097   5.420   1.271  17.233  2.0980 -0.3011 -1.7536
12202TIP3    H258098   5.501   1.202  17.341 -1.9896 -0.9507  1.0106
12203TIP3   OH258099   3.056   3.365   2.727  0.3133  0.0855 -0.8750
12203TIP3    H158100   3.057   3.420   2.805  0.9556 -2.4079  0.9367
12203TIP3    H258101   2.974   3.389   2.683 -1.6129 -0.5060  2.1442
12204TIP3   OH258102   1.046   0.704   2.536 -0.0919  0.2524 -0.2044
12204TIP3    H158103   1.117   0.748   2.489  0.6437 -0.4187  0.2495
12204TIP3    H258104   1.002   0.774   2.584  0.7027  0.5855  0.0570
12205TIP3   OH258105   6.019   4.695   4.452  0.2253  0.0255  0.0009
12205TIP3    H158106   6.009   4.605   4.421  1.8360 -0.6597  1.3717
12205TIP3    H258107   5.929   4.727   4.463 -0.3721 -1.7174  0.3391
12206TIP3   OH258108   6.560   1.001   5.611  0.1540 -0.2782 -0.6848
12206TIP3    H158109   6.495   1.020   5.544  0.9013  2.2841 -0.7405
12206TIP3    H258110   6.624   1.072   5.604  0.3980 -0.1110  2.5236
12207TIP3   OH258111   3.840   1.725   1.091  0.4382  0.9040 -0.0623
12207TIP3    H158112   3.849   1.702   1.184  1.3543  1.3148 -0.0366
12207TIP3    H258113   3.803   1.648   1.050  0.4883  0.5419  0.5704
12208TIP3   OH258114   0.906   0.955  17.244  0.2823 -0.1624  0.0169
12208TIP3    H158115   0.870   1.013  17.178  2.1298 -0.1550 -1.0167
12208TIP3    H258116   0.906   1.007  17.325 -1.8905 -0.1434  0.0211
12209TIP3   OH258117   3.992   2.997  16.861  0.2273  0.1133  0.4058
12209TIP3    H158118   4.006   2.982  16.768 -1.0661  0.1687  0.1950
12209TIP3    H258119   4.072   2.967  16.903  1.0067  0.5480 -0.7709
12210TIP3   OH258120   4.311   4.463   5.771  0.0927  0.0870 -0.0223
12210TIP3    H158121   4.400   4.497   5.765  0.6499 -1.1172  1.1685
12210TIP3    H258122   4.269   4.519   5.837 -0.7458  2.1193 -2.2361
12211TIP3   OH258123   4.398   2.185  16.624 -0.0648  0.6281 -0.1980
12211TIP3    H158124   4.491   2.162  16.626  0.1342  1.4746  0.5886
12211TIP3    H258125   4.394   2.268  16.576 -0.4129  0.6169 -0.1920
12212TIP3   OH258126   0.852   5.121  12.789 -0.6904 -0.1631  0.0938
12212TIP3    H158127   0.873   5.210  12.760 -1.5750 -0.1349 -0.4610
12212TIP3    H258128   0.860   5.068  12.709 -1.0144 -0.4411  0.2471
12213TIP3   OH258129   3.245   3.028  15.735 -0.4633  0.1047  0.3885
12213TIP3    H158130   3.187   3.064  15.667  0.0283 -1.2336 -0.7669
12213TIP3    H258131   3.253   3.099  15.799  0.6620  2.1719 -1.9409
12214TIP3   OH258132   5.128   1.370   6.589  0.3526  0.5618 -0.1418
12214TIP3    H158133   5.197   1.305   6.576  0.6804  1.0548 -0.8799
12214TIP3    H258134   5.054   1.319   6.622 -0.2103 -0.6340 -3.0108
12215TIP3   OH258135   4.804   5.076  15.446  0.5089 -0.2586 -0.3885
12215TIP3    H158136   4.817   5.017  15.520  0.1546  2.3234  1.8513
12215TIP3    H258137   4.718   5.052  15.411  1.1413 -2.2096 -0.6343
12216TIP3   OH258138   1.328   3.505   4.867 -0.4973 -0.4445 -0.2441
12216TIP3    H158139   1.239   3.523   4.835  0.6434  0.0802 -3.2817
12216TIP3    H258140   1.339   3.411   4.853 -0.2439 -0.3416 -0.7286
12217TIP3   OH258141   5.195   4.687   6.039  0.6040  0.4252  0.1321
12217TIP3    H158142   5.235   4.763   5.996 -0.0871  1.9952  2.2019
12217TIP3    H258143   5.107   4.681   6.001  0.6483  0.6784 -0.0111
12218TIP3   OH258144   6.152   1.243  16.044  0.4024  0.1650  0.0360
12218TIP3    H158145   6.135   1.216  16.135  0.2297  0.6554  0.1494
12218TIP3    H258146   6.233   1.294  16.049  1.0296 -0.7925 -0.2648
12219TIP3   OH258147   5.891   5.534  12.751 -0.2871 -0.1050  0.6122
12219TIP3    H158148   5.978   5.528  12.712 -0.8329  2.6567 -1.1854
12219TIP3    H258149   5.890   5.619  12.796 -1.6539 -0.6501  1.6712
12220TIP3   OH258150   0.785   2.561  15.723 -0.0981 -0.1759 -0.0279
12220TIP3    H158151   0.810   2.590  15.636  1.3512 -0.2477  0.3468
12220TIP3    H258152   0.694   2.590  15.733 -0.1225  0.2331 -1.3774
12221TIP3   OH258153   6.776   5.937   5.315 -0.6143  0.0754 -0.1529
12221TIP3    H158154   6.728   5.874   5.368  0.1085  0.3056  0.7756
12221TIP3    H258155   6.842   5.886   5.270  0.3374  0.2485  1.0335
12222TIP3   OH258156   3.950   3.072  12.881 -0.5150 -0.2638 -0.0558
12222TIP3    H158157   4.001   3.091  12.801 -1.6168 -1.2150 -1.0057
12222TIP3    H258158   3.978   3.139  12.943  1.9908 -0.8134 -0.5054
12223TIP3   OH258159   0.369   3.439   1.050  0.4945  0.0396  0.8071
12223TIP3    H158160   0.352   3.451   0.956  0.5528  1.6972  0.9872
12223TIP3    H258161   0.282   3.423   1.088  0.0733  2.2935  0.8606
12224TIP3   OH258162   6.416   6.230   5.933  0.5533  0.2786 -0.1852
12224TIP3    H158163   6.384   6.290   5.867 -1.7706  0.2800  0.9160
12224TIP3    H258164   6.343   6.217   5.993  2.1020 -0.9305  1.5401
12225TIP3   OH258165   4.642   3.846   1.081  0.2943  0.5402  0.2774
12225TIP3    H158166   4.573   3.861   1.145  1.1071  1.2525  1.0027
12225TIP3    H258167   4.602   3.788   1.016 -1.2847  1.6975  0.1788
12226TIP3   OH258168   0.458   4.835   5.032  0.0820  0.2941  0.0015
12226TIP3    H158169   0.380   4.889   5.040  0.5711  0.9130  0.7117
12226TIP3    H258170   0.433   4.751   5.071 -0.1777  0.5422  0.3745
12227TIP3   OH258171   4.535   5.271  13.993  0.2712  0.3226 -0.3496
12227TIP3    H158172   4.485   5.206  13.944 -1.3333  1.7107 -0.5946
12227TIP3    H258173   4.605   5.221  14.035 -0.6594 -1.4792 -0.9053
12228TIP3   OH258174   2.367   5.993  11.406  0.9748 -0.0780  0.2057
12228TIP3    H158175   2.393   5.911  11.447  1.0457 -1.0185 -1.6502
12228TIP3    H258176   2.435   6.056  11.432 -0.4858  0.0844  3.7681
12229TIP3   OH258177   6.061   6.174  16.742 -0.4683  0.1672  0.3501
12229TIP3    H158178   6.125   6.188  16.812 -1.1918  0.5982  0.9389
12229TIP3    H258179   6.068   6.080  16.722  2.7279  0.7940 -1.9599
12230TIP3   OH258180   6.371   2.912  11.842  0.4032 -0.4215  0.3267
12230TIP3    H158181   6.404   3.001  11.846  0.3805 -0.2783 -1.9357
12230TIP3    H258182   6.277   2.922  11.828  0.5776 -0.7753 -1.1744
12231TIP3   OH258183   2.759   4.891  11.280 -0.2037  0.1403 -0.2212
12231TIP3    H158184   2.679   4.887  11.333 -0.2904  0.9202 -0.2917
12231TIP3    H258185   2.830   4.889  11.344 -0.2846 -0.2702 -0.1435
12232TIP3   OH258186   3.648   3.745   1.854 -1.0349  0.4971 -0.6583
12232TIP3    H158187   3.584   3.791   1.908 -0.8120 -0.1116  0.1356
12232TIP3    H258188   3.595   3.694   1.792 -1.3034  0.5933 -0.5067
12233TIP3   OH258189   4.481   3.419   3.989 -0.2118  0.1399 -0.1149
12233TIP3    H158190   4.503   3.493   3.933  1.4651  0.5454  1.0357
12233TIP3    H258191   4.470   3.457   4.076  0.0807 -0.8737  0.3759
12234TIP3   OH258192   4.926   4.412  11.307  0.4972  0.0637 -0.5551
12234TIP3    H158193   4.832   4.426  11.300  0.5523  0.2788 -0.9245
12234TIP3    H258194   4.957   4.480  11.367  0.2663 -0.6649  0.3884
12235TIP3   OH258195   2.199   3.225  13.724  0.1960  0.2396 -0.3819
12235TIP3    H158196   2.125   3.285  13.712  0.7144  0.6752 -1.5343
12235TIP3    H258197   2.169   3.142  13.686  0.3679  0.4735 -1.0344
12236TIP3   OH258198   2.921   5.995  15.949 -0.0203  0.7104 -0.7690
12236TIP3    H158199   2.992   5.933  15.928 -0.6827  0.2846 -1.7913
12236TIP3    H258200   2.966   6.079  15.962  0.6318  0.5589 -1.9434
12237TIP3   OH258201   3.087   5.501  16.400 -0.5454 -0.0274 -0.4100
12237TIP3    H158202   3.048   5.588  16.408  0.7777  0.4432  1.4580
12237TIP3    H258203   3.014   5.441  16.411 -1.1265  0.8414  0.5968
12238TIP3   OH258204   5.502   0.875   5.128 -0.1588 -0.3360  0.2406
12238TIP3    H158205   5.475   0.957   5.170  1.1431  0.0661  0.3197
12238TIP3    H258206   5.552   0.830   5.196  2.4945  0.5936 -1.0531
12239TIP3   OH258207   0.545   4.605   3.512  0.3169  0.5404 -0.1448
12239TIP3    H158208   0.563   4.687   3.558 -0.3055  1.6655 -1.8791
12239TIP3    H258209   0.478   4.562   3.565  1.1097  0.8248  1.1192
12240TIP3   OH258210   6.639   4.945  15.442 -0.6918  0.4487 -0.4148
12240TIP3    H158211   6.670   5.009  15.378 -0.0616 -0.2595 -0.8292
12240TIP3    H258212   6.713   4.933  15.502 -1.3291  1.2216  0.5446
12241TIP3   OH258213   0.314   1.305  15.297 -0.1770 -0.2877  0.0856
12241TIP3    H158214   0.287   1.363  15.226  0.3929  0.5189  0.5203
12241TIP3    H258215   0.232   1.283  15.341 -0.4227  0.0298 -0.2030
12242TIP3   OH258216   5.705   6.272  11.108  0.0558 -0.2814  0.0420
12242TIP3    H158217   5.744   6.286  11.194  1.5284 -0.1043 -0.6565
12242TIP3    H258218   5.692   6.178  11.103 -0.9733 -0.1947  0.8576
12243TIP3   OH258219   1.176   4.230   1.546  0.4912 -0.4516  0.4651
12243TIP3    H158220   1.101   4.273   1.586  1.1574 -0.8204  2.1452
12243TIP3    H258221   1.196   4.283   1.469  0.0194  1.0639  1.3694
12244TIP3   OH258222   6.764   2.447   2.900  0.8267  0.3472 -0.1145
12244TIP3    H158223   6.742   2.428   2.991 -0.1971  0.1598 -0.3897
12244TIP3    H258224   6.816   2.527   2.903 -0.3206  1.0751  0.5248
12245TIP3   OH258225   3.205   1.242  12.183  0.9913  0.2228  0.1895
12245TIP3    H158226   3.172   1.170  12.129  1.3851  0.6707 -0.6553
12245TIP3    H258227   3.138   1.310  12.174  0.6891  0.0220  0.8749
12246TIP3   OH258228   1.992   4.202   2.192  0.3076 -0.6131 -0.1601
12246TIP3    H158229   2.062   4.244   2.141 -1.5699  1.9785 -0.7184
12246TIP3    H258230   2.000   4.240   2.279 -0.0571 -0.7106 -0.0841
12247TIP3   OH258231   1.176   4.503   1.818 -0.3215 -0.0117  0.3616
12247TIP3    H158232   1.154   4.578   1.872 -1.5022  0.7035 -1.0820
12247TIP3    H258233   1.258   4.470   1.854 -0.7693  0.8284  2.1733
12248TIP3   OH258234   2.928   5.972   1.089 -0.3458 -0.1818  0.8201
12248TIP3    H158235   3.000   6.000   1.033  0.3226 -2.4094  0.5413
12248TIP3    H258236   2.854   5.960   1.030 -0.0123 -1.1859  0.5939
12249TIP3   OH258237   5.751   3.273  17.210  0.0026 -0.4285  0.1337
12249TIP3    H158238   5.740   3.288  17.116 -0.3748  0.0738  0.2616
12249TIP3    H258239   5.820   3.335  17.236  1.4028 -1.8198 -0.1609
12250TIP3   OH258240   4.173   1.184  16.444  0.1863  0.1450 -0.3716
12250TIP3    H158241   4.260   1.212  16.475  1.3466  0.6265 -3.8536
12250TIP3    H258242   4.183   1.091  16.425  0.1163  0.3296 -1.3282
12251TIP3   OH258243   6.426   6.144   4.148  0.1218 -0.0564 -0.1784
12251TIP3    H158244   6.386   6.064   4.183 -1.2187  0.9859  0.7298
12251TIP3    H258245   6.519   6.137   4.170 -0.2132 -0.7513  1.0306
12252TIP3   OH258246   2.030   0.450  14.161 -0.2851 -0.2545 -0.0824
12252TIP3    H158247   2.110   0.397  14.164  0.3007  0.6325  0.2224
12252TIP3    H258248   1.964   0.397  14.206  0.8551  0.2169  2.1812
12253TIP3   OH258249   3.996   6.196  13.224 -0.6298  0.1812 -0.2630
12253TIP3    H158250   4.086   6.183  13.193 -0.8710  2.5349 -2.0132
12253TIP3    H258251   4.006   6.240  13.308 -0.1495  1.2642 -0.8790
12254TIP3   OH258252   2.035   2.906  10.854  0.0999  0.0705 -0.2426
12254TIP3    H158253   2.044   2.957  10.773 -0.8001 -0.4373 -0.6685
12254TIP3    H258254   2.027   2.816  10.825  2.2150 -0.3929  0.5444
12255TIP3   OH258255   4.763   3.806  16.384 -0.0807  0.3065 -0.3785
12255TIP3    H158256   4.674   3.798  16.418  0.4764 -1.2836  0.7716
12255TIP3    H258257   4.794   3.715  16.377  2.1687  0.9064  1.2097
12256TIP3   OH258258   2.122   6.495  11.126  0.0022 -0.9580  0.8838
12256TIP3    H158259   2.096   6.566  11.184  1.0400 -0.7048  1.0533
12256TIP3    H258260   2.111   6.530  11.038 -0.2144 -0.8561  0.9517
12257TIP3   OH258261   1.826   5.314   6.071 -0.1915  0.6500  0.6176
12257TIP3    H158262   1.789   5.281   5.990 -0.2632  0.5794  0.6796
12257TIP3    H258263   1.883   5.387   6.043 -0.2618  0.6636  0.5109
12258TIP3   OH258264   2.813   1.241   4.809  0.4768  0.4672 -0.0861
12258TIP3    H158265   2.839   1.296   4.735 -1.2942  2.1668  0.5171
12258TIP3    H258266   2.845   1.288   4.886  2.2677 -1.2686  0.2632
12259TIP3   OH258267   4.574   5.603  11.906 -0.2528 -0.5252 -0.2691
12259TIP3    H158268   4.542   5.687  11.938 -0.4511 -0.5911 -0.2940
12259TIP3    H258269   4.638   5.575  11.972 -2.9693 -2.1923  1.7939
12260TIP3   OH258270   1.656   5.407  11.520 -0.3258  0.6449 -0.5344
12260TIP3    H158271   1.588   5.474  11.520 -1.0596 -0.0879 -0.0145
12260TIP3    H258272   1.608   5.324  11.531  0.7913  0.2827  2.1005
12261TIP3   OH258273   2.448   0.586   5.379  0.4390  0.8499 -0.2388
12261TIP3    H158274   2.434   0.494   5.358  0.5493  0.7793 -0.0037
12261TIP3    H258275   2.368   0.612   5.425 -0.0518  1.1596 -1.2470
12262TIP3   OH258276   6.355   0.178   2.418  0.0636  0.3993 -0.4587
12262TIP3    H158277   6.438   0.153   2.378  0.7199  1.6867  0.0285
12262TIP3    H258278   6.328   0.257   2.371 -1.0370 -0.1639 -0.7972
12263TIP3   OH258279   0.486   2.255  17.110  0.3385  0.4831  0.1445
12263TIP3    H158280   0.463   2.257  17.017  0.8599 -1.8801 -0.0518
12263TIP3    H258281   0.574   2.292  17.114  1.0021 -0.9631 -0.5420
12264TIP3   OH258282   0.493   0.966   1.009 -0.3421  0.1984  0.3081
12264TIP3    H158283   0.414   0.926   1.045 -0.4967 -0.4427 -0.7411
12264TIP3    H258284   0.551   0.893   0.990 -0.1484  0.5496 -0.4744
12265TIP3   OH258285   3.968   5.372   0.563 -0.6091 -0.0901  0.4108
12265TIP3    H158286   4.001   5.285   0.541 -0.5255  0.3512 -1.2612
12265TIP3    H258287   3.874   5.367   0.548 -0.4723  0.3820 -0.6554
12266TIP3   OH258288   4.050   3.851  16.989  0.2433 -0.0642 -0.3954
12266TIP3    H158289   3.982   3.911  17.018 -1.3505 -0.9495 -2.2450
12266TIP3    H258290   4.066   3.795  17.065 -0.3081  0.8331  0.3936
12267TIP3   OH258291   4.925   6.246   0.089  0.5091 -0.3107  0.1118
12267TIP3    H158292   4.893   6.211   0.172 -0.1125 -0.8914 -0.3763
12267TIP3    H258293   5.013   6.210   0.080  0.2470 -0.9402  0.0933
12268TIP3   OH258294   0.146   4.175  12.703 -0.0886  0.2138  0.1579
12268TIP3    H158295   0.104   4.138  12.626  2.9592 -0.1539 -1.4035
12268TIP3    H258296   0.237   4.189  12.677  1.0657 -0.0254  3.7303
12269TIP3   OH258297   6.182   4.734   4.663  0.0040  0.3101  0.1232
12269TIP3    H158298   6.131   4.708   4.586  1.2030  2.2001 -1.3679
12269TIP3    H258299   6.168   4.828   4.671  1.3501  0.4437  1.1146
12270TIP3   OH258300   3.761   3.747  15.599  0.0919  0.1965 -0.3100
12270TIP3    H158301   3.687   3.766  15.540  0.1005 -2.4982 -1.2392
12270TIP3    H258302   3.816   3.826  15.593 -1.3415  1.1372 -1.7012
12271TIP3   OH258303   5.980   6.555   5.095 -0.0480 -0.3005 -0.2987
12271TIP3    H158304   6.060   6.605   5.082  0.1696 -0.7051 -0.5176
12271TIP3    H258305   5.995   6.473   5.049 -0.2797 -0.6972  0.3238
12272TIP3   OH258306   3.028   2.951  11.124  0.0307  0.3507  0.2980
12272TIP3    H158307   3.085   2.965  11.048  1.6785 -3.2644  0.8019
12272TIP3    H258308   3.081   2.976  11.199 -0.6766  1.3151  0.4961
12273TIP3   OH258309   2.009   3.142   4.720 -0.3781 -0.2681 -0.4579
12273TIP3    H158310   1.973   3.062   4.758  1.0889 -0.4784  0.5548
12273TIP3    H258311   1.953   3.161   4.645 -0.2949 -2.6594 -1.1687
12274TIP3   OH258312   6.262   6.184   3.395 -0.6122  0.0569  0.0021
12274TIP3    H158313   6.272   6.089   3.392 -1.6823 -0.0513 -0.3965
12274TIP3    H258314   6.216   6.206   3.313  0.4097  1.0132 -0.3384
12275TIP3   OH258315   2.312   2.043  11.430 -0.2389 -0.5455 -0.0721
12275TIP3    H158316   2.243   1.983  11.459 -0.5713 -0.1869 -0.1152
12275TIP3    H258317   2.271   2.130  11.435  0.4558 -0.2493  0.6605
12276TIP3   OH258318   2.552   6.421   3.527 -0.0591  0.4916 -0.1967
12276TIP3    H158319   2.515   6.493   3.476  0.0973  1.0272  0.4370
12276TIP3    H258320   2.476   6.383   3.571 -0.1082  0.4243 -0.3382
12277TIP3   OH258321   5.830   1.240   5.900 -0.0256 -0.3094  0.2622
12277TIP3    H158322   5.752   1.186   5.894  1.0901 -2.3110  2.7518
12277TIP3    H258323   5.891   1.202   5.837 -0.4282  0.1634 -0.4169
12278TIP3   OH258324   3.111   3.543  16.941  0.3669 -0.4676 -0.1985
12278TIP3    H158325   3.045   3.536  17.009 -1.3136 -0.0927 -1.7357
12278TIP3    H258326   3.160   3.623  16.963 -2.1323  1.3663 -1.0697
12279TIP3   OH258327   2.112   3.717   1.793 -0.1585 -0.1243  0.6977
12279TIP3    H158328   2.132   3.684   1.706 -1.1522 -3.7929  1.7938
12279TIP3    H258329   2.188   3.693   1.846 -0.2052  0.7743  1.1830
12280TIP3   OH258330   0.570   6.138   0.547  0.2127  0.1772 -0.8133
12280TIP3    H158331   0.662   6.159   0.559 -0.5554  3.0236  0.7419
12280TIP3    H258332   0.537   6.124   0.636 -0.8395 -0.8557 -1.3502
12281TIP3   OH258333   2.279   2.594   2.980 -0.0771 -0.6304 -0.0014
12281TIP3    H158334   2.268   2.647   2.901  1.7570  0.7964  0.6587
12281TIP3    H258335   2.214   2.628   3.041 -0.2212 -0.4590 -0.2505
12282TIP3   OH258336   2.519   5.800   3.883  0.5307 -0.0697 -0.0286
12282TIP3    H158337   2.587   5.764   3.827 -0.5505 -2.4916  0.1580
12282TIP3    H258338   2.448   5.736   3.879 -0.6340  1.0368  1.9715
12283TIP3   OH258339   2.257   6.609   5.347  0.1170  0.2058  0.3108
12283TIP3    H158340   2.227   6.690   5.306 -0.3707 -0.8683 -1.5113
12283TIP3    H258341   2.352   6.618   5.350  0.1406  0.4185 -0.8437
12284TIP3   OH258342   4.779   1.919  16.900 -0.1975 -0.6835 -0.3389
12284TIP3    H158343   4.805   1.841  16.950 -2.2249 -0.6185  0.9034
12284TIP3    H258344   4.744   1.979  16.966  0.7242  1.0185 -1.3749
12285TIP3   OH258345   1.822   6.173   1.696  0.4014  0.3125  0.2928
12285TIP3    H158346   1.757   6.234   1.730  0.2485 -0.2447  1.0328
12285TIP3    H258347   1.800   6.164   1.604 -1.4049 -0.8688  0.7984
12286TIP3   OH258348   2.720   4.964   5.251  0.7894 -0.5971 -0.4119
12286TIP3    H158349   2.775   4.965   5.328 -1.2260 -0.8501  1.0806
12286TIP3    H258350   2.635   4.997   5.282  0.4492  0.9981 -2.9029
12287TIP3   OH258351   3.569   6.071  14.240  0.4237  0.3735 -0.3258
12287TIP3    H158352   3.512   6.051  14.165 -0.3562  0.3266  0.2759
12287TIP3    H258353   3.510   6.075  14.315  1.2853 -0.2562  0.4092
12288TIP3   OH258354   5.706   5.742   1.372 -0.0183 -0.0458 -0.2258
12288TIP3    H158355   5.779   5.797   1.344  0.7686 -0.9455  0.0118
12288TIP3    H258356   5.745   5.682   1.436 -1.4199  0.8229  1.4585
12289TIP3   OH258357   0.880   3.687   1.292 -0.0209  0.4321 -0.4066
12289TIP3    H158358   0.907   3.692   1.384 -1.0527 -0.9639 -0.0095
12289TIP3    H258359   0.787   3.710   1.294 -0.4726 -1.2882 -0.8658
12290TIP3   OH258360   1.909   1.585  12.067 -0.0660 -0.1924  0.3741
12290TIP3    H158361   1.944   1.610  12.153 -1.0167  1.1934  0.3721
12290TIP3    H258362   1.947   1.648  12.007  0.9963 -1.4657 -0.3294
12291TIP3   OH258363   4.498   1.320   5.660 -0.2927 -0.2438  0.6130
12291TIP3    H158364   4.421   1.264   5.647 -2.0421  1.9131  1.3227
12291TIP3    H258365   4.518   1.354   5.572 -1.1957  0.4982  0.6896
12292TIP3   OH258366   6.676   2.444  13.516  0.4626  0.2276  0.2470
12292TIP3    H158367   6.679   2.497  13.595 -1.3733  1.4845 -0.5161
12292TIP3    H258368   6.660   2.506  13.445 -2.1079 -1.3413 -0.6172
12293TIP3   OH258369   2.189   5.950  10.622  0.8557 -0.8265  0.8106
12293TIP3    H158370   2.160   5.964  10.532  0.4340  1.6066  1.2811
12293TIP3    H258371   2.111   5.918  10.667  0.4390  0.0937  0.7738
12294TIP3   OH258372   5.484   3.348   0.137 -0.3392  0.2950  0.4187
12294TIP3    H158373   5.555   3.284   0.137  1.3825  2.1540  1.8094
12294TIP3    H258374   5.428   3.323   0.063  1.4221 -1.5478 -0.3123
12295TIP3   OH258375   1.622   3.080   4.695  0.5744 -0.5411 -0.3016
12295TIP3    H158376   1.535   3.090   4.656  0.8136  0.2059 -0.6594
12295TIP3    H258377   1.612   3.010   4.759 -1.2949  2.0782  2.4387
12296TIP3   OH258378   0.203   3.034  15.605 -0.2039 -0.1090 -0.6956
12296TIP3    H158379   0.170   3.040  15.694 -1.4091 -0.2923 -1.1066
12296TIP3    H258380   0.233   3.123  15.584  1.7874 -0.4879  0.5041
12297TIP3   OH258381   2.421   3.038   3.617 -0.3583  0.0376 -0.7771
12297TIP3    H158382   2.361   2.992   3.675  1.2886 -2.7608 -1.1617
12297TIP3    H258383   2.492   2.975   3.602  0.8302  1.8896 -3.2545
12298TIP3   OH258384   5.562   0.603  11.470  0.7343  0.0066 -0.2557
12298TIP3    H158385   5.583   0.647  11.552 -1.8714  2.6733 -0.9498
12298TIP3    H258386   5.511   0.526  11.497 -1.2143  1.5573  0.5810
12299TIP3   OH258387   6.276   5.617   5.102 -0.0080 -0.1710  0.2704
12299TIP3    H158388   6.342   5.676   5.065  0.4869 -0.5904  0.4617
12299TIP3    H258389   6.304   5.604   5.192 -1.3309  1.0209  0.8643
12300TIP3   OH258390   1.105   0.850   4.995 -0.0465 -0.0746 -0.0518
12300TIP3    H158391   1.169   0.920   4.979  0.2722  0.0555  1.6449
12300TIP3    H258392   1.032   0.894   5.038  0.7498 -0.9538  2.3230
12301TIP3   OH258393   3.245   6.050   1.394 -0.3144  0.7982 -0.1847
12301TIP3    H158394   3.209   6.133   1.426 -2.4402  0.2149 -1.0548
12301TIP3    H258395   3.173   5.988   1.399  1.2377 -1.0119  0.3880
12302TIP3   OH258396   2.607   0.653  13.430  0.5848  0.2921  0.3150
12302TIP3    H158397   2.521   0.641  13.470  1.5249 -4.6609  1.1896
12302TIP3    H258398   2.668   0.650  13.504  1.8431 -2.1485 -0.7625
12303TIP3   OH258399   4.765   1.797  11.747  0.7272 -0.0993  0.3715
12303TIP3    H158400   4.704   1.769  11.678  1.3679 -1.5578  0.3800
12303TIP3    H258401   4.784   1.888  11.725  0.5684 -0.4046 -1.1314
12304TIP3   OH258402   4.650   2.653  17.047 -0.1925  0.2191 -0.4901
12304TIP3    H158403   4.678   2.666  16.957  0.3154 -1.6141 -0.6137
12304TIP3    H258404   4.681   2.731  17.094  0.1648  0.8345 -1.7331
12305TIP3   OH258405   1.840   4.345  15.261  0.0641 -0.1644  0.0454
12305TIP3    H158406   1.782   4.308  15.327  1.0933  0.2974  1.2492
12305TIP3    H258407   1.912   4.282  15.255  1.5630  1.3107  1.7232
12306TIP3   OH258408   0.898   4.818   2.673  0.0782  0.1186  0.2749
12306TIP3    H158409   0.885   4.911   2.692 -1.0317  0.0229  0.0445
12306TIP3    H258410   0.825   4.774   2.717  0.3779 -0.6021  0.0657
12307TIP3   OH258411   0.033   0.124  11.874  0.4152 -0.2049  0.1218
12307TIP3    H158412   0.075   0.196  11.827  0.1189 -0.0292  0.1188
12307TIP3    H258413   0.049   0.143  11.966 -0.7672  0.5761  0.1903
12308TIP3   OH258414   5.794   0.395  16.295  0.1584  0.1610  0.0907
12308TIP3    H158415   5.782   0.448  16.216  1.0975  1.4079  0.7637
12308TIP3    H258416   5.721   0.419  16.351 -1.4243 -1.9135 -1.0055
12309TIP3   OH258417   2.443   0.307   0.908  0.8722 -0.0681 -0.4331
12309TIP3    H158418   2.438   0.402   0.916 -2.4102 -0.2207  0.1730
12309TIP3    H258419   2.531   0.290   0.877  1.0232  3.2788 -2.0368
12310TIP3   OH258420   3.307   2.661  12.873 -0.2657  0.1433 -0.0364
12310TIP3    H158421   3.401   2.678  12.869 -0.2189 -0.2130 -0.6562
12310TIP3    H258422   3.282   2.683  12.962  0.2267  1.1476 -0.1439
12311TIP3   OH258423   0.765   3.682   5.936 -0.1851 -0.7259 -0.3941
12311TIP3    H158424   0.720   3.753   5.982 -1.5475  0.7649 -3.8687
12311TIP3    H258425   0.738   3.603   5.983 -0.9347  0.7556  1.7698
12312TIP3   OH258426   6.127   3.983   5.435  0.2992 -0.4003 -0.6216
12312TIP3    H158427   6.223   3.984   5.439  0.3569  3.9823 -0.0755
12312TIP3    H258428   6.100   3.933   5.512  2.1747  1.4440  1.3271
12313TIP3   OH258429   1.109   1.935   5.930 -0.0212 -0.4072  0.4157
12313TIP3    H158430   1.152   1.903   6.010  1.5736  0.0357 -0.2440
12313TIP3    H258431   1.030   1.979   5.961 -0.4081 -1.8832  1.6025
12314TIP3   OH258432   2.522   3.343  13.963  0.0338 -0.1283  0.5109
12314TIP3    H158433   2.547   3.380  14.048  1.7401  0.4025 -0.1956
12314TIP3    H258434   2.576   3.263  13.955  0.1010 -0.0142 -0.1912
12315TIP3   OH258435   0.512   3.488  13.059 -0.2944  0.6775 -0.0013
12315TIP3    H158436   0.486   3.432  13.133  1.3289 -0.3351 -0.1901
12315TIP3    H258437   0.464   3.453  12.984 -1.3118  1.1983  0.3901
12316TIP3   OH258438   5.530   6.603  13.590  0.0381  0.4022  0.3627
12316TIP3    H158439   5.622   6.608  13.563  0.1547  1.2296  0.8921
12316TIP3    H258440   5.531   6.549  13.668 -0.1966 -1.3302 -0.8153
12317TIP3   OH258441   5.552   0.922   3.627 -0.3815  0.1419  0.5338
12317TIP3    H158442   5.533   0.892   3.539 -0.1875  0.3908  0.4080
12317TIP3    H258443   5.466   0.944   3.664 -0.4672 -0.0156  0.4281
12318TIP3   OH258444   1.658   4.824   3.066 -0.3499 -0.2724 -0.1811
12318TIP3    H158445   1.578   4.810   3.117  0.6674 -0.1967  1.4657
12318TIP3    H258446   1.697   4.738   3.059 -0.1984 -0.1898 -0.3502
12319TIP3   OH258447   6.692   6.353  13.066  0.1141  0.0490  0.3182
12319TIP3    H158448   6.617   6.370  13.123 -0.7120  0.1820 -0.8041
12319TIP3    H258449   6.663   6.283  13.008  1.5458 -1.2913  1.1625
12320TIP3   OH258450   6.168   0.337  14.290  0.4149  0.0933 -0.3047
12320TIP3    H158451   6.256   0.305  14.270  0.6827  1.5822 -1.6296
12320TIP3    H258452   6.182   0.407  14.353  0.1137 -0.1340  0.0142
12321TIP3   OH258453   0.929   6.458  11.972 -0.0267  0.2480 -1.0693
12321TIP3    H158454   0.983   6.464  12.051  0.0296  2.4990 -1.2408
12321TIP3    H258455   0.846   6.497  11.997 -0.3391  0.0857 -1.8429
12322TIP3   OH258456   6.435   3.326  13.261  0.1895  0.1688  0.5804
12322TIP3    H158457   6.427   3.232  13.247  0.3573  0.1343  0.7155
12322TIP3    H258458   6.492   3.356  13.190 -0.6417  0.3212 -0.0370
12323TIP3   OH258459   5.054   0.560   2.339  0.2743 -0.3150  0.3312
12323TIP3    H158460   4.959   0.563   2.334  0.2713  0.0530  0.5963
12323TIP3    H258461   5.073   0.503   2.413  0.2446  0.6947  1.1260
12324TIP3   OH258462   1.196   5.475  12.566  0.1760  0.1153  0.4812
12324TIP3    H158463   1.188   5.536  12.492 -2.0605 -0.1970  0.4248
12324TIP3    H258464   1.209   5.390  12.525  1.9644  0.3426  0.5355
12325TIP3   OH258465   2.905   6.067   0.622  0.3152 -0.6651  0.0917
12325TIP3    H158466   2.935   6.023   0.542 -1.2947  0.2353 -1.0259
12325TIP3    H258467   2.897   6.159   0.597 -0.1046 -0.3594  1.3377
12326TIP3   OH258468   5.683   4.321   1.711 -0.2567 -0.1172  0.3079
12326TIP3    H158469   5.590   4.341   1.702  0.0953  1.0967 -0.9061
12326TIP3    H258470   5.697   4.316   1.806 -1.4023  0.4503  0.5243
12327TIP3   OH258471   6.634   6.056   1.549 -0.1748 -0.2561  0.0990
12327TIP3    H158472   6.570   6.070   1.619 -1.1086 -0.8245 -0.6162
12327TIP3    H258473   6.606   6.115   1.479  0.5172  0.0184  0.0475
12328TIP3   OH258474   3.319   4.150  12.616 -0.0999  0.3774 -0.0671
12328TIP3    H158475   3.361   4.090  12.555 -0.7901 -0.9551  0.7375
12328TIP3    H258476   3.384   4.218  12.632  0.9164 -0.4744 -0.5323
12329TIP3   OH258477   0.068   3.685   5.595  0.1363  0.0149  0.4024
12329TIP3    H158478   0.151   3.730   5.615 -1.1421  2.0820  1.2149
12329TIP3    H258479   0.027   3.671   5.681 -1.2131  0.6936 -0.1229
12330TIP3   OH258480   4.959   4.139   2.895 -0.1386 -0.0319 -0.2138
12330TIP3    H158481   4.931   4.228   2.916 -0.5512 -0.1533 -0.2427
12330TIP3    H258482   5.031   4.151   2.832  0.4357  0.3001  0.5039
12331TIP3   OH258483   5.897   5.252  11.243  0.8449  0.0401 -0.1170
12331TIP3    H158484   5.888   5.245  11.148  1.1929  0.7987 -0.2105
12331TIP3    H258485   5.874   5.166  11.276 -0.1497  0.0322 -0.8314
12332TIP3   OH258486   5.054   1.963   0.821 -0.2689 -0.0192  0.4456
12332TIP3    H158487   5.012   1.993   0.741  1.6570 -1.3511 -1.0823
12332TIP3    H258488   5.035   2.032   0.885 -0.3329  1.8983 -1.5971
12333TIP3   OH258489   0.117   0.944   5.198  0.5085  0.3828  0.5576
12333TIP3    H158490   0.066   0.950   5.279  2.0545 -0.3379  1.6069
12333TIP3    H258491   0.206   0.969   5.224  1.2279 -0.7834 -0.7154
12334TIP3   OH258492   3.098   5.796  14.653  0.2537  0.2644 -0.3905
12334TIP3    H158493   3.079   5.887  14.676 -1.5978 -0.1966  0.0247
12334TIP3    H258494   3.133   5.758  14.734  0.4757  0.4473 -0.3992
12335TIP3   OH258495   4.764   6.121   3.077 -0.7495  0.1483  0.0835
12335TIP3    H158496   4.797   6.073   3.001  1.1871 -0.9246  1.5656
12335TIP3    H258497   4.839   6.169   3.110 -2.4811  3.7220 -0.9228
12336TIP3   OH258498   1.974   5.938   4.371  0.1909  0.5078  0.4519
12336TIP3    H158499   1.932   5.950   4.286  0.6135  0.8758  0.2990
12336TIP3    H258500   1.921   5.990   4.431 -0.2425  0.0662  0.4577
12337TIP3   OH258501   5.118   3.128  10.716 -0.0322  0.1730  0.2141
12337TIP3    H158502   5.180   3.187  10.759 -0.0516 -0.2497  0.8395
12337TIP3    H258503   5.046   3.120  10.779 -0.8101  0.8139 -0.5903
12338TIP3   OH258504   6.037   3.107   3.446 -0.0050 -0.4237 -0.4948
12338TIP3    H158505   6.127   3.122   3.474 -0.1707 -0.1025 -0.1287
12338TIP3    H258506   6.014   3.187   3.398 -0.7501  0.3459  1.0949
12339TIP3   OH258507   3.270   5.290  11.233 -0.3529 -0.0817  0.3037
12339TIP3    H158508   3.301   5.208  11.193 -0.2807 -0.3934  1.0014
12339TIP3    H258509   3.256   5.268  11.325  2.6846  1.5201  1.2123
12340TIP3   OH258510   3.177   1.178  16.725 -0.3369 -0.0757 -0.6523
12340TIP3    H158511   3.240   1.186  16.796  0.4401  0.7050 -1.4135
12340TIP3    H258512   3.173   1.266  16.687 -3.0111  0.2762  0.3277
12341TIP3   OH258513   3.861   1.906  16.485  0.2527 -0.0252 -0.3049
12341TIP3    H158514   3.944   1.944  16.456  0.8444 -1.7933 -1.0056
12341TIP3    H258515   3.819   1.975  16.535  2.3867  0.7387  0.4862
12342TIP3   OH258516   3.873   4.674   2.174 -0.0629  0.1378 -0.2412
12342TIP3    H158517   3.877   4.588   2.132 -0.3878 -1.5490  2.9982
12342TIP3    H258518   3.794   4.671   2.228  1.2117  1.5336  1.7739
12343TIP3   OH258519   6.650   2.312  13.191  0.0750 -0.5359 -0.3477
12343TIP3    H158520   6.704   2.359  13.127 -2.0027  0.1765 -1.6168
12343TIP3    H258521   6.680   2.222  13.185  0.1374 -0.4195 -2.1228
12344TIP3   OH258522   3.549   2.047   3.848  0.6204  0.6208 -0.4309
12344TIP3    H158523   3.624   1.989   3.847  0.5654  0.5495 -0.3851
12344TIP3    H258524   3.487   2.008   3.787  0.9448  1.1083 -1.0822
12345TIP3   OH258525   3.867   4.092  14.162  0.0633 -0.0118 -0.9118
12345TIP3    H158526   3.819   4.056  14.237  0.0380  0.3487 -0.7573
12345TIP3    H258527   3.904   4.015  14.119 -1.7146 -0.4275 -1.7642
12346TIP3   OH258528   6.079   1.622  13.066 -0.4299  0.1245 -1.0332
12346TIP3    H158529   6.166   1.582  13.064  0.1768  1.4625 -3.2024
12346TIP3    H258530   6.021   1.554  13.032 -0.0261 -0.2777 -0.9299
12347TIP3   OH258531   1.483   3.901  17.280 -0.6397  0.1004 -0.1113
12347TIP3    H158532   1.394   3.932  17.298 -1.2296 -0.9362 -1.1113
12347TIP3    H258533   1.490   3.904  17.185 -0.2678 -1.5511 -0.1583
12348TIP3   OH258534   0.805   2.638  14.779  0.5498  0.0124 -0.4784
12348TIP3    H158535   0.796   2.602  14.867  0.1041 -0.0016 -0.5242
12348TIP3    H258536   0.786   2.565  14.720  0.4422  0.1207 -0.5799
12349TIP3   OH258537   5.047   2.795   5.716 -0.2163 -0.3198  0.3247
12349TIP3    H158538   4.967   2.835   5.750 -0.0154 -0.0385  0.4681
12349TIP3    H258539   5.033   2.789   5.622  0.5221  1.8719  0.0401
12350TIP3   OH258540   4.180   4.236  15.826  0.3210  0.5456 -0.3480
12350TIP3    H158541   4.149   4.257  15.914 -0.5165  0.3202 -0.5771
12350TIP3    H258542   4.105   4.254  15.769  1.6896  3.2588 -1.3768
12351TIP3   OH258543   5.163   3.848  16.178  0.0343  0.1842  0.0926
12351TIP3    H158544   5.243   3.897  16.155 -0.1204  0.0784 -0.6739
12351TIP3    H258545   5.103   3.866  16.106  0.1985 -1.6560 -0.5236
12352TIP3   OH258546   1.673   4.036   3.281  0.1062 -0.5008  0.2378
12352TIP3    H158547   1.628   3.973   3.225 -0.7111 -0.0714  0.4000
12352TIP3    H258548   1.612   4.051   3.353  1.7792 -2.2245  2.0792
12353TIP3   OH258549   1.200   5.569  12.067 -0.4029  0.3059 -0.7491
12353TIP3    H158550   1.156   5.573  12.152  0.5686  0.0951 -0.2254
12353TIP3    H258551   1.194   5.659  12.033 -1.5794  0.1824 -0.8690
12354TIP3   OH258552   1.114   3.133  15.747  0.3455  0.2791 -0.0297
12354TIP3    H158553   1.189   3.136  15.689  0.4110  0.4797  0.0634
12354TIP3    H258554   1.151   3.131  15.835  0.2604 -1.1363 -0.0244
12355TIP3   OH258555   2.822   0.546   4.457  0.1972  0.4840  0.2932
12355TIP3    H158556   2.757   0.494   4.409  0.6033  0.1076  0.1550
12355TIP3    H258557   2.789   0.635   4.452 -0.3142  0.2940  0.2195
12356TIP3   OH258558   3.420   4.778   2.764  0.1028 -0.4974  0.1270
12356TIP3    H158559   3.374   4.837   2.704 -1.7882 -0.1255  1.8792
12356TIP3    H258560   3.504   4.820   2.781 -0.2558  0.4858 -0.5394
12357TIP3   OH258561   1.856   0.765  16.774 -0.2164 -0.5599 -0.1872
12357TIP3    H158562   1.904   0.837  16.733 -2.1073  0.7918 -0.0568
12357TIP3    H258563   1.905   0.687  16.748  2.3848  0.8105  0.4066
12358TIP3   OH258564   6.115   0.021  16.310 -0.1038 -0.3469  0.1800
12358TIP3    H158565   6.081   0.110  16.322  0.7089  0.0258 -0.2546
12358TIP3    H258566   6.085  -0.027  16.387 -0.3841  0.3521  0.5069
12359TIP3   OH258567   6.461   3.142   2.085 -0.3538  0.2159 -0.0383
12359TIP3    H158568   6.511   3.061   2.093 -0.7217  0.1161  1.5837
12359TIP3    H258569   6.525   3.212   2.098 -0.1440  0.1730 -0.8298
12360TIP3   OH258570   5.759   0.918   1.976 -0.3799 -0.0671  0.1803
12360TIP3    H158571   5.827   0.932   2.043  1.1460 -2.6511 -0.7248
12360TIP3    H258572   5.682   0.892   2.026  0.4810 -1.0899  1.0136
12361TIP3   OH258573   2.095   6.546  14.181 -0.4307  0.5420 -0.1965
12361TIP3    H158574   2.186   6.569  14.195 -0.7715  2.0012 -0.3087
12361TIP3    H258575   2.097   6.475  14.116  0.7479 -1.2340  1.7556
12362TIP3   OH258576   3.252   1.825   2.191 -0.0522  0.2802  0.5541
12362TIP3    H158577   3.183   1.884   2.221 -0.0092  0.8140 -0.3929
12362TIP3    H258578   3.284   1.784   2.272 -1.1409  0.3849  1.0515
12363TIP3   OH258579   3.083   4.971  12.803 -0.1356 -0.4264 -0.5513
12363TIP3    H158580   3.002   5.003  12.842 -0.3206 -0.5178 -0.8591
12363TIP3    H258581   3.126   4.922  12.873  1.2084  2.3316  0.6512
12364TIP3   OH258582   4.736   3.743  17.154 -0.0034 -0.1288  0.2100
12364TIP3    H158583   4.752   3.746  17.248  0.9868 -0.4236  0.0640
12364TIP3    H258584   4.641   3.749  17.145 -0.1891 -1.1452  1.2823
12365TIP3   OH258585   5.815   4.399  15.877  0.1609  0.2773 -0.0478
12365TIP3    H158586   5.818   4.431  15.967  0.8383 -0.2510  0.1196
12365TIP3    H258587   5.903   4.366  15.860 -0.6450 -1.9419 -0.0395
12366TIP3   OH258588   4.614   2.591  14.384  0.2271  0.2708  0.1533
12366TIP3    H158589   4.538   2.533  14.378  1.4441 -1.2279 -1.3203
12366TIP3    H258590   4.578   2.674  14.415 -1.7839 -0.8266  0.8545
12367TIP3   OH258591   3.441   2.171  16.611  0.5339  0.0471 -0.2627
12367TIP3    H158592   3.371   2.182  16.547  0.4172 -1.2666 -0.3815
12367TIP3    H258593   3.405   2.110  16.676  1.5595 -0.6639 -0.3370
12368TIP3   OH258594   2.426   1.854   0.802 -0.6234  0.5261 -0.1308
12368TIP3    H158595   2.456   1.804   0.878 -1.6151  1.3447  0.8179
12368TIP3    H258596   2.479   1.821   0.729  0.9986  0.3901  1.0795
12369TIP3   OH258597   4.106   3.449  14.087  0.0025  0.3827  0.5017
12369TIP3    H158598   4.037   3.511  14.063  1.3941  1.7420 -0.0936
12369TIP3    H258599   4.186   3.486  14.049  1.0734 -1.1432  1.2039
12370TIP3   OH258600   6.017   1.903  15.163  0.1526  0.2863  0.2488
12370TIP3    H158601   5.938   1.857  15.192  1.3068 -2.4898 -0.7944
12370TIP3    H258602   6.050   1.947  15.242 -1.9158  0.7267  0.8932
12371TIP3   OH258603   4.164   2.863   6.199 -0.6077  0.0662 -0.4202
12371TIP3    H158604   4.233   2.897   6.143 -1.0739  1.8093  0.0409
12371TIP3    H258605   4.199   2.870   6.288 -0.7951 -0.4326 -0.3054
12372TIP3   OH258606   3.213   2.821  15.505  0.3501 -0.4473  0.1937
12372TIP3    H158607   3.131   2.853  15.542  0.5113  1.5510 -1.0915
12372TIP3    H258608   3.210   2.847  15.413  1.9807 -1.2364 -0.1056
12373TIP3   OH258609   2.307   2.399  13.833 -0.0575 -0.2690  0.1908
12373TIP3    H158610   2.263   2.483  13.846  0.0611 -0.0592 -0.7290
12373TIP3    H258611   2.382   2.401  13.892 -1.0192 -0.4364  1.4309
12374TIP3   OH258612   2.537   5.929   5.071  0.3661 -0.3887  0.2049
12374TIP3    H158613   2.508   6.015   5.103 -1.7701 -0.4996 -1.2971
12374TIP3    H258614   2.587   5.949   4.992 -0.0255 -0.5023 -0.0738
12375TIP3   OH258615   2.568   5.958  13.516  0.0969 -0.9370  0.1609
12375TIP3    H158616   2.623   5.920  13.584 -1.0353  0.0540  1.6446
12375TIP3    H258617   2.572   5.894  13.444  4.9633  0.1303 -0.6850
12376TIP3   OH258618   3.009   4.469   5.497  0.3693 -0.6499 -0.4142
12376TIP3    H158619   2.927   4.432   5.529 -1.2898  2.6135 -0.5960
12376TIP3    H258620   2.997   4.564   5.505  3.3646 -0.0156 -2.3460
12377TIP3   OH258621   1.733   2.186   1.280  0.3991  0.1577 -0.3436
12377TIP3    H158622   1.728   2.143   1.195  0.5490 -0.8427  0.1507
12377TIP3    H258623   1.696   2.122   1.341 -2.6253  2.0365 -0.0817
12378TIP3   OH258624   4.432   6.140  12.918 -0.2698  0.2003  0.0252
12378TIP3    H158625   4.490   6.098  12.854 -0.8598 -0.7313  0.0983
12378TIP3    H258626   4.404   6.221  12.875  0.2392  0.1316 -0.4390
12379TIP3   OH258627   4.708   4.360   5.610  0.1204  0.0669  0.6657
12379TIP3    H158628   4.758   4.340   5.689 -0.0762  0.6315  0.9371
12379TIP3    H258629   4.643   4.290   5.603  1.1091 -0.8108  0.1751
12380TIP3   OH258630   1.795   1.726   5.861  0.0893  0.7826 -0.6884
12380TIP3    H158631   1.845   1.701   5.783  0.4827  0.2326 -0.2713
12380TIP3    H258632   1.842   1.802   5.896  0.7866  0.1298 -0.1714
12381TIP3   OH258633   0.501   2.246   2.726 -0.0420  0.2386  0.1943
12381TIP3    H158634   0.544   2.186   2.665  1.3834 -0.1836  1.6030
12381TIP3    H258635   0.445   2.300   2.670 -1.9648 -2.8680 -1.0506
12382TIP3   OH258636   2.032   5.873   0.296 -0.4238  0.5398 -0.1999
12382TIP3    H158637   2.062   5.884   0.206  2.7617  1.2937  0.9185
12382TIP3    H258638   2.046   5.959   0.337 -0.8657 -0.0977  1.3176
12383TIP3   OH258639   0.173   2.066   2.623 -0.1357  0.0485  0.6880
12383TIP3    H158640   0.198   2.153   2.593 -1.0836  0.0636 -0.1075
12383TIP3    H258641   0.255   2.018   2.631  0.2948  0.6636 -0.0048
12384TIP3   OH258642   1.076   5.309   0.077 -0.3318  0.5645  0.3136
12384TIP3    H158643   0.998   5.365   0.070 -0.1291  1.1130  2.1208
12384TIP3    H258644   1.048   5.236   0.132  0.2405  0.3901  0.3714
12385TIP3   OH258645   3.461   2.775   5.755  0.1111 -0.0013  0.0724
12385TIP3    H158646   3.417   2.778   5.840  2.4159 -2.5258  1.4466
12385TIP3    H258647   3.549   2.809   5.773  1.0623 -1.8546 -1.0043
12386TIP3   OH258648   1.580   4.470  15.199  0.0433 -0.3091 -0.3532
12386TIP3    H158649   1.513   4.495  15.135  0.3100 -2.5261 -1.5530
12386TIP3    H258650   1.662   4.502  15.161 -0.0177  0.0169 -0.2093
12387TIP3   OH258651   1.612   4.343  11.423  0.1337  0.0145 -0.5088
12387TIP3    H158652   1.607   4.403  11.498 -0.4577 -0.3481 -0.2531
12387TIP3    H258653   1.684   4.285  11.444  0.2531  0.1919 -0.4254
12388TIP3   OH258654   3.454   4.894   1.463  0.1181 -0.1548  0.4058
12388TIP3    H158655   3.485   4.944   1.539  0.0957 -0.9506  0.9512
12388TIP3    H258656   3.383   4.840   1.498 -1.4777  1.1813 -0.6894
12389TIP3   OH258657   2.390   3.679   2.089  0.4278 -0.6946 -0.1443
12389TIP3    H158658   2.374   3.759   2.039 -1.1682 -0.7404  0.2616
12389TIP3    H258659   2.405   3.611   2.023 -1.3606 -0.6926 -0.5654
12390TIP3   OH258660   4.586   6.539   3.265 -0.2442 -0.3315 -0.1805
12390TIP3    H158661   4.560   6.528   3.174  0.5859 -1.2314 -0.3098
12390TIP3    H258662   4.678   6.514   3.267 -0.4276 -0.9185  1.0270
12391TIP3   OH258663   3.141   1.795   4.456  0.1594 -0.0971  0.2049
12391TIP3    H158664   3.078   1.732   4.419 -0.8385  0.9383  0.1249
12391TIP3    H258665   3.150   1.769   4.548 -2.0972  1.0706  0.8014
12392TIP3   OH258666   5.534   6.704  14.505 -0.3040  0.2095  0.2934
12392TIP3    H158667   5.462   6.644  14.487 -1.5869  1.9877 -0.6620
12392TIP3    H258668   5.596   6.652  14.556 -2.2197 -1.3754  1.0812
12393TIP3   OH258669   5.639   0.069   6.000 -0.2082 -0.1935  0.6648
12393TIP3    H158670   5.586  -0.009   6.014 -2.0826  1.2392  1.6992
12393TIP3    H258671   5.704   0.042   5.934 -0.7954 -2.6068  1.0253
12394TIP3   OH258672   5.057   2.809   6.130  1.0672 -0.1888 -0.2718
12394TIP3    H158673   5.009   2.861   6.194 -1.3986 -0.5737 -1.7039
12394TIP3    H258674   5.088   2.873   6.066  0.4457 -0.1575 -0.5513
12395TIP3   OH258675   4.902   3.180   1.313  0.1656  0.6170  0.8731
12395TIP3    H158676   4.886   3.201   1.405 -1.1988  0.5259  0.6567
12395TIP3    H258677   4.910   3.265   1.270 -2.4293  0.7022  0.5164
12396TIP3   OH258678   2.986   3.122  16.869  0.2289 -0.1403  0.7262
12396TIP3    H158679   2.989   3.035  16.909 -0.1477 -0.9820 -1.0300
12396TIP3    H258680   2.896   3.131  16.838  0.6055  0.3436 -0.2412
12397TIP3   OH258681   3.734   6.684   3.247 -0.5417 -0.8542  0.1038
12397TIP3    H158682   3.786   6.613   3.210 -0.7408 -0.8039 -0.2802
12397TIP3    H258683   3.744   6.675   3.342  1.4831  0.1459  0.0083
12398TIP3   OH258684   5.488   0.195  10.870  0.1790 -0.0519 -0.2439
12398TIP3    H158685   5.525   0.183  10.957 -3.4630 -0.2892  1.3199
12398TIP3    H258686   5.548   0.148  10.812  1.6487 -1.4319  2.3413
12399TIP3   OH258687   3.408   6.778  10.686  0.1256 -0.3184  0.5087
12399TIP3    H158688   3.389   6.805  10.596  2.7234  2.5534  0.7190
12399TIP3    H258689   3.324   6.785  10.731 -0.9741 -0.6887 -1.4224
12400TIP3   OH258690   3.708   3.246  14.166 -0.1965  0.0682  0.1353
12400TIP3    H158691   3.707   3.282  14.254  2.5168 -0.8980  0.6339
12400TIP3    H258692   3.727   3.153  14.178 -1.7263 -0.4646 -1.3790
12401TIP3   OH258693   1.928   1.271  12.817  0.0669  0.4218 -0.3245
12401TIP3    H158694   2.007   1.245  12.770  0.4511  1.0832 -0.0523
12401TIP3    H258695   1.872   1.194  12.814  2.0453 -1.1957  2.2910
12402TIP3   OH258696   1.761   2.671   0.894  0.1611 -0.1730 -0.4691
12402TIP3    H158697   1.751   2.761   0.927 -0.5748 -0.7626  0.9735
12402TIP3    H258698   1.848   2.669   0.856 -0.1779  1.4229 -1.3640
12403TIP3   OH258699   1.545   3.062  15.867  0.1672 -0.2128 -0.4902
12403TIP3    H158700   1.562   3.011  15.788 -2.4484 -0.4376 -0.9496
12403TIP3    H258701   1.461   3.029  15.899  0.0997  1.4508  1.1285
12404TIP3   OH258702   2.197   2.149  14.620 -0.1336 -0.1397 -0.3634
12404TIP3    H158703   2.235   2.068  14.585 -0.4973 -0.3537 -0.2629
12404TIP3    H258704   2.265   2.184  14.678  0.1002 -0.2704 -0.5587
12405TIP3   OH258705   4.144   4.589   0.721 -0.2238  0.4552  0.2291
12405TIP3    H158706   4.075   4.652   0.702 -0.2783  1.0858  2.3469
12405TIP3    H258707   4.219   4.619   0.670 -0.9396  0.8801 -0.5891
12406TIP3   OH258708   0.744   4.947   2.984  0.1227 -0.6004  0.1114
12406TIP3    H158709   0.778   4.917   3.068 -0.1692 -1.0245  0.0815
12406TIP3    H258710   0.725   4.866   2.936 -0.0747 -0.3629 -0.2116
12407TIP3   OH258711   2.540   0.698   2.266 -0.5450 -0.3530 -0.9652
12407TIP3    H158712   2.467   0.637   2.257 -0.0463 -0.9489 -0.9653
12407TIP3    H258713   2.510   0.777   2.221 -0.9413 -0.8138 -1.5216
12408TIP3   OH258714   3.827   0.255   0.066 -0.1603 -0.0222 -0.7024
12408TIP3    H158715   3.860   0.336   0.026 -0.4481  1.1398  1.3226
12408TIP3    H258716   3.901   0.195   0.065  0.9618  1.2931  0.4129
12409TIP3   OH258717   5.796   4.197   3.291  0.3140 -0.3825 -0.3674
12409TIP3    H158718   5.717   4.152   3.263 -0.2590  0.8699 -0.7899
12409TIP3    H258719   5.812   4.262   3.223  0.6498  0.6253  0.6684
12410TIP3   OH258720   2.301   6.155   1.283 -0.3581 -0.0540  0.1316
12410TIP3    H158721   2.290   6.223   1.216  3.5496  0.9198  0.3587
12410TIP3    H258722   2.320   6.202   1.363  2.9736 -1.3316  0.1794
12411TIP3   OH258723   3.394   4.897  17.216  0.5289  0.2350 -0.1917
12411TIP3    H158724   3.465   4.848  17.258  0.6520  0.3440 -0.2750
12411TIP3    H258725   3.325   4.832  17.202 -0.5411  0.7057  2.5074
12412TIP3   OH258726   1.959   3.284   2.732  0.0768 -0.0320  0.2039
12412TIP3    H158727   2.005   3.200   2.741  0.2946  0.2266  1.5766
12412TIP3    H258728   1.866   3.261   2.741 -0.1104 -0.5238 -2.3693
12413TIP3   OH258729   5.641   0.956  12.925 -0.1631 -0.5990  0.5165
12413TIP3    H158730   5.583   0.922  12.857 -0.1408 -1.2889  0.8400
12413TIP3    H258731   5.725   0.912  12.909 -0.6192 -2.0555  2.0152
12414TIP3   OH258732   1.445   0.647   1.801 -0.7195 -0.5030  0.1320
12414TIP3    H158733   1.435   0.724   1.745 -0.7500  0.0695  0.9007
12414TIP3    H258734   1.383   0.662   1.873 -0.7323 -1.2521  0.2814
12415TIP3   OH258735   3.906   1.091  16.605 -0.4751  0.8778 -0.1615
12415TIP3    H158736   3.831   1.142  16.574 -1.1777  0.0837  0.1928
12415TIP3    H258737   3.980   1.151  16.600 -1.0586  1.5451 -0.9194
12416TIP3   OH258738   4.032   1.412   5.349 -0.2202  0.1330  0.0589
12416TIP3    H158739   4.052   1.344   5.284  0.0599  1.0131 -0.7863
12416TIP3    H258740   4.064   1.493   5.310  0.6095  0.5799  1.6269
12417TIP3   OH258741   6.511   1.091   0.222 -0.0898  0.1322  0.3997
12417TIP3    H158742   6.543   1.057   0.139  2.2708 -0.1950  1.4192
12417TIP3    H258743   6.458   1.020   0.258  0.9559 -0.6710  0.3482
12418TIP3   OH258744   6.367   5.668  16.618  0.4567  0.3501  0.6365
12418TIP3    H158745   6.428   5.680  16.545  0.7448  0.6976  0.9308
12418TIP3    H258746   6.403   5.594  16.667 -0.7355 -1.0609 -0.5836
12419TIP3   OH258747   2.797   1.302   1.524 -0.0929 -0.0160  0.0542
12419TIP3    H158748   2.776   1.364   1.455 -0.6567  0.3663  0.5688
12419TIP3    H258749   2.892   1.289   1.516 -0.3142 -0.8422 -1.5126
12420TIP3   OH258750   6.664   0.619  15.753  0.3082 -0.5476 -0.2845
12420TIP3    H158751   6.753   0.621  15.719  0.7282 -0.7327  0.7894
12420TIP3    H258752   6.633   0.710  15.745  1.0730 -0.1970  0.5612
12421TIP3   OH258753   0.634   6.040  12.516 -0.5146  0.1003  0.2983
12421TIP3    H158754   0.614   5.967  12.457  1.2757 -0.4252  0.2985
12421TIP3    H258755   0.682   6.000  12.588 -0.6312  1.1039  0.9375
12422TIP3   OH258756   0.669   3.277  16.941  0.2531  0.0132  0.3024
12422TIP3    H158757   0.592   3.249  16.991 -1.1833  0.4230 -1.6212
12422TIP3    H258758   0.728   3.201  16.942 -0.8621 -0.8575  0.4674
12423TIP3   OH258759   2.725   5.080  12.812 -0.1997  0.9922  0.1541
12423TIP3    H158760   2.769   5.164  12.795 -0.4335  1.3028  1.0655
12423TIP3    H258761   2.773   5.043  12.886 -0.8647  0.8840  0.5309
12424TIP3   OH258762   5.441   0.319  15.672 -0.2618  0.1673 -0.4071
12424TIP3    H158763   5.535   0.316  15.688 -0.4654 -2.7260  0.4546
12424TIP3    H258764   5.412   0.399  15.715  1.6745  0.7203 -0.0668
12425TIP3   OH258765   0.202   2.542   4.642 -0.9456  0.1662 -0.1676
12425TIP3    H158766   0.162   2.558   4.557  0.2089  0.1320 -0.7214
12425TIP3    H258767   0.249   2.459   4.631  0.6546  1.0427 -0.0214
12426TIP3   OH258768   2.925   4.409  13.876  0.1980 -0.2362 -0.4676
12426TIP3    H158769   2.834   4.378  13.879  0.2561 -0.4038 -0.4386
12426TIP3    H258770   2.926   4.483  13.936 -0.6884  1.7987 -2.8691
12427TIP3   OH258771   3.454   5.763   0.859  0.3531 -0.0239  0.2910
12427TIP3    H158772   3.447   5.859   0.862 -0.8921 -0.1440  1.6698
12427TIP3    H258773   3.365   5.733   0.845  0.4634 -1.0456  1.7154
12428TIP3   OH258774   6.649   6.466   3.424 -0.0411 -0.2723  0.1286
12428TIP3    H158775   6.602   6.453   3.506  1.5541 -1.9472  0.8279
12428TIP3    H258776   6.606   6.405   3.363 -1.1390  0.8746 -0.2562
12429TIP3   OH258777   6.673   5.838  15.093 -0.1833  0.3569 -0.1332
12429TIP3    H158778   6.652   5.883  15.175 -0.4699  0.5743 -0.3225
12429TIP3    H258779   6.653   5.903  15.025 -0.7514 -0.1177 -0.4192
12430TIP3   OH258780   3.562   6.531   1.274  0.0868 -0.3371  0.3114
12430TIP3    H158781   3.476   6.495   1.296 -0.1216  1.0089  1.7511
12430TIP3    H258782   3.576   6.601   1.338  1.9254 -0.0470 -0.3835
12431TIP3   OH258783   3.692   1.582   4.337  0.3004 -0.0189 -0.0942
12431TIP3    H158784   3.633   1.602   4.264 -0.4402 -1.7521  0.0160
12431TIP3    H258785   3.779   1.606   4.304 -0.3039  1.4675 -0.6692
12432TIP3   OH258786   4.690   3.412   3.153 -0.5176  0.3224 -0.2558
12432TIP3    H158787   4.719   3.377   3.238  0.3995  0.1796 -0.6195
12432TIP3    H258788   4.702   3.506   3.161  0.9234  0.1909 -0.7171
12433TIP3   OH258789   0.363   0.453  16.872 -0.0803 -0.6952 -0.1323
12433TIP3    H158790   0.291   0.513  16.849  0.0893 -1.0256 -1.5492
12433TIP3    H258791   0.396   0.487  16.956 -1.5126 -0.2043  0.2555
12434TIP3   OH258792   5.450   3.338   1.311 -0.4788 -0.2421 -0.0308
12434TIP3    H158793   5.443   3.253   1.355  0.3634  0.3734  1.3150
12434TIP3    H258794   5.366   3.381   1.328 -0.8943 -0.7778 -0.6860
12435TIP3   OH258795   4.249   5.898  12.655 -0.4334 -0.2691  0.6368
12435TIP3    H158796   4.314   5.872  12.721 -0.2892  0.8821  0.9455
12435TIP3    H258797   4.258   5.832  12.586 -0.5819 -1.4833  1.7564
12436TIP3   OH258798   1.886   4.299   2.873 -0.8430 -0.0431 -0.0005
12436TIP3    H158799   1.853   4.389   2.873 -2.4802 -0.6142 -1.1632
12436TIP3    H258800   1.981   4.309   2.875 -1.0051  1.7117  0.2591
12437TIP3   OH258801   0.660   4.087   3.828  0.5253 -0.0682 -0.0157
12437TIP3    H158802   0.707   4.135   3.760 -0.5334  0.8543 -0.1166
12437TIP3    H258803   0.606   4.024   3.781  1.5812 -1.0917  0.0986
12438TIP3   OH258804   1.066   2.848   5.023 -0.5002  0.4101  0.1965
12438TIP3    H158805   0.978   2.883   5.031 -0.2559  0.9557  0.5123
12438TIP3    H258806   1.082   2.805   5.107 -1.8143 -2.8273 -1.1378
12439TIP3   OH258807   3.474   1.723  14.664  0.4029  0.3797  0.0847
12439TIP3    H158808   3.422   1.803  14.669  0.7343  0.7098 -1.4344
12439TIP3    H258809   3.556   1.745  14.708  0.7675  1.1134 -0.9428
12440TIP3   OH258810   2.842   4.396  13.044  0.5178 -0.1937 -0.1665
12440TIP3    H158811   2.804   4.454  13.110 -0.0037  0.0309 -0.6623
12440TIP3    H258812   2.779   4.324  13.036  0.2446  0.1177 -0.9006
12441TIP3   OH258813   1.021   3.352   3.742 -0.8658  0.2652  0.1369
12441TIP3    H158814   0.966   3.421   3.781 -1.3896  0.2225 -0.5170
12441TIP3    H258815   1.110   3.383   3.755 -1.1685  2.5646 -2.8298
12442TIP3   OH258816   5.040   4.240   3.692 -0.4329  0.3492 -0.3510
12442TIP3    H158817   5.023   4.155   3.651  0.8755  0.1357 -0.4680
12442TIP3    H258818   4.955   4.267   3.726 -1.1601 -0.3400 -1.5660
12443TIP3   OH258819   4.711   0.769   0.131 -0.0682 -0.0634 -0.6215
12443TIP3    H158820   4.681   0.825   0.202  0.4669 -1.8279  1.0474
12443TIP3    H258821   4.806   0.780   0.129 -0.1214  0.2990 -1.3453
12444TIP3   OH258822   3.818   5.128  11.733  0.2343  0.5306 -0.3678
12444TIP3    H158823   3.847   5.219  11.742 -0.4148  0.9616 -2.2793
12444TIP3    H258824   3.730   5.135  11.694  0.3539 -0.9189 -0.9177
12445TIP3   OH258825   2.517   3.020  12.830  0.6158 -0.1807 -0.1675
12445TIP3    H158826   2.509   2.975  12.915 -1.0339 -0.7604 -0.6238
12445TIP3    H258827   2.569   3.098  12.850  2.5593 -1.6790  0.8607
12446TIP3   OH258828   5.020   5.339   1.894  0.4694 -0.3325  0.2416
12446TIP3    H158829   4.948   5.275   1.891  0.7225 -0.6340  0.5922
12446TIP3    H258830   5.087   5.297   1.948  0.6416  0.2224  0.4634
12447TIP3   OH258831   4.380   4.588   0.872  0.4393  0.3043 -0.2190
12447TIP3    H158832   4.403   4.676   0.844  0.4857  0.3686  0.0137
12447TIP3    H258833   4.285   4.582   0.858  0.3307  0.6152  0.3617
12448TIP3   OH258834   3.991   0.712  11.798 -0.0897  0.3596 -0.0244
12448TIP3    H158835   4.069   0.660  11.817 -1.2801 -1.3727  0.2936
12448TIP3    H258836   3.980   0.703  11.703 -0.2013  0.1664  0.0078
12449TIP3   OH258837   4.397   2.576   2.660 -0.2386  0.0785  0.0430
12449TIP3    H158838   4.310   2.545   2.682  0.4366 -0.7786  1.5921
12449TIP3    H258839   4.383   2.663   2.623 -1.5116  1.3673  3.3605
12450TIP3   OH258840   2.964   0.044  12.683 -0.2722  0.1808  0.6703
12450TIP3    H158841   2.872   0.026  12.663 -0.2274 -0.3187  0.9150
12450TIP3    H258842   2.963   0.130  12.725 -0.4220  1.0494 -1.0528
12451TIP3   OH258843   1.702   3.579  16.569 -0.1447  0.1499 -0.5320
12451TIP3    H158844   1.763   3.507  16.556  0.3938  0.7056 -1.1436
12451TIP3    H258845   1.758   3.655  16.583 -0.7043  0.1818  1.7259
12452TIP3   OH258846   3.652   6.255  11.849  0.3154 -0.0224 -0.0464
12452TIP3    H158847   3.718   6.306  11.896 -0.0601 -1.0937  1.6923
12452TIP3    H258848   3.577   6.314  11.840  1.4649  1.1944 -2.0159
12453TIP3   OH258849   3.918   3.625  12.264 -0.0309 -0.0998 -0.2948
12453TIP3    H158850   3.886   3.661  12.347 -1.3966  0.0869 -0.8781
12453TIP3    H258851   4.005   3.591  12.284  1.0694  3.0086  0.4285
12454TIP3   OH258852   4.495   2.817  11.706  0.2859 -0.9017 -0.0825
12454TIP3    H158853   4.498   2.853  11.794  1.0979 -2.6028  0.6123
12454TIP3    H258854   4.579   2.771  11.696  1.4128  1.5825 -2.7639
12455TIP3   OH258855   0.673   1.616  12.261 -0.6185  0.1297  0.4293
12455TIP3    H158856   0.768   1.621  12.258 -0.3717 -3.4558  0.5216
12455TIP3    H258857   0.644   1.669  12.187  1.6510 -2.8919 -2.7553
12456TIP3   OH258858   5.698   0.127  12.322 -0.0923  0.0709 -0.0333
12456TIP3    H158859   5.669   0.149  12.411  1.3939  0.9625  0.2396
12456TIP3    H258860   5.779   0.077  12.335 -0.9921 -1.6265 -0.8155
12457TIP3   OH258861   2.223   5.859  12.062  0.2299 -0.0944 -0.4066
12457TIP3    H158862   2.264   5.944  12.052 -0.7577  1.0155  3.8010
12457TIP3    H258863   2.287   5.797  12.027  1.8086  2.1998 -1.7209
12458TIP3   OH258864   0.646   0.050  12.110 -0.5586  0.4838 -0.1690
12458TIP3    H158865   0.633   0.143  12.090 -2.3670  0.6882  1.8112
12458TIP3    H258866   0.566   0.024  12.157  0.3083 -1.8431  0.0722
12459TIP3   OH258867   3.163   0.526   4.080  0.1026 -0.3253  0.1611
12459TIP3    H158868   3.239   0.585   4.073 -0.5877  0.5881  0.2628
12459TIP3    H258869   3.141   0.526   4.173 -1.0816  0.7913 -0.0991
12460TIP3   OH258870   1.900   2.170   5.450 -0.2461 -0.2142 -0.3723
12460TIP3    H158871   1.914   2.165   5.545  0.9353  1.0542 -0.4639
12460TIP3    H258872   1.969   2.229   5.419  0.7810 -2.3499 -2.3185
12461TIP3   OH258873   0.657   3.741  13.247 -0.1531 -0.3815 -0.1658
12461TIP3    H158874   0.565   3.734  13.273 -0.5001 -1.0635 -1.5370
12461TIP3    H258875   0.694   3.656  13.269 -0.3750 -0.8554 -1.5833
12462TIP3   OH258876   5.640   0.675   4.211 -0.1659  0.5654 -0.4454
12462TIP3    H158877   5.683   0.676   4.296 -1.6060  0.5634  0.3103
12462TIP3    H258878   5.700   0.629   4.153  1.5392  1.9853  0.1733
12463TIP3   OH258879   6.220   0.965  15.663  0.4284 -0.0954 -0.5733
12463TIP3    H158880   6.198   0.872  15.658  1.6212 -0.3497 -1.2702
12463TIP3    H258881   6.157   1.008  15.605 -0.1552 -0.4549 -0.2150
12464TIP3   OH258882   1.447   1.898  14.689  0.6062  0.2937  0.3588
12464TIP3    H158883   1.502   1.822  14.705  0.7389  0.2770 -0.1622
12464TIP3    H258884   1.404   1.880  14.605  0.3147  0.6000  0.4404
12465TIP3   OH258885   6.665   0.115   4.721 -0.7290 -0.4262  0.3174
12465TIP3    H158886   6.700   0.127   4.809  1.3851  0.7335 -0.6261
12465TIP3    H258887   6.687   0.024   4.699 -2.1181 -1.0148  1.3294
12466TIP3   OH258888   1.839   2.234   2.994  0.0673 -0.1185  0.0544
12466TIP3    H158889   1.895   2.281   3.056  0.7373 -0.7164 -0.0774
12466TIP3    H258890   1.761   2.213   3.044  0.3118  0.0107  0.4972
12467TIP3   OH258891   3.223   6.010   4.920  0.3679 -0.1288  0.0540
12467TIP3    H158892   3.209   6.097   4.957  1.7715 -0.5332  1.5761
12467TIP3    H258893   3.213   5.950   4.994 -0.3037 -1.2461 -0.9192
12468TIP3   OH258894   6.782   6.547   1.369 -0.1524 -0.1951 -0.9553
12468TIP3    H158895   6.752   6.559   1.460 -0.1580 -1.3398 -0.7922
12468TIP3    H258896   6.877   6.541   1.376 -0.1445 -0.1530 -1.0325
12469TIP3   OH258897   4.003   5.429  11.095  0.1317 -0.0784 -0.0753
12469TIP3    H158898   4.023   5.404  11.185 -0.0087  1.7132  0.4602
12469TIP3    H258899   4.086   5.420  11.048  1.1191  2.6827  1.0854
12470TIP3   OH258900   3.162   0.121   5.909 -0.5290 -0.4356  0.4468
12470TIP3    H158901   3.250   0.086   5.911  0.3395  1.4642 -1.8948
12470TIP3    H258902   3.163   0.193   5.972 -0.2225  0.0048 -0.0636
12471TIP3   OH258903   6.608   4.053   3.643 -0.1340  0.5175  0.0844
12471TIP3    H158904   6.625   4.117   3.712 -0.2516 -0.7856  1.3384
12471TIP3    H258905   6.684   4.060   3.585  2.0815 -1.3753  2.6592
12472TIP3   OH258906   2.348   3.808   0.563 -0.0818 -0.0620  0.1145
12472TIP3    H158907   2.274   3.828   0.621  0.0551  0.2435  0.1867
12472TIP3    H258908   2.366   3.891   0.518 -1.4867 -0.7962 -1.8589
12473TIP3   OH258909   4.931   0.036  13.242  0.0433 -0.2287  0.4574
12473TIP3    H158910   4.982   0.116  13.241 -0.4617  0.1140  1.2360
12473TIP3    H258911   4.990  -0.030  13.279  0.3040 -0.0987  0.2664
12474TIP3   OH258912   6.389   3.544   2.260  0.4414 -0.7970 -0.2721
12474TIP3    H158913   6.317   3.566   2.320 -0.0268 -1.1672 -0.6940
12474TIP3    H258914   6.363   3.583   2.176  0.6809 -1.0324 -0.4548
12475TIP3   OH258915   4.581   2.058   4.759  0.5024  0.1161 -0.2032
12475TIP3    H158916   4.620   2.062   4.672  0.2933  1.9928 -0.2341
12475TIP3    H258917   4.588   2.147   4.792 -1.5980 -0.0433  0.7487
12476TIP3   OH258918   4.307   0.915   4.458 -0.1392  0.1092 -0.4974
12476TIP3    H158919   4.280   0.942   4.546  0.6064 -0.0518 -0.2226
12476TIP3    H258920   4.382   0.971   4.437  2.3707 -2.6856  0.6541
12477TIP3   OH258921   6.369   3.055  13.718  0.7338  0.3463  0.0154
12477TIP3    H158922   6.305   3.126  13.719 -0.5017 -0.7280 -0.6104
12477TIP3    H258923   6.428   3.076  13.646 -0.0084  0.4276 -0.5768
12478TIP3   OH258924   1.079   4.203   4.709  0.0939  0.6824 -0.3171
12478TIP3    H158925   0.987   4.184   4.727  0.2233 -0.3638 -0.6979
12478TIP3    H258926   1.110   4.249   4.787 -1.0643  2.1658 -0.7087
12479TIP3   OH258927   6.728   4.481  14.689  0.2470  0.0605  0.3657
12479TIP3    H158928   6.671   4.441  14.754  0.9027  1.3575  1.7559
12479TIP3    H258929   6.782   4.543  14.738  0.5604  1.2703 -1.4460
12480TIP3   OH258930   3.174   3.151  13.959  0.5320 -0.2961  0.2717
12480TIP3    H158931   3.264   3.184  13.961  0.7736 -0.9178 -0.1423
12480TIP3    H258932   3.158   3.119  14.047  0.6709 -0.0588  0.3827
12481TIP3   OH258933   5.385   4.939   3.624 -0.7720 -0.3722  0.9818
12481TIP3    H158934   5.369   4.965   3.533 -1.4966 -1.0589  0.9041
12481TIP3    H258935   5.439   4.860   3.617  0.3053  0.3339  1.1843
12482TIP3   OH258936   3.141   4.944  14.751  0.7490 -0.3025 -0.1761
12482TIP3    H158937   3.101   5.027  14.724  0.7627 -0.9285 -2.1850
12482TIP3    H258938   3.231   4.949  14.720  0.9443 -0.7998  0.2934
12483TIP3   OH258939   2.480   2.932  15.309  0.0462 -0.2790 -0.6296
12483TIP3    H158940   2.536   2.970  15.241 -0.2753  1.2620 -0.0510
12483TIP3    H258941   2.537   2.924  15.385 -0.7499  2.2768  0.2798
12484TIP3   OH258942   4.871   4.576  12.196  0.5477  0.0830 -0.3087
12484TIP3    H158943   4.873   4.669  12.220  1.7952 -0.3122  1.2646
12484TIP3    H258944   4.901   4.531  12.276 -0.6212 -1.7001 -0.8603
12485TIP3   OH258945   4.769   5.433  15.348  0.0331  0.3443  0.2932
12485TIP3    H158946   4.853   5.407  15.386  0.8888  2.6019  0.0479
12485TIP3    H258947   4.793   5.486  15.272 -1.6135  0.6322 -0.0345
12486TIP3   OH258948   3.078   1.121   1.737  0.1669 -0.1960  0.4510
12486TIP3    H158949   3.121   1.133   1.822  1.3820 -1.1167 -0.0171
12486TIP3    H258950   3.106   1.196   1.685 -1.4788  0.9775  1.1927
12487TIP3   OH258951   4.408   2.811  13.554 -0.2232 -0.1380  0.2699
12487TIP3    H158952   4.443   2.793  13.641 -0.9406  0.4535  0.6881
12487TIP3    H258953   4.441   2.898  13.532  1.1601 -0.8880 -0.6794
12488TIP3   OH258954   5.816   2.702  15.768  0.4964 -0.0072  0.5578
12488TIP3    H158955   5.783   2.766  15.831  0.7446  0.1434  0.5362
12488TIP3    H258956   5.894   2.742  15.732 -0.5135  0.5898 -1.0014
12489TIP3   OH258957   2.250   6.420  15.059 -0.0860 -0.1804 -0.4844
12489TIP3    H158958   2.340   6.402  15.033 -0.1374 -0.6325 -0.3643
12489TIP3    H258959   2.216   6.481  14.993  0.9137  1.5229  0.5468
12490TIP3   OH258960   4.891   4.219  11.548 -1.0282  0.5555 -0.2423
12490TIP3    H158961   4.818   4.280  11.537 -0.4594  1.4470  0.7739
12490TIP3    H258962   4.949   4.238  11.474  0.3990  3.0996  1.4149
12491TIP3   OH258963   6.255   4.205   4.559  0.1259  0.2804  0.0384
12491TIP3    H158964   6.205   4.125   4.570  0.7479 -0.3872 -1.8443
12491TIP3    H258965   6.297   4.219   4.644  0.9457 -2.0247  0.0430
12492TIP3   OH258966   5.114   3.349   2.291  0.5432 -0.1977  0.0830
12492TIP3    H158967   5.201   3.315   2.309 -0.1411 -2.2432 -0.3657
12492TIP3    H258968   5.057   3.303   2.352  0.0192  2.7902  1.9996
12493TIP3   OH258969   5.971   2.028   5.388 -0.5314 -0.2280 -0.1591
12493TIP3    H158970   5.997   2.001   5.300 -2.1985 -1.1190 -0.3943
12493TIP3    H258971   5.876   2.025   5.387 -0.6375  1.7800  1.0590
12494TIP3   OH258972   6.140   5.417   3.785  0.4205  0.4607  0.7201
12494TIP3    H158973   6.193   5.377   3.716  2.4484  1.7775  1.4646
12494TIP3    H258974   6.147   5.511   3.770  0.4520  0.7482  2.3916
12495TIP3   OH258975   2.651   2.562  15.788  0.4613 -0.2079  0.1915
12495TIP3    H158976   2.645   2.613  15.708  1.8986  1.6205  1.1965
12495TIP3    H258977   2.581   2.497  15.781 -1.1978  1.6664 -1.2948
12496TIP3   OH258978   5.765   1.329   1.924 -0.0498 -0.1989  0.1971
12496TIP3    H158979   5.761   1.333   1.829  0.1485 -0.3794  0.1787
12496TIP3    H258980   5.676   1.308   1.951 -0.0480 -0.4255  0.0329
12497TIP3   OH258981   1.870   3.229  11.099 -0.0626  0.7575 -0.1359
12497TIP3    H158982   1.789   3.178  11.102 -0.7129  1.8770  3.2067
12497TIP3    H258983   1.937   3.171  11.136  0.4661  0.2973 -1.7290
12498TIP3   OH258984   0.622   2.374   1.343  0.1098  0.2877 -0.4567
12498TIP3    H158985   0.692   2.376   1.408  0.1856  0.0990 -0.5308
12498TIP3    H258986   0.654   2.312   1.276 -0.4915 -0.4338 -0.0837
12499TIP3   OH258987   2.876   0.895  15.402 -0.5518 -0.0820 -0.5311
12499TIP3    H158988   2.837   0.808  15.402  1.3449 -0.9572  0.1693
12499TIP3    H258989   2.959   0.884  15.356 -0.5792  1.5115 -1.0099
12500TIP3   OH258990   6.333   3.945  12.272 -0.0103 -0.0365  0.0865
12500TIP3    H158991   6.425   3.926  12.257 -0.1926 -1.7091  0.9989
12500TIP3    H258992   6.334   4.007  12.345  0.4490  1.2341 -0.9757
12501TIP3   OH258993   5.280   6.490  14.740 -0.0313  0.7793 -0.0383
12501TIP3    H158994   5.283   6.545  14.818 -0.3293  0.7762 -0.0264
12501TIP3    H258995   5.189   6.462  14.733 -0.2217  1.5965 -0.9498
12502TIP3   OH258996   0.681   1.523   3.080 -0.7237  0.4989 -0.5209
12502TIP3    H158997   0.646   1.500   2.993 -0.4188 -0.8473 -0.2930
12502TIP3    H258998   0.606   1.513   3.139 -0.7334  0.6536 -0.5066
12503TIP3   OH258999   2.512   5.082  16.121 -0.5182  0.1670 -0.1396
12503TIP3    H159000   2.563   5.137  16.181 -0.3237 -1.5929  1.3326
12503TIP3    H259001   2.510   5.132  16.039  0.7705  1.7633  0.7735
12504TIP3   OH259002   3.716   4.073   1.915 -0.1859 -0.3945 -0.1823
12504TIP3    H159003   3.711   4.054   2.009 -1.9167  0.4406 -0.0706
12504TIP3    H259004   3.757   3.996   1.876  1.1847 -0.4560  1.3373
12505TIP3   OH259005   3.979   1.866   1.873  0.7371  0.3330  0.1855
12505TIP3    H159006   4.003   1.792   1.928  2.1207 -0.0540 -0.9313
12505TIP3    H259007   4.053   1.878   1.815 -0.2545  1.4420 -0.8698
12506TIP3   OH259008   0.355   4.475   0.778  0.0312  0.6410  0.8139
12506TIP3    H159009   0.293   4.472   0.851  0.8503 -0.2706  1.4819
12506TIP3    H259010   0.363   4.384   0.748  1.2156  0.7090  0.8819
12507TIP3   OH259011   3.496   2.148  13.582 -0.1502 -0.1327  0.2026
12507TIP3    H159012   3.491   2.125  13.489  3.2305  1.5375 -0.4582
12507TIP3    H259013   3.489   2.243  13.584  0.9013 -0.0605  1.5405
12508TIP3   OH259014   2.121   0.757   1.745 -0.1356  0.0588 -0.0774
12508TIP3    H159015   2.152   0.708   1.669  0.9184 -0.4432  0.6532
12508TIP3    H259016   2.036   0.719   1.766  0.1149 -0.6295 -0.2792
12509TIP3   OH259017   3.972   1.743  17.227  0.5743 -0.0269  0.2854
12509TIP3    H159018   3.931   1.752  17.313 -2.0875  0.3784 -0.9809
12509TIP3    H259019   3.932   1.812  17.174  1.3517 -0.9668 -1.5736
12510TIP3   OH259020   6.366   4.158  12.840  0.2843  0.5478  0.3670
12510TIP3    H159021   6.360   4.063  12.848  1.8581  0.3751 -0.2320
12510TIP3    H259022   6.447   4.180  12.887  0.3365  1.4928 -0.1608
12511TIP3   OH259023   0.847   2.615  13.263  0.2644  0.7039 -0.2251
12511TIP3    H159024   0.938   2.586  13.264 -0.2569 -0.9718  0.1149
12511TIP3    H259025   0.805   2.560  13.197 -0.8423  0.3801  0.7234
12512TIP3   OH259026   3.215   1.989   5.231  0.4520 -0.1239  0.7314
12512TIP3    H159027   3.293   1.946   5.197  0.5778  0.3040  0.4754
12512TIP3    H259028   3.235   2.006   5.323  0.9402  0.6382  0.4849
12513TIP3   OH259029   4.048   4.571  14.267  0.1626 -0.1143  0.2015
12513TIP3    H159030   4.053   4.583  14.362  1.4994  0.1887  0.1016
12513TIP3    H259031   4.039   4.477  14.255  0.1107 -0.1637  0.6219
12514TIP3   OH259032   2.415   5.515   5.225  0.3247  0.2798  0.0352
12514TIP3    H159033   2.495   5.551   5.264  1.2452 -0.2495 -1.3108
12514TIP3    H259034   2.377   5.589   5.176  0.7491  0.1671 -0.4726
12515TIP3   OH259035   4.502   5.880   4.361 -0.2588 -0.6697  0.3230
12515TIP3    H159036   4.594   5.878   4.335 -0.2578  2.3945 -0.0855
12515TIP3    H259037   4.488   5.796   4.405  2.3349 -1.7867 -0.8543
12516TIP3   OH259038   1.268   3.676  16.092 -0.2209 -0.2525 -0.2214
12516TIP3    H159039   1.176   3.697  16.108 -0.0748 -0.1923  0.5921
12516TIP3    H259040   1.316   3.748  16.135  0.2383 -1.1425  0.7803
12517TIP3   OH259041   5.901   6.216  14.605  1.1320  0.3708 -0.6012
12517TIP3    H159042   5.961   6.268  14.659  2.5342 -0.4826 -1.3329
12517TIP3    H259043   5.841   6.175  14.668  2.0296  0.3157  0.2158
12518TIP3   OH259044   3.540   5.029   4.337 -0.0963 -0.3092  0.0343
12518TIP3    H159045   3.517   4.995   4.423  2.8924  1.7840  1.7388
12518TIP3    H259046   3.479   5.101   4.322 -0.5672 -0.6271  0.3941
12519TIP3   OH259047   4.770   3.691   3.752  0.2381 -0.3491 -0.3041
12519TIP3    H159048   4.736   3.725   3.834  1.8855  0.9100 -0.1239
12519TIP3    H259049   4.851   3.740   3.736  0.1027 -0.7734 -2.5309
12520TIP3   OH259050   6.422   3.986   4.430  0.6190  0.0436  0.0791
12520TIP3    H159051   6.385   3.951   4.511  2.8898 -2.4907  0.0960
12520TIP3    H259052   6.346   3.999   4.373 -0.6044 -2.7104  0.9540
12521TIP3   OH259053   1.595   3.571   3.406 -0.3302 -0.1770 -0.1229
12521TIP3    H159054   1.591   3.492   3.460 -0.2293  0.8388  1.3818
12521TIP3    H259055   1.689   3.583   3.389 -0.4439 -1.2038 -1.6167
12522TIP3   OH259056   4.979   3.460  10.735  0.0579 -0.3060 -0.1861
12522TIP3    H159057   5.020   3.441  10.651  1.9673  1.8123  0.2236
12522TIP3    H259058   5.047   3.441  10.800 -0.1884  1.5468  0.6356
12523TIP3   OH259059   4.899   4.823  15.563 -0.5702  0.1955  0.1702
12523TIP3    H159060   4.995   4.822  15.558 -0.6564 -0.8175 -2.6671
12523TIP3    H259061   4.878   4.758  15.630  0.7419  0.5506  0.9457
12524TIP3   OH259062   3.264   6.583  14.380 -0.1267  0.2373  0.3947
12524TIP3    H159063   3.168   6.580  14.379 -0.1865  1.6700 -0.5580
12524TIP3    H259064   3.290   6.515  14.318 -0.5454  0.1288  0.3360
12525TIP3   OH259065   5.672   0.004  15.299 -0.7318  0.2449 -0.0457
12525TIP3    H159066   5.649   0.094  15.276  0.4193  0.7216  0.6162
12525TIP3    H259067   5.756   0.012  15.344 -0.7677 -1.1353  0.2781
12526TIP3   OH259068   3.758   3.949  16.159  0.2989  0.1874  0.0242
12526TIP3    H159069   3.792   4.037  16.174 -0.2549  0.5249 -0.6631
12526TIP3    H259070   3.738   3.946  16.065 -0.7309 -0.2883  0.2462
12527TIP3   OH259071   0.301   3.871   0.711  0.1368  0.0982  0.0288
12527TIP3    H159072   0.334   3.885   0.800  2.2979  1.6228 -0.9671
12527TIP3    H259073   0.326   3.951   0.664 -0.0023 -1.1609 -2.2205
12528TIP3   OH259074   5.660   0.938   0.373  0.2220 -0.3599  0.3523
12528TIP3    H159075   5.641   1.015   0.426 -1.1064 -0.7257  0.4182
12528TIP3    H259076   5.605   0.947   0.295  3.1015  0.8438 -1.6727
12529TIP3   OH259077   4.491   1.936   1.640  0.1524  0.0897 -0.4118
12529TIP3    H159078   4.482   1.877   1.714 -0.5812  0.4969 -0.1704
12529TIP3    H259079   4.528   2.016   1.677 -0.6303  0.4541 -0.3959
12530TIP3   OH259080   4.735   5.154   2.362 -0.0643 -0.0145  0.5408
12530TIP3    H159081   4.743   5.113   2.448  0.1857  1.6737  1.3333
12530TIP3    H259082   4.641   5.166   2.349 -0.0602  0.4654  0.9378
12531TIP3   OH259083   5.861   3.237   1.210  0.8957 -0.4136  0.0643
12531TIP3    H159084   5.795   3.184   1.165  1.5877 -1.0311 -0.2332
12531TIP3    H259085   5.815   3.318   1.233  0.0965 -0.7463 -0.3313
12532TIP3   OH259086   2.638   3.077   5.294  0.4277 -0.4936 -0.2433
12532TIP3    H159087   2.718   3.093   5.243 -0.4289  1.8986 -0.9127
12532TIP3    H259088   2.567   3.093   5.232 -0.5861 -1.8938  0.5448
12533TIP3   OH259089   3.249   3.461  12.019 -0.2203 -0.6708 -0.1575
12533TIP3    H159090   3.190   3.408  12.073  0.1882 -0.4888  0.4768
12533TIP3    H259091   3.333   3.458  12.066  0.4861 -1.5610 -1.4405
12534TIP3   OH259092   6.648   0.577   4.213  0.2943 -0.1968 -0.2970
12534TIP3    H159093   6.590   0.502   4.223  2.6759 -1.8799  1.2995
12534TIP3    H259094   6.643   0.623   4.297  0.4233  0.2608 -0.5364
12535TIP3   OH259095   4.252   6.013  10.600  0.4978  0.7994  0.1336
12535TIP3    H159096   4.344   6.008  10.624  0.3423 -1.0033  0.4814
12535TIP3    H259097   4.220   5.923  10.609 -1.4902  1.5302  0.8291
12536TIP3   OH259098   3.941   5.837   2.510 -0.1855  0.4208 -0.1732
12536TIP3    H159099   3.874   5.813   2.446 -1.8765 -0.3060  1.8285
12536TIP3    H259100   3.892   5.874   2.584  1.6631  0.4109  1.0821
12537TIP3   OH259101   2.197   4.144   5.697 -0.0676  0.0324 -0.1203
12537TIP3    H159102   2.134   4.190   5.752 -0.8100  1.0813 -1.8333
12537TIP3    H259103   2.153   4.064   5.671  0.0832 -0.2048  0.3383
12538TIP3   OH259104   0.831   2.877   2.067 -0.5637 -0.2229  0.0786
12538TIP3    H159105   0.778   2.951   2.036 -0.4867 -0.3916 -0.4488
12538TIP3    H259106   0.849   2.825   1.989  1.0550  0.2559  0.1137
12539TIP3   OH259107   2.337   1.166   4.300 -0.6275  0.4385 -0.2342
12539TIP3    H159108   2.401   1.203   4.239 -1.5878  0.4434 -1.2460
12539TIP3    H259109   2.258   1.156   4.249 -1.5096  0.6199  1.0695
12540TIP3   OH259110   2.783   1.099   3.494  0.1389  0.0381  0.5317
12540TIP3    H159111   2.808   1.069   3.407  1.0044  2.2763 -0.0471
12540TIP3    H259112   2.688   1.100   3.493  0.1475  0.2264 -0.4744
12541TIP3   OH259113   1.913   6.610   4.275 -0.2172  0.6830  0.0789
12541TIP3    H159114   1.937   6.519   4.293 -2.6241 -0.0536 -0.2958
12541TIP3    H259115   1.962   6.633   4.196  0.8373 -0.0803  0.4934
12542TIP3   OH259116   0.393   0.670  16.295  0.1054  0.3868  0.0878
12542TIP3    H159117   0.415   0.704  16.383 -0.2781 -1.1063  0.7690
12542TIP3    H259118   0.438   0.585  16.291 -0.1288  0.3197 -1.0588
12543TIP3   OH259119   2.569   1.180   5.079  0.0512 -0.1088 -0.4167
12543TIP3    H159120   2.661   1.154   5.078 -0.2624 -1.2286 -0.8174
12543TIP3    H259121   2.520   1.097   5.070 -1.0029  0.3694  0.7198
12544TIP3   OH259122   2.540   0.393  16.377  0.1046 -0.0336 -0.2605
12544TIP3    H159123   2.549   0.456  16.448  0.4756  0.4534 -0.7365
12544TIP3    H259124   2.568   0.309  16.415  2.3528  0.6058 -0.4273
12545TIP3   OH259125   0.707   2.562   1.899  0.1883  0.1367  0.0552
12545TIP3    H159126   0.642   2.599   1.840 -0.3739  1.9590  1.7911
12545TIP3    H259127   0.791   2.591   1.863 -0.2268  2.8815  1.2013
12546TIP3   OH259128   1.374   6.091  11.469 -0.4199  0.0157  0.6785
12546TIP3    H159129   1.290   6.109  11.510 -1.9861 -0.8199 -2.0341
12546TIP3    H259130   1.363   6.005  11.427  1.1152  0.7368 -1.3019
12547TIP3   OH259131   5.786   0.221  12.050 -0.4576  0.0560  0.0782
12547TIP3    H159132   5.807   0.130  12.028  0.2985 -0.3340  2.3293
12547TIP3    H259133   5.700   0.216  12.091  0.1497  0.1852  1.3788
12548TIP3   OH259134   1.256   6.799  12.221 -0.2778 -0.3188 -0.4114
12548TIP3    H159135   1.222   6.794  12.132  0.1541  0.2826 -0.6189
12548TIP3    H259136   1.202   6.866  12.264 -1.4959 -1.7064  0.2505
12549TIP3   OH259137   4.420   1.813   1.884 -0.1144  0.7148 -0.5478
12549TIP3    H159138   4.403   1.873   1.957  0.9315  0.9530 -0.4954
12549TIP3    H259139   4.485   1.752   1.917 -0.9226 -0.2567 -0.7192
12550TIP3   OH259140   5.508   4.137   3.246 -0.0468 -0.1056  0.2716
12550TIP3    H159141   5.414   4.127   3.232 -0.3293  1.3084  0.9405
12550TIP3    H259142   5.527   4.227   3.218  1.4890 -1.0179 -1.7011
12551TIP3   OH259143   2.039   6.210   1.111  0.3681 -0.0005 -0.1451
12551TIP3    H159144   2.023   6.260   1.031  0.1342 -0.4974 -0.4100
12551TIP3    H259145   2.105   6.261   1.158  0.8358  0.0630 -0.8634
12552TIP3   OH259146   4.518   6.581  15.511 -0.3440  0.2189  0.1669
12552TIP3    H159147   4.496   6.656  15.567 -2.7902  1.3115 -2.1368
12552TIP3    H259148   4.517   6.506  15.570  1.0466  1.8310  2.3157
12553TIP3   OH259149   5.838   0.208   6.512  0.4431 -0.4715  0.2767
12553TIP3    H159150   5.913   0.194   6.571 -0.8182 -2.6870  1.4071
12553TIP3    H259151   5.860   0.161   6.432 -0.1034 -1.8410  0.9265
12554TIP3   OH259152   4.613   1.726   0.463 -0.0675  0.0619  0.8455
12554TIP3    H159153   4.655   1.665   0.402  2.9731  2.0921  0.7735
12554TIP3    H259154   4.589   1.672   0.538  0.8093 -1.5522 -0.0001
12555TIP3   OH259155   1.281   2.526  11.358  0.9508 -0.1122  0.4036
12555TIP3    H159156   1.352   2.491  11.412 -0.4758 -1.8455  1.2318
12555TIP3    H259157   1.317   2.530  11.270  1.4599 -2.9863  0.4158
12556TIP3   OH259158   0.828   3.526   4.936  0.1986  0.2723  0.1698
12556TIP3    H159159   0.803   3.506   4.845  1.5407  0.4988 -0.2661
12556TIP3    H259160   0.746   3.553   4.978 -0.2812  1.0165 -1.2096
12557TIP3   OH259161   1.389   1.544  16.389 -0.0635 -0.6398 -0.2394
12557TIP3    H159162   1.435   1.486  16.450  0.3901 -0.2255 -0.1815
12557TIP3    H259163   1.331   1.595  16.444  0.7989  0.1707 -0.0711
12558TIP3   OH259164   6.644   5.230  13.132  0.1931  0.1619 -0.1409
12558TIP3    H159165   6.676   5.242  13.043  1.3612  3.9255  0.7064
12558TIP3    H259166   6.719   5.248  13.188 -1.1453  0.3332  1.6613
12559TIP3   OH259167   1.382   2.990   6.185 -0.0344  0.4344 -0.2154
12559TIP3    H159168   1.342   3.026   6.265  1.3855 -0.3184  0.8509
12559TIP3    H259169   1.413   2.903   6.211  1.1281  0.4867 -1.3865
12560TIP3   OH259170   1.212   0.579   4.976  0.5097  0.1048 -0.1744
12560TIP3    H159171   1.138   0.533   4.937 -0.0529 -0.6713  1.7468
12560TIP3    H259172   1.178   0.665   5.000  0.4447  0.0277  0.0084
12561TIP3   OH259173   2.761   4.015   0.714 -0.1343 -0.0351 -0.2453
12561TIP3    H159174   2.801   3.936   0.677  2.5968  0.5088  1.4679
12561TIP3    H259175   2.692   3.982   0.772  1.8589 -1.2582  1.4925
12562TIP3   OH259176   5.931   4.677  12.944 -0.1730 -0.2743  0.6705
12562TIP3    H159177   5.971   4.677  13.031 -0.4068  0.2030  0.7758
12562TIP3    H259178   6.005   4.686  12.884 -0.0436 -0.2730  0.8304
12563TIP3   OH259179   2.547   0.690   0.756 -0.3151  0.4869 -0.2790
12563TIP3    H159180   2.586   0.605   0.734  0.5366  0.4803  1.1674
12563TIP3    H259181   2.473   0.699   0.696 -0.2598 -1.1719 -0.6182
12564TIP3   OH259182   0.844   4.082  15.013 -0.6277  0.1444  0.6440
12564TIP3    H159183   0.828   4.021  15.085 -3.5598  0.9916  0.7951
12564TIP3    H259184   0.821   4.033  14.935  0.5362 -0.1040  0.4573
12565TIP3   OH259185   6.366   3.342   6.092 -0.0829  0.2454 -0.6676
12565TIP3    H159186   6.423   3.299   6.155 -1.0412  0.8471  0.6430
12565TIP3    H259187   6.424   3.399   6.042  0.7857 -0.7056 -0.7589
12566TIP3   OH259188   5.607   2.729   1.609 -0.3689 -0.5976  0.1313
12566TIP3    H159189   5.616   2.635   1.590  0.0476 -0.3418 -1.0128
12566TIP3    H259190   5.574   2.732   1.698  0.0600 -1.8306  0.3548
12567TIP3   OH259191   3.241   3.676   3.191 -0.2467  0.3926  0.6309
12567TIP3    H159192   3.315   3.647   3.245 -0.5924  0.6136  1.2356
12567TIP3    H259193   3.186   3.597   3.182  0.3668  0.0695 -0.3381
12568TIP3   OH259194   6.159   6.244   4.327 -0.0773  0.0794  0.4401
12568TIP3    H159195   6.202   6.183   4.267  1.0166  0.0534  1.2238
12568TIP3    H259196   6.194   6.330   4.303  0.1057  0.1083  0.7992
12569TIP3   OH259197   3.661   1.165  14.467  0.1302 -0.7965  0.4542
12569TIP3    H159198   3.581   1.188  14.420  0.3242 -2.3668 -0.6795
12569TIP3    H259199   3.635   1.094  14.526  0.5489 -0.8926  0.5263
12570TIP3   OH259200   4.016   5.160   5.537 -0.2133  0.0521  0.4321
12570TIP3    H159201   3.980   5.227   5.479  0.4565 -0.8277 -1.0512
12570TIP3    H259202   3.961   5.083   5.521  0.6173 -0.4969  0.1779
12571TIP3   OH259203   5.943   1.647   4.927 -0.6858 -0.0320  0.2378
12571TIP3    H159204   5.955   1.585   4.998  0.1726 -0.6321 -0.4217
12571TIP3    H259205   5.985   1.606   4.852 -1.0190  0.8839 -0.4600
12572TIP3   OH259206   0.311   0.358  16.489 -0.5177 -0.1216  0.3562
12572TIP3    H159207   0.237   0.408  16.454 -0.4115 -0.8766 -0.9897
12572TIP3    H259208   0.286   0.266  16.477 -0.0131 -0.3908  1.3081
12573TIP3   OH259209   3.859   2.517   2.962 -0.3453  0.9356 -0.1899
12573TIP3    H159210   3.848   2.430   2.998 -1.7350  1.5380  0.8743
12573TIP3    H259211   3.919   2.561   3.022  3.2290 -0.3764 -2.6490
12574TIP3   OH259212   0.485   5.604  16.083  0.1632  0.5541 -0.2815
12574TIP3    H159213   0.555   5.593  16.019  0.2047 -1.4656  0.0668
12574TIP3    H259214   0.460   5.696  16.076 -0.1061  0.3062 -3.4669
12575TIP3   OH259215   0.446   3.937   0.948 -0.3831 -0.0612 -0.0182
12575TIP3    H159216   0.428   4.016   1.000 -2.8247 -0.2631 -0.4945
12575TIP3    H259217   0.466   3.870   1.013 -0.9899  0.2930  0.5483
12576TIP3   OH259218   6.020   4.983  15.151  0.2923  0.6098  0.4149
12576TIP3    H159219   5.998   5.032  15.072  2.7443  2.3886  0.7796
12576TIP3    H259220   5.956   5.011  15.216 -0.2445  0.9432 -0.2452
12577TIP3   OH259221   4.171   3.078   1.755 -0.1690  0.4316 -0.0461
12577TIP3    H159222   4.235   3.075   1.826 -1.7724 -0.4464  1.4291
12577TIP3    H259223   4.110   3.006   1.775 -0.5565  0.0452 -2.4185
12578TIP3   OH259224   5.418   1.264  11.235  0.0135  0.5435  0.0241
12578TIP3    H159225   5.430   1.330  11.166  0.4998  1.1993  0.7253
12578TIP3    H259226   5.383   1.187  11.189 -0.5083  1.2663 -0.8152
12579TIP3   OH259227   1.292   4.217   4.112 -0.2081  0.3662  0.1418
12579TIP3    H159228   1.242   4.144   4.075 -1.2097  1.3063 -0.3676
12579TIP3    H259229   1.272   4.215   4.205 -1.6456  1.0656 -0.1365
12580TIP3   OH259230   3.646   4.421   3.131  0.0940  0.0238 -0.1734
12580TIP3    H159231   3.655   4.326   3.122  1.3868  0.0272  0.9020
12580TIP3    H259232   3.736   4.453   3.132 -0.3378  1.2472 -0.3593
12581TIP3   OH259233   1.161   1.808   1.235  0.0322 -0.0346  0.2752
12581TIP3    H159234   1.131   1.751   1.305  3.2503 -0.4011  1.4224
12581TIP3    H259235   1.087   1.812   1.174 -1.7105 -2.1278  2.1718
12582TIP3   OH259236   0.443   2.678  11.946 -0.2096  0.8708 -0.3393
12582TIP3    H159237   0.532   2.646  11.930 -0.5484 -0.7274  0.7286
12582TIP3    H259238   0.410   2.702  11.860  1.6145  2.4818 -0.6147
12583TIP3   OH259239   2.758   3.249  12.258  0.2847  0.8349 -0.2398
12583TIP3    H159240   2.692   3.268  12.325 -1.4224 -1.0663 -1.3223
12583TIP3    H259241   2.836   3.223  12.308 -0.5895  0.5849  1.0345
12584TIP3   OH259242   4.739   0.609  14.767  0.1621 -0.1570  0.0575
12584TIP3    H159243   4.747   0.538  14.832 -0.0767 -0.0180  0.2394
12584TIP3    H259244   4.678   0.671  14.807  0.1126 -0.0095 -0.2472
12585TIP3   OH259245   6.324   0.010  17.095 -0.0010 -0.8546 -0.0777
12585TIP3    H159246   6.345  -0.050  17.166 -1.5731  0.9673  2.0002
12585TIP3    H259247   6.244  -0.026  17.056  0.4162 -1.4170 -0.4177
12586TIP3   OH259248   4.750   6.629   4.762  0.4127  0.2418 -0.1494
12586TIP3    H159249   4.826   6.630   4.705 -0.4261  1.4336 -1.2900
12586TIP3    H259250   4.679   6.664   4.708 -0.7286  0.0380  1.1731
12587TIP3   OH259251   1.026   5.957   6.241 -0.3165  0.4359  0.4649
12587TIP3    H159252   1.069   6.039   6.267  2.4114 -0.7003 -0.3363
12587TIP3    H259253   1.079   5.888   6.280 -1.7039 -1.0266 -0.1772
12588TIP3   OH259254   0.075   3.802  15.951  0.2672  0.7123 -0.1004
12588TIP3    H159255  -0.002   3.860  15.943 -0.8539 -0.5032  1.6392
12588TIP3    H259256   0.123   3.836  16.027  0.9268  0.8423 -0.5687
12589TIP3   OH259257   6.457   3.756  13.640 -0.0874  0.1175 -0.0864
12589TIP3    H159258   6.425   3.689  13.579 -1.1405  0.9027 -0.4162
12589TIP3    H259259   6.424   3.839  13.604  2.1940  0.9641 -0.3472
12590TIP3   OH259260   3.032   5.612  12.169  0.2417  0.6828 -0.4510
12590TIP3    H159261   3.104   5.614  12.232 -0.7434  1.0917  0.6904
12590TIP3    H259262   2.958   5.650  12.217 -1.4179 -2.1058 -0.6893
12591TIP3   OH259263   5.026   5.782  12.818  0.4310  0.1505  0.0404
12591TIP3    H159264   4.959   5.715  12.834  1.4463 -1.1445 -1.0514
12591TIP3    H259265   4.998   5.825  12.737  1.3792 -0.9828 -0.8949
12592TIP3   OH259266   2.980   4.315   2.242  0.1106  0.5707  0.2028
12592TIP3    H159267   3.028   4.395   2.218  0.1481  0.6829  0.6512
12592TIP3    H259268   2.984   4.261   2.163 -1.2595  1.6609 -0.6526
12593TIP3   OH259269   1.561   5.982   1.247  0.2994  0.4281 -0.2087
12593TIP3    H159270   1.540   6.003   1.338 -1.4744  1.1677 -0.7655
12593TIP3    H259271   1.624   5.910   1.253 -0.9623 -0.5718  1.5940
12594TIP3   OH259272   5.033   6.185   2.463  0.3272 -0.1391  0.2076
12594TIP3    H159273   5.030   6.143   2.549 -0.5616 -0.3134  0.0914
12594TIP3    H259274   5.115   6.234   2.464  0.0651  0.2946  1.3514
12595TIP3   OH259275   2.393   4.861   2.455  0.2455  0.0251 -0.0474
12595TIP3    H159276   2.329   4.932   2.458  0.4860  0.1732  2.3117
12595TIP3    H259277   2.408   4.846   2.362 -1.3175  1.7015 -0.5884
12596TIP3   OH259278   6.360   6.712   1.411 -0.3303 -0.3103  0.1745
12596TIP3    H159279   6.356   6.739   1.503 -2.9203  0.2515 -0.0683
12596TIP3    H259280   6.442   6.749   1.379  1.3663 -1.7874  2.6364
12597TIP3   OH259281   2.915   1.260  17.035 -0.0702 -0.3623 -0.3129
12597TIP3    H159282   2.930   1.344  16.992  1.4339 -0.4426  0.0025
12597TIP3    H259283   2.896   1.199  16.964  0.9234 -0.1833 -0.7483
12598TIP3   OH259284   6.458   2.777   2.585  0.5238  0.5254 -0.2778
12598TIP3    H159285   6.367   2.752   2.602  1.0725 -0.0541  1.9595
12598TIP3    H259286   6.505   2.694   2.579  1.3507  0.8718  1.2587
12599TIP3   OH259287   5.896   5.747   0.044  0.1250  0.4115 -0.2217
12599TIP3    H159288   5.840   5.810   0.090 -0.8189  0.4651 -1.4152
12599TIP3    H259289   5.890   5.667   0.096 -0.8070  0.5160 -0.1641
12600TIP3   OH259290   1.790   6.500   2.902 -0.4621 -0.2926  0.0292
12600TIP3    H159291   1.782   6.590   2.871 -0.0092 -0.3851 -0.3484
12600TIP3    H259292   1.757   6.503   2.992 -0.4308  0.2503  0.0247
12601TIP3   OH259293   3.346   2.428   5.315  0.2440 -0.0930 -0.3972
12601TIP3    H159294   3.346   2.520   5.287  0.1655 -0.1350 -0.5358
12601TIP3    H259295   3.359   2.378   5.234 -1.2146 -0.2656 -0.5407
12602TIP3   OH259296   5.197   3.678  11.597 -0.6684 -0.0755 -0.0012
12602TIP3    H159297   5.273   3.638  11.554  1.6392  1.2215  2.7014
12602TIP3    H259298   5.131   3.609  11.598  1.2760 -1.9879 -0.4119
12603TIP3   OH259299   0.303   2.445   2.188  0.1406  0.8747  0.4343
12603TIP3    H159300   0.280   2.432   2.096 -1.6369 -2.4756  1.2446
12603TIP3    H259301   0.218   2.454   2.233  0.9358  1.4632  1.8526
12604TIP3   OH259302   6.117   2.244   1.493 -0.4329  0.1379  0.9120
12604TIP3    H159303   6.068   2.254   1.574  1.3118  2.2719  1.7519
12604TIP3    H259304   6.164   2.161   1.504  0.8021  1.0379  2.6611
12605TIP3   OH259305   1.037   6.441  16.259 -0.4662  0.1185 -0.4787
12605TIP3    H159306   0.960   6.476  16.214 -0.3390 -0.0692 -0.8419
12605TIP3    H259307   1.055   6.505  16.328 -0.2150  0.7850 -1.1579
12606TIP3   OH259308   6.400   2.913  16.673  0.2339 -0.6111 -0.5833
12606TIP3    H159309   6.489   2.902  16.641 -0.1710  0.7308 -2.2622
12606TIP3    H259310   6.378   3.005  16.653 -1.0558 -0.5458  0.9906
12607TIP3   OH259311   5.590   1.162  12.433  0.7469  0.1112 -0.3519
12607TIP3    H159312   5.527   1.129  12.497  0.6530  0.7220 -0.1178
12607TIP3    H259313   5.598   1.093  12.368 -0.6212  0.2710 -0.6988
12608TIP3   OH259314   6.639   6.370   5.239  0.1075  0.5135 -0.7026
12608TIP3    H159315   6.575   6.303   5.264  0.3269  0.6145  0.1635
12608TIP3    H259316   6.676   6.337   5.157 -0.1153 -0.2026 -0.5279
12609TIP3   OH259317   4.945   2.965   0.228 -0.6992  0.4746 -0.0117
12609TIP3    H159318   5.033   2.960   0.190  0.0879 -0.3044  1.8364
12609TIP3    H259319   4.947   2.902   0.300 -2.8170  0.3758 -0.0011
12610TIP3   OH259320   5.500   1.781  13.983 -0.1455 -0.3298 -0.0891
12610TIP3    H159321   5.468   1.795  14.072  0.5229  2.8462 -0.2805
12610TIP3    H259322   5.431   1.816  13.927 -0.0360 -1.2142 -0.7872
12611TIP3   OH259323   5.965   0.620  11.586  0.0993 -0.1317  0.4143
12611TIP3    H159324   5.944   0.528  11.571 -1.7487  0.1909  0.9265
12611TIP3    H259325   5.964   0.660  11.500 -3.1630  0.2273  0.5916
12612TIP3   OH259326   6.368   3.044  11.009 -0.1136  0.0580 -0.3868
12612TIP3    H159327   6.301   2.994  11.056 -1.1977  0.9674 -0.9539
12612TIP3    H259328   6.349   3.028  10.916  1.3801 -0.8897 -0.5523
12613TIP3   OH259329   0.571   0.863  16.529 -0.4107  0.0537  0.6267
12613TIP3    H159330   0.599   0.888  16.618 -0.6490  0.9218  0.4518
12613TIP3    H259331   0.487   0.907  16.517 -0.2551  0.1347 -0.1284
12614TIP3   OH259332   4.023   3.210   5.076 -0.1596 -0.2781 -0.1530
12614TIP3    H159333   4.098   3.262   5.104  1.2013 -2.2087 -0.1536
12614TIP3    H259334   3.949   3.271   5.080  0.9376  0.9571  2.3563
12615TIP3   OH259335   0.983   1.699   6.131 -0.3085  0.0797  0.1753
12615TIP3    H159336   0.946   1.678   6.045 -0.2220  1.3031 -0.1749
12615TIP3    H259337   0.933   1.774   6.161  0.1041  0.0698  0.8998
12616TIP3   OH259338   0.362   5.727   6.012  0.8399 -0.1238 -0.3607
12616TIP3    H159339   0.285   5.782   6.021 -0.6093 -1.5971 -3.1897
12616TIP3    H259340   0.435   5.788   6.002 -0.4875  1.2689 -1.5989
12617TIP3   OH259341   3.582   5.882  13.783  0.3500 -0.9899 -0.4001
12617TIP3    H159342   3.626   5.840  13.856  1.9093  0.1820 -0.6307
12617TIP3    H259343   3.523   5.946  13.823  1.5669  0.0016 -0.1469
12618TIP3   OH259344   5.559   4.391   6.213  0.0070  0.0195 -0.6945
12618TIP3    H159345   5.496   4.401   6.142 -1.9688  1.1321  1.1535
12618TIP3    H259346   5.573   4.297   6.221 -1.1426 -0.2113 -1.3687
12619TIP3   OH259347   6.664   4.682   2.425  0.0631 -0.1995  0.3913
12619TIP3    H159348   6.594   4.624   2.456 -0.7562  1.0451  0.8824
12619TIP3    H259349   6.696   4.725   2.504  0.6161  0.0968  0.0082
12620TIP3   OH259350   3.220   4.469   6.224  0.3831 -0.7182 -0.1516
12620TIP3    H159351   3.173   4.404   6.277  0.7372  0.1976  1.3033
12620TIP3    H259352   3.254   4.419   6.150 -0.6360 -1.9035  0.1704
12621TIP3   OH259353   1.192   4.303   4.955  0.4100  0.1121 -0.7532
12621TIP3    H159354   1.130   4.324   5.024 -0.5875  1.5477 -2.0471
12621TIP3    H259355   1.258   4.373   4.959  1.0425 -0.4950 -0.4464
12622TIP3   OH259356   0.186   6.367  13.575  0.1291 -1.0648  0.3355
12622TIP3    H159357   0.112   6.339  13.522  0.2976 -2.0577  0.6232
12622TIP3    H259358   0.151   6.373  13.664 -0.4499  1.7187 -0.0328
12623TIP3   OH259359   2.024   2.947  13.184 -0.0842 -0.0266  0.2510
12623TIP3    H159360   2.060   2.954  13.095 -1.8305 -0.9995 -0.5752
12623TIP3    H259361   2.067   2.871  13.221 -0.9609 -0.9605 -0.5947
12624TIP3   OH259362   2.633   0.145   4.551 -0.3903 -0.0417 -0.1692
12624TIP3    H159363   2.699   0.120   4.616  2.3418  3.0838 -1.6171
12624TIP3    H259364   2.659   0.099   4.471 -0.4524  0.5784 -0.5467
12625TIP3   OH259365   0.146   3.558  16.688  0.1648  0.1335 -0.2868
12625TIP3    H159366   0.089   3.522  16.620 -0.6344  0.6183  0.1146
12625TIP3    H259367   0.152   3.489  16.754  0.7877 -0.2662 -0.7681
12626TIP3   OH259368   2.009   6.144   4.650  0.2644 -0.4676 -0.2691
12626TIP3    H159369   2.035   6.235   4.663 -1.7710 -0.0735  1.2925
12626TIP3    H259370   1.967   6.143   4.564 -0.1756  0.2067 -0.0681
12627TIP3   OH259371   1.748   3.456  12.841 -0.3390 -0.0741  0.5700
12627TIP3    H159372   1.728   3.534  12.893  2.3885 -0.1968  1.9071
12627TIP3    H259373   1.792   3.490  12.763  0.0345 -0.2141  0.7202
12628TIP3   OH259374   3.926   4.533  10.902 -0.5019  0.2671 -0.0177
12628TIP3    H159375   4.020   4.525  10.883 -0.5095  1.3981 -0.6080
12628TIP3    H259376   3.885   4.468  10.846 -0.1864  0.8248 -0.9166
12629TIP3   OH259377   0.291   4.808   5.866 -0.2600 -0.6783  0.1650
12629TIP3    H159378   0.228   4.751   5.910 -0.7427 -0.7910 -0.6490
12629TIP3    H259379   0.361   4.749   5.836 -0.6711 -0.8286 -0.5203
12630TIP3   OH259380   2.847   6.014  13.092 -0.1073 -0.3525  0.5496
12630TIP3    H159381   2.847   5.961  13.012 -0.5315  0.0680  0.2721
12630TIP3    H259382   2.880   5.954  13.160 -0.4405 -0.9259  0.2105
12631TIP3   OH259383   4.918   2.059  14.337 -0.8606 -0.0214 -0.9818
12631TIP3    H159384   4.971   1.993  14.293 -0.2450 -0.5928  0.5882
12631TIP3    H259385   4.882   2.013  14.414  2.1365  2.2867  1.9164
12632TIP3   OH259386   2.999   3.503   3.206 -0.7330 -0.8046 -0.5193
12632TIP3    H159387   2.987   3.556   3.284 -1.5776 -0.6859 -0.7263
12632TIP3    H259388   2.943   3.426   3.220  1.8860 -2.5974  0.6165
12633TIP3   OH259389   5.592   4.192  15.947  0.4527 -0.3070 -0.1118
12633TIP3    H159390   5.515   4.185  15.890  0.8083  1.2805 -0.8311
12633TIP3    H259391   5.666   4.181  15.887  0.7959 -2.4555  0.6788
12634TIP3   OH259392   5.367   4.766  11.197  0.2781 -0.3327  0.2560
12634TIP3    H159393   5.462   4.754  11.199  0.0179 -2.9785 -1.7902
12634TIP3    H259394   5.351   4.820  11.120  0.0816 -0.2392  0.3611
12635TIP3   OH259395   0.543   0.430   0.696  0.2726 -0.4087  0.5185
12635TIP3    H159396   0.510   0.351   0.654  1.5186 -0.0280 -1.2096
12635TIP3    H259397   0.630   0.406   0.728  0.1228 -0.1239  1.1506
12636TIP3   OH259398   2.451   1.918   5.817  0.0003 -0.3349 -0.0026
12636TIP3    H159399   2.360   1.894   5.831 -0.1907  0.7164  0.6247
12636TIP3    H259400   2.460   1.927   5.722 -0.7717  0.4151 -0.0091
12637TIP3   OH259401   0.368   4.469   6.057  0.0826 -0.4863 -0.1047
12637TIP3    H159402   0.293   4.411   6.074 -0.5785  0.1437 -0.8758
12637TIP3    H259403   0.378   4.468   5.962  0.1788  0.5378 -0.1072
12638TIP3   OH259404   5.934   6.421   0.763  0.3873  0.0668 -0.0496
12638TIP3    H159405   5.909   6.336   0.798 -2.5307  1.5367  1.5532
12638TIP3    H259406   5.941   6.478   0.840 -0.8928  2.0465 -1.3467
12639TIP3   OH259407   5.151   0.115   2.497 -0.0873 -0.0233  0.0776
12639TIP3    H159408   5.114   0.157   2.419 -0.6508  0.2657  0.4961
12639TIP3    H259409   5.226   0.169   2.520 -0.4055  0.3601  0.2139
12640TIP3   OH259410   6.780   5.412   3.670  0.3174  0.0655 -0.5922
12640TIP3    H159411   6.761   5.391   3.761 -1.9338  0.5418 -0.9118
12640TIP3    H259412   6.831   5.338   3.638 -0.1605 -0.8183  0.6593
12641TIP3   OH259413   5.464   2.656  15.470 -0.2862 -0.4036  0.3451
12641TIP3    H159414   5.478   2.586  15.534  1.4696 -0.9908 -0.6556
12641TIP3    H259415   5.396   2.622  15.412  0.4066 -1.1775 -0.0110
12642TIP3   OH259416   4.043   1.236  16.169 -0.4581 -0.8813  0.0114
12642TIP3    H159417   3.957   1.259  16.204 -0.1497  0.7553 -0.2505
12642TIP3    H259418   4.097   1.220  16.247 -1.1551 -2.5421  0.1675
12643TIP3   OH259419   5.419   6.080  13.322 -0.2295  0.3664  0.0577
12643TIP3    H159420   5.452   6.022  13.253  1.7590  1.4679  0.0300
12643TIP3    H259421   5.469   6.053  13.400 -1.2785  0.2200  0.6818
12644TIP3   OH259422   1.045   0.974  14.403 -0.8382 -0.2585  0.0675
12644TIP3    H159423   0.957   0.956  14.371 -0.3947 -2.5725  0.1215
12644TIP3    H259424   1.088   1.018  14.330 -1.7343  0.0931 -0.2655
12645TIP3   OH259425   3.781   0.801  14.110 -0.0853 -0.3397 -0.1515
12645TIP3    H159426   3.780   0.713  14.149  0.3528 -0.5470 -0.6065
12645TIP3    H259427   3.817   0.788  14.023 -2.7379 -0.1609 -1.3284
12646TIP3   OH259428   4.384   1.902  11.937 -0.5045  0.1949 -0.6111
12646TIP3    H159429   4.378   1.996  11.919  0.3196 -0.2377 -3.3787
12646TIP3    H259430   4.300   1.867  11.906 -1.3413  0.1426  1.5945
12647TIP3   OH259431   3.843   6.228  16.401  0.7463  0.1046  0.1674
12647TIP3    H159432   3.815   6.179  16.477 -0.9986  0.6021 -0.1417
12647TIP3    H259433   3.816   6.175  16.326  1.6179  0.0593 -0.1180
12648TIP3   OH259434   0.534   2.076  15.051 -0.5400  0.2179 -0.3673
12648TIP3    H159435   0.496   2.093  15.138  0.2279  4.4809 -0.7473
12648TIP3    H259436   0.459   2.060  14.995 -1.2778  1.0036  0.3857
12649TIP3   OH259437   4.852   1.784   0.110 -0.0147 -0.3512  0.7265
12649TIP3    H159438   4.926   1.738   0.149  0.5062 -0.6198 -0.5439
12649TIP3    H259439   4.842   1.863   0.163  1.2401 -0.2643  0.8534
12650TIP3   OH259440   3.438   5.705  12.619 -0.1282 -0.2371  0.3911
12650TIP3    H159441   3.515   5.670  12.575  1.2199  0.2826  2.2340
12650TIP3    H259442   3.463   5.794  12.644 -1.5476  0.1472  0.4866
12651TIP3   OH259443   1.970   4.237   1.240 -0.2075  0.4952 -0.0146
12651TIP3    H159444   2.015   4.314   1.275  0.7336  0.5011 -1.2109
12651TIP3    H259445   1.879   4.264   1.229  0.1356  1.4645 -0.4876
12652TIP3   OH259446   3.783   1.898   4.877 -0.5101  0.0359 -0.1629
12652TIP3    H159447   3.778   1.803   4.875 -1.3392  0.0817 -0.5975
12652TIP3    H259448   3.793   1.920   4.969  1.6671 -0.5529 -0.2377
12653TIP3   OH259449   2.030   3.428   0.619  0.2624 -0.2556  0.1074
12653TIP3    H159450   2.103   3.472   0.663  0.3431 -0.5004  0.2166
12653TIP3    H259451   1.988   3.375   0.687  0.8259 -1.2013 -0.2738
12654TIP3   OH259452   3.848   0.361   5.693 -0.4115  0.6061 -0.4788
12654TIP3    H159453   3.827   0.280   5.739 -0.0341  1.0692  0.5320
12654TIP3    H259454   3.906   0.334   5.622 -1.8040 -0.2510 -1.3278
12655TIP3   OH259455   0.185   4.009  16.653 -0.7557 -0.7378  0.0963
12655TIP3    H159456   0.100   3.975  16.627 -0.4029 -0.6645 -1.1868
12655TIP3    H259457   0.176   4.104  16.647 -0.2910 -0.7574 -1.0038
12656TIP3   OH259458   4.433   3.651  16.172  0.3174 -0.2321  0.0665
12656TIP3    H159459   4.428   3.577  16.111 -0.3647 -0.9103  0.9159
12656TIP3    H259460   4.357   3.640  16.229 -0.3301  1.7017 -0.4163
12657TIP3   OH259461   0.358   3.649   2.029  0.1969 -0.0421  0.2381
12657TIP3    H159462   0.408   3.650   2.111 -0.2859  2.0689  0.5352
12657TIP3    H259463   0.385   3.728   1.983 -2.8082  1.1317  0.3858
12658TIP3   OH259464   6.681   4.875   0.967 -0.2443  0.2318 -0.6870
12658TIP3    H159465   6.757   4.817   0.965 -2.1472 -2.3022 -2.2911
12658TIP3    H259466   6.673   4.902   1.058  1.7260 -0.5998 -0.2426
12659TIP3   OH259467   3.947   1.433   0.749 -0.6129  0.0141  0.6817
12659TIP3    H159468   4.009   1.370   0.785  0.2134  0.8003  0.6581
12659TIP3    H259469   3.888   1.454   0.821  0.0635  0.3826  1.1354
12660TIP3   OH259470   2.153   1.837  12.402 -0.2419 -0.4360 -0.0617
12660TIP3    H159471   2.106   1.880  12.473 -0.9321 -0.5586 -0.4297
12660TIP3    H259472   2.236   1.810  12.440 -0.3788 -0.0096  0.5446
12661TIP3   OH259473   2.104   1.217   2.425 -0.3300  0.6276  0.9431
12661TIP3    H159474   2.039   1.239   2.359 -0.3704  0.8180  1.0476
12661TIP3    H259475   2.116   1.297   2.475 -1.1977  0.1410  1.9364
12662TIP3   OH259476   2.073   0.213   4.636  0.0849 -0.5239  0.3340
12662TIP3    H159477   2.080   0.266   4.556 -1.9653  0.8875  1.0424
12662TIP3    H259478   1.981   0.187   4.640  0.3019 -1.0958  1.9074
12663TIP3   OH259479   0.025   6.763  12.477 -0.0737 -0.2926  0.9544
12663TIP3    H159480  -0.014   6.850  12.488  1.3671  0.3813  0.8344
12663TIP3    H259481   0.113   6.781  12.443  0.1458 -1.8119  0.7092
12664TIP3   OH259482   1.725   6.493  12.574  0.5104  0.2342 -0.2295
12664TIP3    H159483   1.681   6.561  12.625  0.9695  0.5641 -0.2710
12664TIP3    H259484   1.782   6.449  12.636 -0.6788 -0.9063  0.0710
12665TIP3   OH259485   6.135   2.917   0.418 -0.3460  0.3125  0.5175
12665TIP3    H159486   6.184   2.984   0.466  1.4394  1.4415 -2.7368
12665TIP3    H259487   6.201   2.869   0.369 -1.9053 -2.1299  0.6960
12666TIP3   OH259488   2.552   4.402  15.608  0.0200  0.0732  0.4876
12666TIP3    H159489   2.622   4.339  15.590  0.9320  1.6686 -1.7049
12666TIP3    H259490   2.597   4.481  15.636 -0.9842  0.6781  0.4283
12667TIP3   OH259491   3.659   5.719  10.406 -0.2581  0.1856  0.7493
12667TIP3    H159492   3.708   5.794  10.370 -2.0867 -0.5829 -3.6654
12667TIP3    H259493   3.577   5.757  10.438 -0.5765  0.2872 -0.1708
12668TIP3   OH259494   2.085   0.944  12.904  0.5811  0.3471  0.8325
12668TIP3    H159495   2.139   0.973  12.830 -1.0888 -0.6436 -0.8202
12668TIP3    H259496   2.076   1.022  12.959  2.9516  0.7551  0.7154
12669TIP3   OH259497   0.975   1.740   1.737 -0.3640  0.2887  0.4244
12669TIP3    H159498   0.891   1.710   1.770  0.3054 -0.1593  1.7377
12669TIP3    H259499   1.038   1.713   1.803  1.0745 -1.1348 -1.4580
12670TIP3   OH259500   0.939   5.422  13.628  0.2718 -0.2487 -0.7365
12670TIP3    H159501   1.016   5.471  13.654  0.1196 -0.2206 -0.3282
12670TIP3    H259502   0.963   5.381  13.545  1.4456 -1.8853  0.3774
12671TIP3   OH259503   1.239   2.836  11.777  0.1836 -0.4349 -0.5096
12671TIP3    H159504   1.169   2.900  11.791  1.5395  1.4270 -2.0293
12671TIP3    H259505   1.234   2.815  11.684  1.2860 -0.7354 -0.5082
12672TIP3   OH259506   3.356   5.078  11.091  0.1567  0.7335 -0.0221
12672TIP3    H159507   3.400   5.055  11.009  2.8642  1.4117  1.1792
12672TIP3    H259508   3.272   5.032  11.087  0.3393  0.5752 -3.0529
12673TIP3   OH259509   1.118   0.876  15.036  0.4400 -0.2672 -0.0952
12673TIP3    H159510   1.090   0.968  15.040  1.7247  0.1158  0.0666
12673TIP3    H259511   1.207   0.879  15.001  1.8888 -1.1556  3.3274
12674TIP3   OH259512   6.443   0.898   1.521  0.0705  0.0055 -0.4100
12674TIP3    H159513   6.463   0.987   1.550 -1.0668  0.8356 -2.0714
12674TIP3    H259514   6.363   0.875   1.567 -0.2358  0.2766 -0.8000
12675TIP3   OH259515   0.137   4.279   6.035  0.5919  0.0433  0.2737
12675TIP3    H159516   0.116   4.195   6.076  1.4376  0.2656  1.1603
12675TIP3    H259517   0.200   4.257   5.967  0.8206 -0.0385  0.5127
12676TIP3   OH259518   0.148   5.817  13.097  0.1663  0.0430 -0.3074
12676TIP3    H159519   0.130   5.776  13.181 -0.1889  0.5493 -0.1316
12676TIP3    H259520   0.074   5.794  13.042  0.8800 -1.1212 -0.7988
12677TIP3   OH259521   3.107   3.822  14.046  0.0215  0.2705 -0.6765
12677TIP3    H159522   3.121   3.887  13.977 -1.4202 -0.1296 -1.3559
12677TIP3    H259523   3.013   3.828  14.066  0.0165 -1.1156 -0.2529
12678TIP3   OH259524   0.565   3.980   6.300  0.0157 -0.3584  0.3643
12678TIP3    H159525   0.585   3.925   6.224 -1.4229 -1.2496  0.6119
12678TIP3    H259526   0.635   3.962   6.362  0.2231 -0.9748 -0.0478
12679TIP3   OH259527   4.608   3.002  13.566 -1.0056  0.4048 -0.4286
12679TIP3    H159528   4.631   3.092  13.542 -0.9826  0.1572 -1.3702
12679TIP3    H259529   4.643   2.991  13.654 -3.4455  2.2343  0.8294
12680TIP3   OH259530   2.352   5.515   4.647  0.7355  0.8808 -0.2358
12680TIP3    H159531   2.264   5.553   4.648  0.8988  1.3014 -1.0675
12680TIP3    H259532   2.365   5.482   4.735 -0.1360  1.1084 -0.0173
12681TIP3   OH259533   2.449   2.163   2.507  0.1349  0.0459 -0.0093
12681TIP3    H159534   2.422   2.247   2.544 -1.4598 -0.3326 -0.2908
12681TIP3    H259535   2.393   2.098   2.550  1.9180 -0.9674  0.8130
12682TIP3   OH259536   3.653   0.248  14.530 -0.1311 -0.4439 -0.1651
12682TIP3    H159537   3.596   0.189  14.480  1.1505 -1.0571 -0.9187
12682TIP3    H259538   3.732   0.256  14.477  0.3625  0.6642  0.7184
12683TIP3   OH259539   5.835   2.116   6.217 -0.2975  0.9187 -0.1562
12683TIP3    H159540   5.851   2.209   6.227  1.1037  0.6116  0.6875
12683TIP3    H259541   5.877   2.076   6.294  1.8115 -0.6292 -2.0248
12684TIP3   OH259542   4.285   0.847   1.398  0.2676  0.0919  0.3953
12684TIP3    H159543   4.218   0.914   1.381 -0.5306 -0.9071 -0.4477
12684TIP3    H259544   4.271   0.782   1.330  1.0295 -0.9520  1.2298
12685TIP3   OH259545   6.793   4.574  15.081 -0.1052  0.1474 -0.1841
12685TIP3    H159546   6.850   4.503  15.052 -0.8457 -0.3325 -0.4855
12685TIP3    H259547   6.794   4.636  15.008  0.3282  0.3156 -0.0364
12686TIP3   OH259548   6.528   5.830   3.357 -0.7446  0.1162 -0.3474
12686TIP3    H159549   6.570   5.914   3.342 -0.0765 -0.2166 -0.3831
12686TIP3    H259550   6.485   5.809   3.274 -2.6142  1.3449  0.2639
12687TIP3   OH259551   4.107   1.147   4.837 -0.1092  0.1115 -0.7114
12687TIP3    H159552   4.044   1.077   4.819  0.6307 -0.5571 -0.7392
12687TIP3    H259553   4.100   1.163   4.931 -0.1188 -0.1555 -0.6682
12688TIP3   OH259554   3.741   5.969  15.090  0.7381 -0.4266 -0.0840
12688TIP3    H159555   3.758   5.957  14.996 -2.3544  1.2033 -0.9274
12688TIP3    H259556   3.731   5.881  15.124  0.7693 -1.0041 -1.5352
12689TIP3   OH259557   5.547   5.220  11.113 -0.4358  0.6181 -0.6041
12689TIP3    H159558   5.532   5.147  11.054 -2.0331  1.0987 -0.8250
12689TIP3    H259559   5.514   5.297  11.066 -0.7201  1.1599  0.4435
12690TIP3   OH259560   5.593   1.482   0.935  0.2980  0.3409 -0.2024
12690TIP3    H159561   5.619   1.570   0.961  0.2222 -0.1278  1.5267
12690TIP3    H259562   5.516   1.463   0.989  1.8725 -1.7588  1.3898
12691TIP3   OH259563   1.236   0.677   2.868  0.2149  0.3046  0.1095
12691TIP3    H159564   1.219   0.764   2.904  1.7660  0.0897  1.4481
12691TIP3    H259565   1.151   0.633   2.872 -0.3780  1.4359  0.3090
12692TIP3   OH259566   4.092   1.691  11.273  0.0146  0.1504  0.4383
12692TIP3    H159567   4.012   1.648  11.242 -0.4492 -1.6656  3.9084
12692TIP3    H259568   4.086   1.780  11.239 -1.7817 -0.9024 -2.2110
12693TIP3   OH259569   6.750   6.140   0.713 -0.2523 -0.1729 -0.1204
12693TIP3    H159570   6.789   6.130   0.626  0.3049  0.2860  0.0698
12693TIP3    H259571   6.684   6.071   0.718 -0.0092 -0.4555 -0.7555
12694TIP3   OH259572   5.769   2.204  15.385 -0.0163 -0.6883  0.3166
12694TIP3    H159573   5.852   2.207  15.434 -0.2556  1.0709  0.6409
12694TIP3    H259574   5.715   2.141  15.434  0.8097 -1.1837  0.6037
12695TIP3   OH259575   5.807   1.446  13.972  0.7446 -0.1271  0.0609
12695TIP3    H159576   5.796   1.352  13.982 -1.0705 -0.0876 -1.2361
12695TIP3    H259577   5.880   1.455  13.911 -0.0169 -0.7494 -0.9671
12696TIP3   OH259578   4.545   5.911   1.143  0.3411 -0.3142  0.2015
12696TIP3    H159579   4.498   5.917   1.060  0.6504  1.9441  0.1456
12696TIP3    H259580   4.633   5.882   1.119  0.3250 -0.0165 -0.2322
12697TIP3   OH259581   0.342   1.479   4.471 -0.0111 -0.5773 -0.5008
12697TIP3    H159582   0.274   1.433   4.519 -0.2072  0.1518 -0.0806
12697TIP3    H259583   0.381   1.539   4.535  2.9703 -2.9855  0.1055
12698TIP3   OH259584   0.755   4.345   0.223 -0.4232 -0.3164 -0.4110
12698TIP3    H159585   0.819   4.415   0.236 -0.8290  0.0917 -0.6139
12698TIP3    H259586   0.800   4.266   0.253  0.8134 -0.3166 -2.1534
12699TIP3   OH259587   0.268   2.541  16.993 -0.5849  0.1587  0.5069
12699TIP3    H159588   0.277   2.516  17.085  1.9260 -2.0240 -0.2662
12699TIP3    H259589   0.268   2.636  16.994  0.9868  0.1712  2.6275
12700TIP3   OH259590   5.836   2.773   1.752 -0.3714  0.2001  0.1711
12700TIP3    H159591   5.903   2.704   1.760 -1.1686 -0.6177 -0.1508
12700TIP3    H259592   5.764   2.731   1.704 -1.4910  0.8204  1.3024
12701TIP3   OH259593   4.132   4.858   5.820  0.6868  0.3129  0.4392
12701TIP3    H159594   4.074   4.830   5.891 -1.3555  0.3293 -1.1869
12701TIP3    H259595   4.132   4.954   5.826  2.0009  0.2693  1.5359
12702TIP3   OH259596   5.069   2.632   5.921  0.5703 -0.3541 -0.4511
12702TIP3    H159597   5.051   2.697   5.990 -0.6901 -0.5769 -0.5511
12702TIP3    H259598   5.068   2.683   5.840 -0.9323 -0.5685 -0.5782
12703TIP3   OH259599   4.343   0.244  14.633  0.1917  0.5923 -0.2174
12703TIP3    H159600   4.397   0.300  14.576  0.7816  0.9764  0.7113
12703TIP3    H259601   4.325   0.167  14.579  1.0531  0.7895 -0.8043
12704TIP3   OH259602   3.418   2.165  14.490 -0.1499  0.1130 -0.0558
12704TIP3    H159603   3.440   2.255  14.510  0.6206 -0.1705  0.3871
12704TIP3    H259604   3.408   2.123  14.575  1.1944 -0.6286 -0.2471
12705TIP3   OH259605   3.721   0.150  12.850  0.2599 -0.0658  0.3283
12705TIP3    H159606   3.683   0.077  12.898 -2.9571  1.1397 -0.2823
12705TIP3    H259607   3.719   0.223  12.911  0.6796  0.2672 -0.0484
12706TIP3   OH259608   5.222   0.240   1.673  0.0793 -0.7785 -0.2866
12706TIP3    H159609   5.260   0.157   1.646 -0.9814 -0.7755 -1.8823
12706TIP3    H259610   5.250   0.302   1.606  1.5036  0.3565  1.2975
12707TIP3   OH259611   1.094   3.667   4.054  0.1539  1.1503  0.3776
12707TIP3    H159612   1.110   3.636   4.143 -0.1729 -0.9469 -0.2429
12707TIP3    H259613   0.999   3.662   4.043  0.4051 -1.5061 -1.0246
12708TIP3   OH259614   3.702   5.767   6.045  0.8602 -0.0329 -0.2275
12708TIP3    H159615   3.647   5.810   5.979  0.8619 -0.9420 -0.8253
12708TIP3    H259616   3.691   5.674   6.029  1.2149 -0.2567  0.7792
12709TIP3   OH259617   2.182   0.262   0.056 -0.4281 -0.2602  0.5150
12709TIP3    H159618   2.222   0.194   0.109 -2.3604 -0.9585  1.1171
12709TIP3    H259619   2.254   0.297   0.003  0.7526 -2.1528  0.8265
12710TIP3   OH259620   1.483   6.299  17.166 -0.1126 -0.0218  0.2516
12710TIP3    H159621   1.529   6.324  17.246 -0.6715  2.1898 -0.1065
12710TIP3    H259622   1.542   6.324  17.095 -0.0880 -0.9828 -0.0778
12711TIP3   OH259623   1.503   6.519   4.374  0.4623  0.0792 -0.0239
12711TIP3    H159624   1.550   6.603   4.375  1.1951 -0.3274  2.4095
12711TIP3    H259625   1.411   6.543   4.371  0.6874  0.9762  0.0518
12712TIP3   OH259626   4.603   3.766  10.765 -0.3217 -0.2361 -0.1048
12712TIP3    H159627   4.520   3.726  10.788 -0.7144 -1.4432 -3.3318
12712TIP3    H259628   4.594   3.790  10.673  3.2278 -1.3528 -0.8409
12713TIP3   OH259629   1.931   2.063   5.732 -1.3075  0.8302 -0.0096
12713TIP3    H159630   1.973   2.142   5.766 -1.0080  0.2748  0.9032
12713TIP3    H259631   1.888   2.023   5.808 -0.2349 -0.6591 -0.1729
12714TIP3   OH259632   2.788   1.040   3.026 -0.0949  0.6456  0.1190
12714TIP3    H159633   2.821   1.066   2.940 -0.2534  0.7956  0.1049
12714TIP3    H259634   2.693   1.036   3.015  0.0292 -1.9983 -0.4791
12715TIP3   OH259635   3.366   3.746   2.291  0.3056  0.8224  0.3347
12715TIP3    H159636   3.298   3.679   2.290  0.1800  0.9460 -1.2205
12715TIP3    H259637   3.361   3.785   2.378  0.6337 -1.4266  1.4012
12716TIP3   OH259638   5.562   2.524  12.853  0.0732  0.3531  0.4865
12716TIP3    H159639   5.500   2.559  12.789 -0.0514  0.1506  0.4935
12716TIP3    H259640   5.587   2.438  12.818  1.0131  0.7936  0.0406
12717TIP3   OH259641   2.864   1.467  13.808 -0.0800  0.6809 -0.0129
12717TIP3    H159642   2.935   1.452  13.746 -0.6521  0.2465 -0.5770
12717TIP3    H259643   2.889   1.418  13.886 -0.4664 -0.7022 -0.7410
12718TIP3   OH259644   5.663   6.056   0.689  0.0676  0.3188  0.5361
12718TIP3    H159645   5.623   6.114   0.754 -0.1825  0.4738  0.2460
12718TIP3    H259646   5.642   6.096   0.605  1.1954  0.6229  0.3992
12719TIP3   OH259647   1.599   3.040  13.926  0.0483  0.1456  0.2751
12719TIP3    H159648   1.509   3.055  13.956  0.1888  1.9665 -0.1250
12719TIP3    H259649   1.653   3.061  14.002  0.2581  1.8618 -0.3269
12720TIP3   OH259650   1.747   4.257  14.548 -0.5947 -0.5057 -0.4990
12720TIP3    H159651   1.777   4.254  14.639 -1.4434  0.2777 -0.1939
12720TIP3    H259652   1.653   4.271  14.554 -0.6308 -0.2851 -1.5081
12721TIP3   OH259653   0.309   2.276   4.666 -0.5791  0.5167 -0.1444
12721TIP3    H159654   0.370   2.217   4.620 -1.2795 -0.9584  0.7571
12721TIP3    H259655   0.303   2.239   4.754 -3.8662 -0.2010 -0.6193
12722TIP3   OH259656   5.532   5.540   3.691 -0.4399 -0.0387  0.4126
12722TIP3    H159657   5.552   5.615   3.746 -2.0340 -0.3535  1.4532
12722TIP3    H259658   5.501   5.473   3.752 -3.1961 -0.0496 -0.9596
12723TIP3   OH259659   3.893   6.053  17.123 -0.3190  0.2761  0.3644
12723TIP3    H159660   3.805   6.018  17.132 -0.4948  0.8057  0.7145
12723TIP3    H259661   3.949   5.975  17.120 -0.6203 -0.0192  2.0551
12724TIP3   OH259662   5.410   4.921  12.335  0.7568  0.4862 -0.2549
12724TIP3    H159663   5.352   4.846  12.325 -1.2334  2.2738 -3.1393
12724TIP3    H259664   5.384   4.960  12.419 -0.8987  0.1595 -0.5972
12725TIP3   OH259665   2.735   5.891  14.038 -0.2308  0.6140 -0.1034
12725TIP3    H159666   2.671   5.853  13.977  0.4161  1.4011 -1.2839
12725TIP3    H259667   2.803   5.927  13.982  0.4124  1.2909  1.0996
12726TIP3   OH259668   6.750   1.819   4.703 -0.4017  0.0211  0.5030
12726TIP3    H159669   6.732   1.830   4.610 -1.5154  2.8057  1.0016
12726TIP3    H259670   6.686   1.754   4.732  1.1084 -2.2191 -0.9657
12727TIP3   OH259671   6.096   0.949  15.076  0.4246  0.6711  0.1648
12727TIP3    H159672   6.144   0.995  15.008 -0.0062  0.2419 -0.4372
12727TIP3    H259673   6.049   0.880  15.029 -0.5081  0.8746  0.7850
12728TIP3   OH259674   5.309   0.549  11.137  0.5031 -0.7006  0.1294
12728TIP3    H159675   5.385   0.602  11.163  0.1030 -0.9479  1.8345
12728TIP3    H259676   5.294   0.491  11.211 -0.8560 -1.2230 -0.5517
12729TIP3   OH259677   4.656   6.506  12.862  0.1367  0.0330  0.6447
12729TIP3    H159678   4.656   6.461  12.777  0.8469  1.5254 -0.1707
12729TIP3    H259679   4.696   6.591  12.844 -0.6890  0.7938  2.2638
12730TIP3   OH259680   3.662   2.472   5.421 -0.0091 -0.0605  0.3852
12730TIP3    H159681   3.587   2.433   5.466 -0.0674  0.3440  0.6435
12730TIP3    H259682   3.625   2.543   5.368  0.1619  0.0047  0.3514
12731TIP3   OH259683   0.870   0.894  16.679  0.1006 -0.1284  0.1843
12731TIP3    H159684   0.807   0.877  16.749 -0.0967  0.2879  0.1050
12731TIP3    H259685   0.888   0.987  16.684 -1.1099  0.1975 -1.3148
12732TIP3   OH259686   0.961   0.223  12.617 -0.1591  0.5526 -0.5714
12732TIP3    H159687   0.967   0.278  12.695 -0.3038  0.4216 -0.4663
12732TIP3    H259688   0.899   0.154  12.642  1.6825 -0.9066  0.0274
12733TIP3   OH259689   3.761   0.745   2.636  0.5156 -0.3607  0.0105
12733TIP3    H159690   3.722   0.730   2.550  1.4950 -0.7946 -0.3658
12733TIP3    H259691   3.720   0.680   2.693  0.6760 -0.8006 -0.3764
12734TIP3   OH259692   2.831   3.382   5.211  0.0556  0.2102 -0.3409
12734TIP3    H159693   2.889   3.413   5.141  0.5852  0.7058  0.3081
12734TIP3    H259694   2.763   3.332   5.165 -0.3056  1.5715 -1.3401
12735TIP3   OH259695   3.637   4.229  16.735 -0.4022 -0.3649 -0.1216
12735TIP3    H159696   3.605   4.300  16.791 -0.6952 -1.6486  1.4059
12735TIP3    H259697   3.557   4.186  16.704 -0.2488  0.5182 -1.8129
12736TIP3   OH259698   4.372   0.535   2.877  0.2921 -0.2991  0.5329
12736TIP3    H159699   4.305   0.589   2.835 -0.2712 -0.0083  1.7899
12736TIP3    H259700   4.435   0.597   2.914  1.4088 -0.5724 -0.8459
12737TIP3   OH259701   2.277   3.586   5.165  0.1963 -0.4417  0.0019
12737TIP3    H159702   2.189   3.552   5.149 -0.3387 -0.3246  2.3843
12737TIP3    H259703   2.299   3.555   5.253  1.4799  1.6329  0.4664
12738TIP3   OH259704   6.518   1.619   4.103  0.1073  0.5130  0.6413
12738TIP3    H159705   6.564   1.639   4.021  0.9905 -1.8624  0.5355
12738TIP3    H259706   6.588   1.595   4.164 -0.5327  2.3845  2.1525
12739TIP3   OH259707   2.786   2.512   0.512 -0.0705 -0.3012  0.1069
12739TIP3    H159708   2.708   2.473   0.471 -0.4230  1.1208 -0.6156
12739TIP3    H259709   2.762   2.604   0.526  1.5247  0.1860 -0.2600
12740TIP3   OH259710   0.365   4.497  15.826 -0.3928 -0.0270  0.0552
12740TIP3    H159711   0.399   4.513  15.914  0.0460 -1.2136  0.1160
12740TIP3    H259712   0.271   4.486  15.839 -0.3885  0.2238  0.3161
12741TIP3   OH259713   1.734   2.639   1.219  0.1493 -0.0795 -0.2911
12741TIP3    H159714   1.725   2.645   1.124  0.5139 -1.9274 -0.4720
12741TIP3    H259715   1.817   2.594   1.233 -0.0716 -0.1443  0.8853
12742TIP3   OH259716   2.365   1.606  15.637  0.0695 -0.1494 -0.5721
12742TIP3    H159717   2.316   1.569  15.710  0.0202  1.8956  0.4506
12742TIP3    H259718   2.456   1.609  15.668 -0.2063  2.3053  0.0762
12743TIP3   OH259719   1.817   3.144   5.960 -0.3017  0.0385  0.5781
12743TIP3    H159720   1.807   3.060   6.006 -0.7018  0.0870  0.5822
12743TIP3    H259721   1.777   3.208   6.019 -3.0729 -0.2407 -0.9427
12744TIP3   OH259722   3.836   1.429  14.095 -0.1804  0.5332  1.0027
12744TIP3    H159723   3.894   1.388  14.030 -1.5654  1.0104 -0.5616
12744TIP3    H259724   3.761   1.370  14.102 -0.6025  1.0893  1.2733
12745TIP3   OH259725   5.908   0.404  12.958 -0.2479 -0.2804 -0.0731
12745TIP3    H159726   5.881   0.312  12.948  0.6541 -0.7521  1.5636
12745TIP3    H259727   5.930   0.412  13.051  1.5135  1.1002 -0.5945
12746TIP3   OH259728   4.674   4.119   0.792  0.3679 -0.1993 -0.1909
12746TIP3    H159729   4.646   4.049   0.734  0.7046 -1.1598  0.7875
12746TIP3    H259730   4.593   4.160   0.821  0.1726 -0.1489 -0.7990
12747TIP3   OH259731   0.429   2.429   0.341 -0.1666  0.2537  0.2947
12747TIP3    H159732   0.491   2.470   0.401 -0.5887  0.3997  0.6334
12747TIP3    H259733   0.470   2.437   0.255  1.1403 -1.3118  0.7490
12748TIP3   OH259734   4.927   3.571   1.307  0.1287  0.3193 -0.0978
12748TIP3    H159735   4.897   3.538   1.222 -0.0852  0.4108 -0.0576
12748TIP3    H259736   4.940   3.664   1.293 -1.1457  0.5636  0.3197
12749TIP3   OH259737   4.797   0.158   5.998  0.3269 -0.4835 -0.3110
12749TIP3    H159738   4.782   0.235   6.052 -1.0354 -1.9309  1.4751
12749TIP3    H259739   4.891   0.140   6.005  0.4155  0.2437  0.3216
12750TIP3   OH259740   0.935   2.892  14.767  0.5914 -0.1197 -0.1650
12750TIP3    H159741   0.889   2.810  14.782  0.4754  0.3416  2.2257
12750TIP3    H259742   0.916   2.945  14.845  3.6181  0.7966  0.0165
12751TIP3   OH259743   5.853   2.276  14.765  0.5726 -0.4610 -0.4262
12751TIP3    H159744   5.771   2.228  14.768  0.7988 -0.8985 -1.0845
12751TIP3    H259745   5.889   2.268  14.853 -1.0302  1.4118  0.4250
12752TIP3   OH259746   0.218   1.151  15.564  0.3285  0.0639 -0.4206
12752TIP3    H159747   0.157   1.103  15.619 -0.2001  0.0317 -1.0343
12752TIP3    H259748   0.224   1.100  15.483  3.0089 -1.2415  0.5168
12753TIP3   OH259749   0.139   1.521  16.574  0.2755 -0.3955  0.0299
12753TIP3    H159750   0.193   1.600  16.579  0.9730 -0.9227  1.0510
12753TIP3    H259751   0.067   1.537  16.635  0.0284 -0.2585 -0.2965
12754TIP3   OH259752   4.575   4.321   6.060  0.0425  0.2055 -0.0058
12754TIP3    H159753   4.605   4.311   6.150  0.2532 -0.3355 -0.1353
12754TIP3    H259754   4.617   4.250   6.012 -1.6094 -0.6901 -0.1585
12755TIP3   OH259755   3.595   0.859   0.060 -0.4856 -1.5323 -0.4008
12755TIP3    H159756   3.602   0.941   0.109 -1.9915 -0.0593 -2.5252
12755TIP3    H259757   3.654   0.799   0.105 -0.4702  0.2547  2.1190
12756TIP3   OH259758   4.419   3.495  15.678 -0.3979  0.0574 -0.0294
12756TIP3    H159759   4.331   3.457  15.674  0.1174 -1.0644 -1.0841
12756TIP3    H259760   4.475   3.429  15.638  0.8268  1.0891 -0.0433
12757TIP3   OH259761   3.384   4.292   3.166  0.2820  0.5112  0.2309
12757TIP3    H159762   3.430   4.364   3.210  0.2070  0.2454  0.7493
12757TIP3    H259763   3.291   4.318   3.169  0.4387  1.3142 -1.3094
12758TIP3   OH259764   3.932   1.507  12.723 -0.2187  0.7256  0.6723
12758TIP3    H159765   3.979   1.583  12.690  0.8304 -0.2648 -0.1646
12758TIP3    H259766   3.840   1.530  12.715  0.0788  1.4842 -0.5945
12759TIP3   OH259767   1.646   3.223   2.722  0.0283  0.6321  0.1242
12759TIP3    H159768   1.561   3.265   2.733 -0.3443  0.6170 -2.3311
12759TIP3    H259769   1.650   3.201   2.629  1.7212 -1.5287  0.6622
12760TIP3   OH259770   6.107   6.293  15.035 -0.2204 -0.1126  0.3064
12760TIP3    H159771   6.105   6.381  14.999 -1.2021 -0.3039 -0.1497
12760TIP3    H259772   6.023   6.284  15.080  0.5822 -0.2278  1.8144
12761TIP3   OH259773   2.881   0.156  16.095 -0.1822  0.3295 -0.1071
12761TIP3    H159774   2.869   0.123  16.005 -1.1822  1.9555 -0.5850
12761TIP3    H259775   2.806   0.121  16.143 -0.8876  1.3241 -0.4608
12762TIP3   OH259776   4.088   5.896   3.676  0.0663 -0.7250 -0.0233
12762TIP3    H159777   4.161   5.942   3.718 -2.2728  3.8205 -0.6055
12762TIP3    H259778   4.029   5.873   3.748  0.9390 -2.3650  0.1977
12763TIP3   OH259779   6.263   0.839  16.138 -1.1503 -0.1149  0.3987
12763TIP3    H159780   6.218   0.899  16.079 -0.6079  0.1178  0.2240
12763TIP3    H259781   6.199   0.820  16.207 -2.1002 -1.0832 -0.7236
12764TIP3   OH259782   5.266   2.195   5.518  0.2600  0.5327 -0.7379
12764TIP3    H159783   5.359   2.195   5.542  0.3565  1.5902 -1.0927
12764TIP3    H259784   5.260   2.258   5.446 -0.6298  0.0020 -1.1370
12765TIP3   OH259785   1.234   5.647   0.223  0.3204  0.7343 -0.0997
12765TIP3    H159786   1.155   5.701   0.229  0.7256  1.4034 -0.6863
12765TIP3    H259787   1.237   5.600   0.306 -1.5845 -0.5163 -0.7068
12766TIP3   OH259788   1.192   0.846  16.739  0.4552 -0.4411 -0.1173
12766TIP3    H159789   1.098   0.829  16.746  0.6978 -1.3993  1.0981
12766TIP3    H259790   1.217   0.873  16.828  1.2321  0.3454 -0.5684
12767TIP3   OH259791   0.157   1.476  13.165 -0.0149  0.5907 -0.4175
12767TIP3    H159792   0.216   1.401  13.155 -0.4653  0.3617 -1.3884
12767TIP3    H259793   0.091   1.447  13.228 -0.9618 -0.3228 -1.8001
12768TIP3   OH259794   5.288   6.517  14.475 -0.7053 -0.1508 -0.6979
12768TIP3    H159795   5.276   6.538  14.568  1.5265  0.4854 -0.5251
12768TIP3    H259796   5.244   6.589  14.428  0.2525  0.8405 -0.1088
12769TIP3   OH259797   0.310   0.164  16.774  0.1188 -0.1687 -0.6420
12769TIP3    H159798   0.255   0.120  16.839  0.3242 -1.6939 -1.4796
12769TIP3    H259799   0.304   0.257  16.797 -0.4450 -0.6030  1.0661
12770TIP3   OH259800   0.870   3.252  10.630 -0.6827 -0.2031 -0.4802
12770TIP3    H159801   0.830   3.339  10.626 -1.0246 -0.3874 -1.0246
12770TIP3    H259802   0.964   3.269  10.633 -0.8195  0.3216  2.9482
12771TIP3   OH259803   3.905   1.935  13.099  0.6750 -0.3321  0.1930
12771TIP3    H159804   3.982   1.966  13.052 -0.1403 -0.1901 -1.0778
12771TIP3    H259805   3.866   1.870  13.042  0.0320 -0.6493  0.9751
12772TIP3   OH259806   6.744   0.728  16.462  0.8654 -0.0564 -0.0610
12772TIP3    H159807   6.735   0.654  16.402 -0.1645 -0.3135  0.3943
12772TIP3    H259808   6.686   0.795  16.427  1.6560  0.4731 -0.3661
12773TIP3   OH259809   1.505   6.820   1.521  0.0935  0.1568 -0.4174
12773TIP3    H159810   1.412   6.814   1.499 -0.4037  0.2764  1.5883
12773TIP3    H259811   1.522   6.914   1.527  0.6420  0.1702 -1.9263
12774TIP3   OH259812   1.081   4.547   4.264  0.8104 -0.1177  0.0037
12774TIP3    H159813   1.167   4.540   4.306  0.3920  0.5580  0.9645
12774TIP3    H259814   1.093   4.502   4.180  2.4190  0.8970 -0.3531
12775TIP3   OH259815   0.445   4.670   3.814 -0.1959 -0.3219  0.1371
12775TIP3    H159816   0.356   4.637   3.827 -0.3090 -0.0072  0.1512
12775TIP3    H259817   0.499   4.591   3.811 -0.5378 -0.5429 -0.3862
12776TIP3   OH259818   2.778   1.433   1.269 -0.1927  0.3760 -0.1508
12776TIP3    H159819   2.710   1.454   1.204 -0.3118 -0.6325 -0.3509
12776TIP3    H259820   2.801   1.518   1.307  0.3566  1.0642 -1.9733
12777TIP3   OH259821   5.381   2.840  15.167 -0.2669 -0.4163 -0.2722
12777TIP3    H159822   5.474   2.852  15.146 -0.0850  0.4303  0.9399
12777TIP3    H259823   5.376   2.750  15.200 -0.1037 -0.8824 -1.5110
12778TIP3   OH259824   4.131   1.257   5.125 -0.2533 -0.1720  0.0655
12778TIP3    H159825   4.140   1.175   5.175  0.4148 -0.8707 -1.1679
12778TIP3    H259826   4.217   1.298   5.131  0.0552 -0.6218 -1.1038
12779TIP3   OH259827   1.048   0.479   0.047  0.4487  0.5344  0.0555
12779TIP3    H159828   0.982   0.457  -0.019 -0.2002  0.2732  0.7846
12779TIP3    H259829   1.095   0.397   0.063 -1.5060 -0.2141  2.2496
12780TIP3   OH259830   5.875   3.110   5.770 -0.6279  0.0854 -0.4400
12780TIP3    H159831   5.869   3.148   5.682  1.0890  2.3574  0.3828
12780TIP3    H259832   5.873   3.185   5.829 -1.7126 -1.4127  1.4865
12781TIP3   OH259833   3.388   6.784   1.410 -0.2941 -0.7138  0.2721
12781TIP3    H159834   3.348   6.869   1.395  2.1773  0.2832 -0.9334
12781TIP3    H259835   3.355   6.757   1.496 -2.3650  0.6878 -0.0536
12782TIP3   OH259836   6.338   1.685  17.035 -0.0444  0.0462 -0.0838
12782TIP3    H159837   6.378   1.756  16.984 -0.0814  1.3261  1.6224
12782TIP3    H259838   6.337   1.610  16.975  0.8733  1.2170 -1.6033
12783TIP3   OH259839   1.636   3.415   4.624 -0.2066 -0.7231 -0.2553
12783TIP3    H159840   1.668   3.354   4.692  0.5214 -1.3450 -1.1435
12783TIP3    H259841   1.639   3.501   4.666  1.2212 -0.9655  0.1875
12784TIP3   OH259842   6.226   2.912  13.308  0.4432  0.3750  0.3832
12784TIP3    H159843   6.218   3.006  13.319  2.6760  0.5213  0.8083
12784TIP3    H259844   6.183   2.894  13.224  1.2163  1.9642 -0.3615
12785TIP3   OH259845   0.197   4.456  10.767  0.2347 -0.3587 -0.3726
12785TIP3    H159846   0.215   4.364  10.784  0.8570 -0.6223 -2.3592
12785TIP3    H259847   0.102   4.465  10.777  0.4124 -0.6908  2.0982
12786TIP3   OH259848   4.978   6.000   5.296 -0.1441  0.2850 -0.0724
12786TIP3    H159849   4.925   5.922   5.308 -0.8894  1.0678  1.9119
12786TIP3    H259850   5.053   5.988   5.353  0.8177  0.0744 -1.3712
12787TIP3   OH259851   2.866   3.798  13.674  0.1962  0.8269 -0.2752
12787TIP3    H159852   2.867   3.893  13.664 -0.3414  0.8504 -0.1075
12787TIP3    H259853   2.777   3.778  13.703 -0.6338 -0.0201 -3.1879
12788TIP3   OH259854   5.276   1.392  15.280  0.1256 -0.8009 -0.1832
12788TIP3    H159855   5.232   1.353  15.356  0.8676 -0.6177  0.3418
12788TIP3    H259856   5.326   1.465  15.315  0.1647 -0.4715 -0.9101
12789TIP3   OH259857   0.083   2.700   2.878  0.0855  0.0988 -0.1948
12789TIP3    H159858   0.012   2.738   2.828 -1.6087 -0.4788  1.6963
12789TIP3    H259859   0.103   2.765   2.945 -1.2179 -1.2703  1.5790
12790TIP3   OH259860   3.746   6.349  13.240  0.1513  0.3439  0.0490
12790TIP3    H159861   3.797   6.274  13.272 -0.1325 -0.0145 -0.3356
12790TIP3    H259862   3.807   6.423  13.247  0.7381 -0.0881 -0.4401
12791TIP3   OH259863   5.066   1.793   1.454 -0.0764 -0.0130  0.0341
12791TIP3    H159864   4.990   1.837   1.493 -1.3430  1.2039 -3.5649
12791TIP3    H259865   5.107   1.860   1.399  0.9778 -1.8730 -1.5267
12792TIP3   OH259866   5.774   2.940   2.732 -0.1490  0.4192  0.0303
12792TIP3    H159867   5.723   2.951   2.652 -2.6080 -0.1692  1.4790
12792TIP3    H259868   5.750   3.015   2.787 -0.5596 -0.6239  1.2943
12793TIP3   OH259869   6.025   3.485   4.085  0.1568  0.1322  0.0057
12793TIP3    H159870   6.026   3.556   4.021 -0.0642 -0.8012 -1.0523
12793TIP3    H259871   5.977   3.521   4.160  1.3634  1.6012  0.1047
12794TIP3   OH259872   2.034   5.651  16.836  0.4955  0.2658  0.3057
12794TIP3    H159873   2.096   5.581  16.855  0.6013 -0.2062 -1.6666
12794TIP3    H259874   2.087   5.720  16.797  0.0499  0.5484  0.1987
12795TIP3   OH259875   5.950   0.779  11.323 -1.1387  0.1527  0.0945
12795TIP3    H159876   6.018   0.818  11.268 -0.9285 -1.3276 -0.7397
12795TIP3    H259877   5.879   0.757  11.262 -1.3607 -0.4998  0.5782
12796TIP3   OH259878   4.750   3.446  11.542  0.0055 -0.1502  0.2334
12796TIP3    H159879   4.740   3.541  11.535  0.7420 -0.1560 -1.0239
12796TIP3    H259880   4.694   3.410  11.473  2.8982 -0.4374 -2.0991
12797TIP3   OH259881   5.242   1.760  10.299  0.5470  0.2964  0.3130
12797TIP3    H159882   5.222   1.844  10.258  3.3929  1.2687  0.8492
12797TIP3    H259883   5.276   1.783  10.385  3.2109 -1.2945 -0.2820
12798TIP3   OH259884   2.537   0.264  11.915  0.1508  0.5170  0.1673
12798TIP3    H159885   2.554   0.350  11.953 -0.3462  0.4502  0.5493
12798TIP3    H259886   2.565   0.202  11.982  0.5943  0.3775 -0.1453
12799TIP3   OH259887   4.247   6.437  16.957  0.1214  0.4508 -1.0276
12799TIP3    H159888   4.304   6.498  17.005 -0.5570  0.8190 -0.6842
12799TIP3    H259889   4.195   6.493  16.900 -1.2410  0.3086  0.0471
12800TIP3   OH259890   4.377   5.282   6.183  0.1976 -0.3359  0.1450
12800TIP3    H159891   4.312   5.212   6.172 -2.1843  1.6490  1.1808
12800TIP3    H259892   4.441   5.245   6.244  0.0322 -2.2760 -0.7904
12801TIP3   OH259893   6.001   1.101   2.588 -0.0871  0.0746 -0.4948
12801TIP3    H159894   6.045   1.151   2.520  3.9068 -0.8815  1.2120
12801TIP3    H259895   5.987   1.165   2.659  0.8464 -0.1397 -0.1013
12802TIP3   OH259896   5.419   2.136  16.346 -0.1340  0.0668  0.4233
12802TIP3    H159897   5.368   2.211  16.318 -1.5667 -1.4874 -1.2827
12802TIP3    H259898   5.379   2.108  16.428 -0.0587  0.7226  0.6847
12803TIP3   OH259899   4.371   1.593  11.791  0.0000  0.0842 -0.0736
12803TIP3    H159900   4.434   1.523  11.778  1.6602  1.4101  0.6339
12803TIP3    H259901   4.410   1.648  11.860 -1.6964  1.1817  0.0471
12804TIP3   OH259902   1.291   2.526   0.285  0.4737  0.0137  0.8101
12804TIP3    H159903   1.308   2.618   0.263 -0.8707  0.4322  1.4979
12804TIP3    H259904   1.214   2.528   0.341  1.2781 -1.4302  1.9920
12805TIP3   OH259905   5.073   5.535   5.376  0.5834 -0.2231  0.1852
12805TIP3    H159906   4.998   5.484   5.408 -0.7447  0.9285 -1.0084
12805TIP3    H259907   5.096   5.494   5.293 -1.8665  2.2985 -1.8698
12806TIP3   OH259908   2.047   1.925   0.097  0.5665 -0.2175  0.2112
12806TIP3    H159909   2.015   1.976   0.022 -0.0563  1.1692  1.3926
12806TIP3    H259910   2.102   1.857   0.058 -0.3690  0.0014 -1.5556
12807TIP3   OH259911   2.497   1.272   4.089  0.0174  0.3320 -0.0137
12807TIP3    H159912   2.544   1.301   4.012  0.2894  1.9363  0.7358
12807TIP3    H259913   2.564   1.261   4.156 -0.1112 -1.7845 -0.1679
12808TIP3   OH259914   4.043   3.786  16.729  0.1821  0.3341 -1.0240
12808TIP3    H159915   4.053   3.813  16.820 -0.9575  2.7046 -1.5465
12808TIP3    H259916   3.969   3.725  16.729  2.1856 -2.1805  0.0572
12809TIP3   OH259917   0.314   3.001   0.046  1.0040  0.0153 -0.0321
12809TIP3    H159918   0.343   2.919   0.086  0.4103  0.1652  0.7033
12809TIP3    H259919   0.333   2.989  -0.048  0.0292 -1.3659 -0.0803
12810TIP3   OH259920   1.620   5.606  12.850  0.1046  0.1277 -0.2324
12810TIP3    H159921   1.580   5.677  12.900 -0.9158 -0.2570 -0.4957
12810TIP3    H259922   1.583   5.614  12.762  0.4890 -0.3299 -0.4404
12811TIP3   OH259923   5.913   3.571   0.065 -0.0631  0.2227 -0.3900
12811TIP3    H159924   5.825   3.589   0.030  0.2615  1.5111 -0.5952
12811TIP3    H259925   5.943   3.495   0.016 -0.7264  0.3127 -0.9554
12812TIP3   OH259926   1.115   2.250   4.143  0.2674 -0.8009  0.6145
12812TIP3    H159927   1.145   2.159   4.136 -0.1308 -0.7624 -2.0043
12812TIP3    H259928   1.196   2.301   4.140  0.4583 -1.0517  1.5297
12813TIP3   OH259929   3.895   6.151  11.531 -0.0706  0.0512  0.7655
12813TIP3    H159930   3.826   6.216  11.521 -1.9337 -2.0045 -0.4355
12813TIP3    H259931   3.901   6.109  11.445  3.4945  0.9099  0.5201
12814TIP3   OH259932   4.615   0.638   4.285 -0.0569  0.1467 -0.1961
12814TIP3    H159933   4.552   0.571   4.311  0.1507 -0.0940 -0.3152
12814TIP3    H259934   4.646   0.676   4.367  1.2693 -1.2261 -0.0514
12815TIP3   OH259935   5.303   5.695  15.717  0.8784  0.0417  0.3987
12815TIP3    H159936   5.285   5.684  15.623  1.7437 -1.5487  0.4066
12815TIP3    H259937   5.261   5.620  15.759  1.7991 -0.0772  1.1200
12816TIP3   OH259938   4.377   3.101  16.579  0.1456  0.9446 -0.0787
12816TIP3    H159939   4.453   3.097  16.521 -0.5880 -2.4141 -0.9143
12816TIP3    H259940   4.412   3.131  16.663  1.8244  2.4657 -1.3026
12817TIP3   OH259941   1.971   5.803   2.562 -0.3308  0.3675 -0.0937
12817TIP3    H159942   1.985   5.733   2.625  1.6038  0.9771  0.1859
12817TIP3    H259943   1.965   5.882   2.615 -0.0877  0.7150 -0.5796
12818TIP3   OH259944   3.043   0.362   1.112 -0.1257 -0.1717  0.1005
12818TIP3    H159945   3.065   0.337   1.022  0.9303 -2.1632  0.8784
12818TIP3    H259946   3.011   0.452   1.105 -3.8991 -1.6043 -2.7873
12819TIP3   OH259947   2.097   5.427   0.965  0.7087  1.0806  0.4559
12819TIP3    H159948   2.121   5.427   1.058  3.1390  0.2709 -0.1170
12819TIP3    H259949   2.123   5.513   0.933  1.3750  0.7844  0.1861
12820TIP3   OH259950   4.663   5.789  14.623 -0.2334  0.5977 -0.2525
12820TIP3    H159951   4.573   5.758  14.623 -0.6824  1.8498 -0.1992
12820TIP3    H259952   4.691   5.782  14.531 -1.3490  2.8261 -0.8065
12821TIP3   OH259953   2.097   2.883  16.986 -0.3312  0.2866 -0.5482
12821TIP3    H159954   2.025   2.909  17.044 -0.0545 -0.7407  0.2676
12821TIP3    H259955   2.077   2.793  16.962  1.1389 -0.3114  0.4077
12822TIP3   OH259956   4.623   4.255   4.653 -0.4981  0.0637  0.1538
12822TIP3    H159957   4.570   4.331   4.630  1.9485  1.9641  0.5547
12822TIP3    H259958   4.707   4.270   4.609  0.3983 -1.8548  1.1369
12823TIP3   OH259959   6.137   2.746  11.656  0.0622  0.5740  0.0565
12823TIP3    H159960   6.162   2.748  11.564 -0.0972  0.9316  0.0233
12823TIP3    H259961   6.103   2.833  11.675  0.2025  0.5416  0.4835
12824TIP3   OH259962   6.495   6.638   0.371  0.3466 -0.5412 -0.0332
12824TIP3    H159963   6.508   6.546   0.346  0.4229 -0.5079 -0.1190
12824TIP3    H259964   6.497   6.686   0.288 -0.7075 -0.5748 -0.0802
12825TIP3   OH259965   6.563   3.456   5.974  0.3479 -0.2641  0.4644
12825TIP3    H159966   6.604   3.530   6.019  1.3439  0.8671 -2.1590
12825TIP3    H259967   6.635   3.417   5.923 -0.8368 -1.1111 -0.5926
12826TIP3   OH259968   1.208   1.602  13.722 -0.5919  0.2585 -0.0325
12826TIP3    H159969   1.181   1.648  13.643 -1.3280  1.3875  0.8604
12826TIP3    H259970   1.290   1.559  13.697 -1.1719  0.0343 -1.5984
12827TIP3   OH259971   1.018   0.592   4.184  0.0526  0.1356  0.2413
12827TIP3    H159972   1.099   0.631   4.150 -0.1046 -0.1905 -0.5212
12827TIP3    H259973   0.968   0.667   4.218 -0.8368  0.8082 -2.4248
12828TIP3   OH259974   5.317   5.682   0.718 -0.4872 -0.0729  0.2599
12828TIP3    H159975   5.270   5.689   0.802 -1.1235 -1.6779  0.0550
12828TIP3    H259976   5.254   5.638   0.660  0.2310  0.3551 -0.8394
12829TIP3   OH259977   3.332   2.803   4.581 -0.6926 -0.5100 -0.5464
12829TIP3    H159978   3.283   2.838   4.506 -1.5220 -1.0013 -0.2455
12829TIP3    H259979   3.315   2.708   4.578 -0.6008 -0.5507  0.1645
12830TIP3   OH259980   2.273   4.086  12.093 -0.0766  0.1130 -0.1912
12830TIP3    H159981   2.286   3.991  12.089 -1.5900 -0.1555  0.7466
12830TIP3    H259982   2.349   4.119  12.139  0.3396 -0.6784 -0.3079
12831TIP3   OH259983   2.510   1.120   5.748 -0.2114 -0.5980 -0.0212
12831TIP3    H159984   2.537   1.097   5.837  1.4210  3.1057  0.5454
12831TIP3    H259985   2.416   1.135   5.754 -0.4914 -2.4908  0.5631
12832TIP3   OH259986   0.126   3.668   0.899  0.1635  0.4345  0.2691
12832TIP3    H159987   0.146   3.696   0.810  1.5409 -1.2879  0.0083
12832TIP3    H259988   0.067   3.594   0.890 -1.0167  1.2744  0.8643
12833TIP3   OH259989   5.293   4.984  14.126  0.5496  0.2005  0.1035
12833TIP3    H159990   5.294   4.936  14.043  3.6634 -0.4663  0.4546
12833TIP3    H259991   5.202   4.978  14.156 -0.5707  0.2486 -3.1185
12834TIP3   OH259992   6.651   2.679  13.370  0.0837  0.2580 -0.0028
12834TIP3    H159993   6.688   2.756  13.328 -0.8730  0.4469 -0.4960
12834TIP3    H259994   6.562   2.673  13.336  0.5812 -1.8355 -0.9995
12835TIP3   OH259995   2.918   5.517   1.470  0.3047  0.6714 -0.0394
12835TIP3    H159996   2.927   5.601   1.516  0.2349  0.7101 -0.0973
12835TIP3    H259997   2.934   5.538   1.378 -0.9535  0.8462 -0.2269
12836TIP3   OH259998   5.832   3.985  12.897 -0.4379  0.3262  0.1333
12836TIP3    H159999   5.821   4.046  12.969 -0.9374  1.2370 -0.7112
12836TIP3    H260000   5.921   4.000  12.865  0.4912 -1.4427  1.7986
12837TIP3   OH260001   0.558   5.841   3.743 -0.4672 -0.2174  0.1981
12837TIP3    H160002   0.626   5.885   3.793 -0.0812  0.4321 -0.8902
12837TIP3    H260003   0.547   5.757   3.788 -0.0736  0.3100  1.3150
12838TIP3   OH260004   3.340   1.030  13.206 -0.2562 -0.2239  0.3364
12838TIP3    H160005   3.322   1.119  13.235 -0.4441 -0.0782 -0.2178
12838TIP3    H260006   3.258   0.983  13.223  0.0658 -0.4579  1.2606
12839TIP3   OH260007   0.487   5.223  15.530  0.1692 -0.3838 -0.0534
12839TIP3    H160008   0.549   5.152  15.543  2.6134  1.3945 -1.4463
12839TIP3    H260009   0.436   5.197  15.453 -1.3495 -2.1608  1.4977
12840TIP3   OH260010   5.235   4.324  15.473 -0.5612  0.4503 -0.4960
12840TIP3    H160011   5.314   4.303  15.523 -0.5964  3.1437  0.8429
12840TIP3    H260012   5.166   4.329  15.539 -2.1015 -2.7495 -1.7640
12841TIP3   OH260013   4.330   0.023  14.447  0.4217 -0.5633  0.1112
12841TIP3    H160014   4.332   0.073  14.366  0.6184  1.0082  1.0678
12841TIP3    H260015   4.390  -0.050  14.432  0.4600 -0.2854 -1.1483
12842TIP3   OH260016   6.129   1.839   1.003 -0.3179 -0.1739  0.1784
12842TIP3    H160017   6.129   1.744   0.992 -2.1188  0.1284 -2.9444
12842TIP3    H260018   6.042   1.859   1.039  0.0371  0.3044  0.7782
12843TIP3   OH260019   5.812   0.064   2.472 -0.3994  0.6331 -0.1028
12843TIP3    H160020   5.844   0.097   2.556 -1.6219  1.9134 -0.1387
12843TIP3    H260021   5.756  -0.010   2.496 -1.9138  1.8986  0.3132
12844TIP3   OH260022   1.694   5.143  13.569 -0.4238  0.0805 -0.6272
12844TIP3    H160023   1.690   5.059  13.616 -0.1410  0.2152 -0.3588
12844TIP3    H260024   1.614   5.188  13.594 -0.9417 -0.4087 -1.3507
12845TIP3   OH260025   6.235   6.743   4.568  0.1666  0.6306 -0.3589
12845TIP3    H160026   6.259   6.835   4.562 -0.9658  0.9461 -0.2942
12845TIP3    H260027   6.318   6.696   4.573  0.7414  1.6888  0.2113
12846TIP3   OH260028   3.111   0.615  16.209 -0.2249  0.2485 -0.2031
12846TIP3    H160029   3.074   0.538  16.166 -1.1471  0.5099  0.1235
12846TIP3    H260030   3.178   0.646  16.149  1.3761 -1.8316  0.4304
12847TIP3   OH260031   0.296   0.217  14.758  0.2894 -0.2252 -0.1534
12847TIP3    H160032   0.246   0.194  14.837 -1.3532 -0.7564 -1.3208
12847TIP3    H260033   0.312   0.311  14.766  1.3230 -0.5195  1.4687
12848TIP3   OH260034   4.459   1.724  13.557 -0.7404 -0.5173 -0.2422
12848TIP3    H160035   4.498   1.807  13.529  1.1818 -0.9785  0.9733
12848TIP3    H260036   4.371   1.726  13.520  0.1094  0.9583 -2.3283
12849TIP3   OH260037   2.081   2.887   0.714  0.0224  0.1432 -0.0726
12849TIP3    H160038   2.065   2.893   0.620 -1.7084 -0.3323  0.1865
12849TIP3    H260039   2.089   2.978   0.742 -0.0697  0.3086 -0.5670
12850TIP3   OH260040   1.605   2.309   0.938 -0.0991 -0.1794 -0.4289
12850TIP3    H160041   1.620   2.238   1.000 -0.0676  0.1344 -0.0730
12850TIP3    H260042   1.516   2.294   0.905 -0.9758  0.9146  1.3698
12851TIP3   OH260043   1.576   3.152   5.080  0.1004 -0.4196 -0.4349
12851TIP3    H160044   1.643   3.093   5.115 -0.6488 -1.5021 -0.8327
12851TIP3    H260045   1.528   3.181   5.158  0.7817  0.0609 -0.1885
12852TIP3   OH260046   3.373   5.125   5.852 -0.0827 -0.0392  0.1792
12852TIP3    H160047   3.362   5.177   5.772  0.2477 -0.6100 -0.2402
12852TIP3    H260048   3.451   5.161   5.893  1.1653 -1.3558 -1.0087
12853TIP3   OH260049   2.353   4.805   0.873  0.0839 -0.6972  0.2359
12853TIP3    H160050   2.271   4.852   0.858  1.5129  1.2961 -1.6704
12853TIP3    H260051   2.358   4.796   0.968 -0.5892  2.4391  0.6157
12854TIP3   OH260052   3.331   2.404  11.767  0.5609 -0.1572 -0.5165
12854TIP3    H160053   3.316   2.329  11.709 -0.7936 -1.1249  1.0237
12854TIP3    H260054   3.306   2.372  11.853 -0.7465  2.2817  0.0546
12855TIP3   OH260055   1.875   6.688  11.227 -0.1028  0.3599 -0.4880
12855TIP3    H160056   1.806   6.623  11.214 -0.6222  1.3198 -2.7986
12855TIP3    H260057   1.828   6.770  11.243  0.5505  0.3808  1.5064
12856TIP3   OH260058   0.817   4.096   0.870 -0.5219  0.4507  0.0269
12856TIP3    H160059   0.896   4.150   0.880 -0.6742  1.0776 -1.9703
12856TIP3    H260060   0.817   4.040   0.947  0.6692  2.0030  1.1833
12857TIP3   OH260061   1.305   0.534  11.996 -0.5387 -0.0404  0.1387
12857TIP3    H160062   1.210   0.543  11.991 -0.5249 -0.3835 -0.8088
12857TIP3    H260063   1.339   0.623  11.988 -0.7627  0.0325  0.0106
12858TIP3   OH260064   5.848   4.539  15.416  0.6230 -0.6468  0.5881
12858TIP3    H160065   5.908   4.523  15.488  1.9712  0.5555 -0.2341
12858TIP3    H260066   5.865   4.469  15.353  0.5406 -0.8133  0.7521
12859TIP3   OH260067   0.944   6.162  15.415  0.2663  0.3154 -0.6833
12859TIP3    H160068   0.940   6.126  15.504 -0.2946  0.7742 -0.5244
12859TIP3    H260069   1.037   6.157  15.392  0.5199  0.8358  0.1892
12860TIP3   OH260070   2.640   0.640   3.550  0.0124 -0.5447  0.0589
12860TIP3    H160071   2.636   0.692   3.631 -1.5296  1.4659 -1.2744
12860TIP3    H260072   2.648   0.549   3.581 -0.9429  0.1483  2.4699
12861TIP3   OH260073   3.342   1.699   1.188 -0.2966 -0.1556  0.1552
12861TIP3    H160074   3.430   1.672   1.214 -0.6672 -0.9287  0.6411
12861TIP3    H260075   3.343   1.697   1.092  1.0626  2.6424  0.0665
12862TIP3   OH260076   6.150   6.171  11.685  0.1476 -0.2532  0.1402
12862TIP3    H160077   6.096   6.138  11.757  0.0873  0.2541  0.3285
12862TIP3    H260078   6.240   6.170  11.720 -0.2571  3.1453  1.4030
12863TIP3   OH260079   3.585   2.002   5.227  0.5599  0.4336 -0.1267
12863TIP3    H160080   3.658   1.940   5.219  1.3393  1.4872 -1.3255
12863TIP3    H260081   3.518   1.968   5.168  0.9376  0.6619 -0.6899
12864TIP3   OH260082   6.375   1.558   3.308 -0.0229  0.3830  0.2559
12864TIP3    H160083   6.304   1.600   3.259 -0.7791 -0.0752  0.9528
12864TIP3    H260084   6.332   1.492   3.361  1.0343 -0.5186  0.0123
12865TIP3   OH260085   5.922   5.145  14.944 -0.1485  0.7168 -0.4104
12865TIP3    H160086   5.883   5.225  14.908  2.2757  1.4616 -1.5034
12865TIP3    H260087   5.976   5.111  14.873  2.8483  0.9084  1.6955
12866TIP3   OH260088   4.791   0.249  13.976  0.4856  0.3131  0.2471
12866TIP3    H160089   4.841   0.324  14.010  0.6382  0.9743 -1.3605
12866TIP3    H260090   4.705   0.286  13.955  0.7676  0.2018 -1.1493
12867TIP3   OH260091   1.857   3.567  12.597  0.1655 -0.3126 -0.2589
12867TIP3    H160092   1.817   3.541  12.515 -0.1855  0.0022 -0.1914
12867TIP3    H260093   1.815   3.651  12.619 -0.6328 -0.9846  0.8551
12868TIP3   OH260094   6.352   0.703   2.670 -0.0752 -0.3407 -0.2644
12868TIP3    H160095   6.381   0.776   2.724  0.4552 -0.0657 -0.9131
12868TIP3    H260096   6.421   0.638   2.679 -0.0712 -0.3659 -0.4703
12869TIP3   OH260097   1.226   4.794  12.945  0.6095  0.1126 -0.7167
12869TIP3    H160098   1.181   4.733  13.004 -1.1532  1.1166 -0.9652
12869TIP3    H260099   1.243   4.871  13.000  2.0398 -0.2639 -0.6296
12870TIP3   OH260100   2.454   6.467  11.056 -0.4121 -0.6295  0.3628
12870TIP3    H160101   2.391   6.455  10.985  0.1343  0.1152 -0.2466
12870TIP3    H260102   2.491   6.554  11.042  2.1126 -1.7857 -0.3548
12871TIP3   OH260103   2.248   0.629   0.010 -0.0079  0.5981 -0.2406
12871TIP3    H160104   2.243   0.534  -0.002  0.7760  0.6487 -0.9846
12871TIP3    H260105   2.284   0.640   0.099  1.6572  0.1816 -0.8433
12872TIP3   OH260106   5.089   5.893   0.073 -0.4110 -0.1547  0.3058
12872TIP3    H160107   5.132   5.976   0.094 -1.3690  0.3288  0.3565
12872TIP3    H260108   4.999   5.917   0.053  0.0917 -0.7822 -2.9305
12873TIP3   OH260109   0.916   2.452  12.240 -0.1249  0.1612 -0.1237
12873TIP3    H160110   0.829   2.440  12.204 -0.1489  0.4106 -0.1501
12873TIP3    H260111   0.906   2.525  12.302 -0.1072 -0.3228  0.4506
12874TIP3   OH260112   5.417   3.327   3.705  0.0454 -0.0710  0.3108
12874TIP3    H160113   5.418   3.269   3.782  0.0331  1.8369  1.7859
12874TIP3    H260114   5.509   3.340   3.684  0.0282 -1.4268 -0.6622
12875TIP3   OH260115   0.499   5.605   3.319 -0.0322  0.4065  0.0691
12875TIP3    H160116   0.423   5.579   3.372  1.1578 -4.3368 -0.3027
12875TIP3    H260117   0.558   5.647   3.381 -1.6529  1.3892  0.9828
12876TIP3   OH260118   4.442   3.049   0.260 -0.0490  0.2357 -0.0598
12876TIP3    H160119   4.505   3.012   0.198 -0.3996 -0.4661  0.0075
12876TIP3    H260120   4.373   3.085   0.204  0.7679  1.6778 -0.1664
12877TIP3   OH260121   0.110   3.561  12.344  1.1574 -0.1448  0.5496
12877TIP3    H160122   0.029   3.585  12.298  1.3583 -1.4345 -0.4860
12877TIP3    H260123   0.105   3.610  12.426  0.5745  1.8436 -0.6120
12878TIP3   OH260124   5.349   0.670   2.457  0.9233 -0.1335  0.3164
12878TIP3    H160125   5.274   0.713   2.497 -1.1108 -1.4930 -1.9560
12878TIP3    H260126   5.382   0.732   2.393  0.1001 -0.5984 -0.5554
12879TIP3   OH260127   3.538   5.630   2.530 -0.1023  0.0931 -0.0526
12879TIP3    H160128   3.451   5.667   2.519 -0.1690  0.2351  0.8731
12879TIP3    H260129   3.528   5.562   2.597  0.7204  0.9902  1.0093
12880TIP3   OH260130   4.971   0.137  14.371 -0.3683  0.4113  1.3971
12880TIP3    H160131   4.905   0.205  14.388 -0.5240  0.3582  1.0043
12880TIP3    H260132   5.038   0.181  14.320 -2.0038 -0.5082 -1.6599
12881TIP3   OH260133   4.782   6.627  16.063 -0.7337  0.0387 -0.0742
12881TIP3    H160134   4.844   6.599  16.130 -0.3928 -0.5420 -0.6321
12881TIP3    H260135   4.833   6.632  15.982 -1.9029 -2.8698 -1.0643
12882TIP3   OH260136   0.740   0.397  13.318  0.5527 -0.5367 -0.0702
12882TIP3    H160137   0.687   0.446  13.255  1.7898 -0.0998 -0.7710
12882TIP3    H260138   0.675   0.351  13.372 -0.5300 -0.4123 -1.2358
12883TIP3   OH260139   1.848   6.217   2.890 -0.8333  0.0043 -0.1031
12883TIP3    H160140   1.828   6.309   2.873 -0.3220  0.1336 -0.0187
12883TIP3    H260141   1.906   6.191   2.819 -0.0280  0.0847  0.5048
12884TIP3   OH260142   2.693   1.108  16.885  0.1836 -0.2270  0.4515
12884TIP3    H160143   2.680   1.014  16.891  1.1423 -0.2049  3.5032
12884TIP3    H260144   2.622   1.146  16.937 -0.0600  0.7502 -0.5639
12885TIP3   OH260145   2.883   0.824  16.582  0.6502 -0.2064 -0.0161
12885TIP3    H160146   2.925   0.776  16.653 -1.6239  0.1746  1.6765
12885TIP3    H260147   2.910   0.915  16.595  0.7778 -0.2403 -0.0452
12886TIP3   OH260148   3.263   3.193  16.907  0.3552 -0.3537  0.4911
12886TIP3    H160149   3.287   3.245  16.831 -3.6501  2.4781  0.9917
12886TIP3    H260150   3.178   3.155  16.884 -0.1197 -0.8274  2.8731
12887TIP3   OH260151   4.146   4.406  16.389  0.9722 -0.3159 -0.5926
12887TIP3    H160152   4.064   4.362  16.372 -0.5586  1.6147  1.4395
12887TIP3    H260153   4.208   4.336  16.410 -0.4577 -1.7024 -0.9605
12888TIP3   OH260154   6.104   0.317   6.224 -0.2892 -0.0432 -0.4060
12888TIP3    H160155   6.028   0.270   6.190 -1.6442  0.0438  2.3608
12888TIP3    H260156   6.167   0.248   6.247 -0.9558 -0.3334  0.5730
12889TIP3   OH260157   4.838   2.656   0.178 -1.0780  0.3907 -0.1487
12889TIP3    H160158   4.877   2.597   0.113  0.3879 -0.2384  1.2807
12889TIP3    H260159   4.887   2.639   0.258 -3.0289  0.9780  1.2048
12890TIP3   OH260160   2.148   3.152  12.297  0.3978  0.7263 -0.3060
12890TIP3    H160161   2.183   3.168  12.385 -2.5587  2.2896  0.6489
12890TIP3    H260162   2.124   3.238  12.264 -0.5083 -0.0719 -1.7854
12891TIP3   OH260163   0.110   3.103   0.294 -0.1539 -0.0949  0.0069
12891TIP3    H160164   0.084   3.014   0.319 -2.3825  0.9887  1.7630
12891TIP3    H260165   0.198   3.114   0.331 -0.4895 -1.0550  1.1298
12892TIP3   OH260166   1.917   2.345  12.689 -0.2449 -0.2354 -0.0707
12892TIP3    H160167   1.868   2.268  12.718  0.7063 -0.6768  0.4218
12892TIP3    H260168   1.860   2.419  12.709 -0.7267 -0.7378  0.4478
12893TIP3   OH260169   0.839   3.948  15.452  0.6490  0.1699 -0.2121
12893TIP3    H160170   0.758   3.989  15.482  0.1068 -1.8010  1.1115
12893TIP3    H260171   0.904   4.018  15.458 -0.5184  1.2052  0.7475
12894TIP3   OH260172   6.807   4.968  11.410 -0.2159  0.4864 -0.2715
12894TIP3    H160173   6.884   4.912  11.422 -1.1114 -0.7655 -0.2488
12894TIP3    H260174   6.734   4.915  11.442 -1.3704  0.8535 -2.2111
12895TIP3   OH260175   2.882   6.381  12.502  0.0868 -0.7345  0.3075
12895TIP3    H160176   2.877   6.472  12.473  3.9400  0.2575  2.4811
12895TIP3    H260177   2.813   6.373  12.567  1.2989  1.3782  1.8972
12896TIP3   OH260178   4.949   2.233  13.575 -0.1382  0.2778  0.1194
12896TIP3    H160179   4.892   2.254  13.649 -1.0738 -0.5363 -0.3498
12896TIP3    H260180   4.889   2.201  13.508  1.1148 -3.0489  0.4994
12897TIP3   OH260181   2.542   6.481  14.297  0.7506  0.4835  1.0016
12897TIP3    H160182   2.541   6.398  14.344  1.8887 -1.7851 -2.7296
12897TIP3    H260183   2.456   6.484  14.254  1.5380  0.0521 -0.6722
12898TIP3   OH260184   6.041   5.705   4.657 -0.0131 -0.0378  0.0665
12898TIP3    H160185   6.013   5.790   4.690 -1.6319  0.0512 -1.4485
12898TIP3    H260186   6.134   5.716   4.636 -0.1637  1.2911  0.0919
12899TIP3   OH260187   3.783   5.101  13.348 -0.3584  0.1649 -0.6345
12899TIP3    H160188   3.694   5.076  13.320 -0.2163 -1.4472  0.2995
12899TIP3    H260189   3.785   5.196  13.336 -2.4160  0.3113 -0.1134
12900TIP3   OH260190   1.934   4.335  11.895  0.1099 -0.1627 -0.0614
12900TIP3    H160191   1.982   4.381  11.826 -0.4582  0.9437  0.2641
12900TIP3    H260192   2.000   4.313  11.960  0.5964 -0.9309 -0.7984
12901TIP3   OH260193   4.787   1.065   0.651 -0.0905 -0.5519  0.1120
12901TIP3    H160194   4.731   1.127   0.603  0.0182  0.7660  1.6279
12901TIP3    H260195   4.736   1.042   0.729  0.5793 -1.0483  0.4087
12902TIP3   OH260196   3.118   3.836   0.392 -0.2267  0.9325 -0.0505
12902TIP3    H160197   3.074   3.813   0.310 -1.5619  1.3178  0.5465
12902TIP3    H260198   3.090   3.768   0.454  1.4628  0.1452 -0.1148
12903TIP3   OH260199   1.841   3.676   3.944 -0.2670 -0.0301 -0.0050
12903TIP3    H160200   1.916   3.633   3.902 -0.7445 -0.4167 -0.4555
12903TIP3    H260201   1.857   3.770   3.930 -1.6408 -0.2122 -3.1654
12904TIP3   OH260202   2.553   1.609  15.986 -0.0535  0.7190  0.3051
12904TIP3    H160203   2.471   1.640  16.025  0.7296  0.7841  1.9281
12904TIP3    H260204   2.598   1.563  16.057  0.3218 -1.2782 -1.1670
12905TIP3   OH260205   6.118   0.977   3.572  0.1126 -0.0890 -0.1392
12905TIP3    H160206   6.104   1.042   3.503  1.1837 -1.4769 -1.7050
12905TIP3    H260207   6.031   0.947   3.596 -0.4426  2.2405  0.9701
12906TIP3   OH260208   0.364   1.151   0.723  0.3672  0.2569  0.1236
12906TIP3    H160209   0.422   1.081   0.693 -1.0461 -0.9864  0.2481
12906TIP3    H260210   0.292   1.106   0.765  0.5471  1.8691  2.2446
12907TIP3   OH260211   5.623   6.802  11.264 -0.5573 -0.2796  0.3557
12907TIP3    H160212   5.618   6.860  11.189  0.4921 -0.7757 -0.1156
12907TIP3    H260213   5.646   6.860  11.337  0.1801 -0.0499 -0.0511
12908TIP3   OH260214   2.885   1.289  11.977  0.4084 -0.1188  0.0275
12908TIP3    H160215   2.790   1.303  11.978  0.3292 -0.6225 -0.0265
12908TIP3    H260216   2.894   1.195  11.958  0.9022 -0.2936  1.1135
12909TIP3   OH260217   2.356   6.657  12.853  0.4659 -0.0514 -0.1895
12909TIP3    H160218   2.317   6.577  12.817 -0.6538  0.2440  0.3625
12909TIP3    H260219   2.353   6.719  12.781 -1.4731  0.4354  0.2982
12910TIP3   OH260220   4.532   1.006   0.057 -0.3052 -0.4166  0.0614
12910TIP3    H160221   4.572   1.049  -0.019  0.8046 -0.2299  0.7372
12910TIP3    H260222   4.474   1.073   0.095  0.0071 -0.1365  0.0396
12911TIP3   OH260223   3.412   4.756   0.260 -0.1988 -0.6044 -0.4476
12911TIP3    H160224   3.441   4.729   0.173 -0.6631  1.2042 -1.1991
12911TIP3    H260225   3.488   4.744   0.316  0.3713 -0.9754 -1.2922
12912TIP3   OH260226   2.704   2.869   4.183 -0.2097  0.5862  0.0458
12912TIP3    H160227   2.713   2.795   4.124  0.7034  0.4050  0.4052
12912TIP3    H260228   2.756   2.938   4.142  0.2166  0.5387  0.5096
12913TIP3   OH260229   2.584   5.754  13.337  0.4246 -0.1574 -0.4363
12913TIP3    H160230   2.665   5.729  13.295  0.1987 -0.0214 -0.9565
12913TIP3    H260231   2.516   5.702  13.294  0.4784 -1.7964  1.4057
12914TIP3   OH260232   2.266   5.702  14.016 -0.1005  0.9792 -0.3106
12914TIP3    H160233   2.239   5.662  14.099 -3.1506  0.6092 -1.4152
12914TIP3    H260234   2.290   5.791  14.039  1.3961  0.1804  1.3332
12915TIP3   OH260235   4.053   1.780  13.892  0.5646  0.1153  0.7197
12915TIP3    H160236   4.027   1.772  13.984  1.8288 -2.8006  0.8829
12915TIP3    H260237   4.143   1.747  13.890  0.6761  0.5321 -1.5165
12916TIP3   OH260238   5.047   4.707  17.194 -0.2823  0.4687  0.0172
12916TIP3    H160239   5.049   4.760  17.114  2.2604  1.5825  0.7605
12916TIP3    H260240   5.125   4.734  17.242  0.7203 -3.4972  0.7670
12917TIP3   OH260241   0.475   5.706   0.179  0.2224  0.3767  0.0986
12917TIP3    H160242   0.391   5.743   0.206 -0.1172  0.2124 -0.6969
12917TIP3    H260243   0.510   5.770   0.117  0.4463  0.2061  0.0505
12918TIP3   OH260244   6.694   1.261   5.506  0.1624 -0.2976 -0.3872
12918TIP3    H160245   6.748   1.340   5.498 -3.2488  2.4788  2.6288
12918TIP3    H260246   6.626   1.272   5.440 -0.8456 -0.2832  0.6554
12919TIP3   OH260247   0.128   4.947  13.429  0.6576 -0.0963 -0.5278
12919TIP3    H160248   0.122   4.981  13.518  0.5527 -0.6929 -0.3071
12919TIP3    H260249   0.218   4.915  13.421  1.0679  1.1576 -1.0709
12920TIP3   OH260250   6.309   2.803  15.661 -0.4150 -0.7659 -0.2613
12920TIP3    H160251   6.394   2.806  15.703 -1.6568 -1.1577  2.3689
12920TIP3    H260252   6.308   2.879  15.602  2.0195 -1.2207 -0.9216
12921TIP3   OH260253   0.814   0.011   3.859 -0.4773 -0.1523  0.2446
12921TIP3    H160254   0.880  -0.013   3.794  1.0211 -1.3281  2.1320
12921TIP3    H260255   0.743  -0.052   3.847 -1.1978  0.9868 -1.6620
12922TIP3   OH260256   4.531   5.607   3.093  0.1300 -0.3581  0.4468
12922TIP3    H160257   4.472   5.551   3.043  2.2609 -2.7401  0.5576
12922TIP3    H260258   4.578   5.657   3.027  1.0543 -1.5884  0.1633
12923TIP3   OH260259   6.088   0.984  16.952 -0.1376 -0.1835  0.3857
12923TIP3    H160260   6.143   0.908  16.932 -0.8658 -0.7898  0.6770
12923TIP3    H260261   6.147   1.046  16.996  0.8332  0.0489 -1.1929
12924TIP3   OH260262   0.130   3.094   3.454 -0.3077  0.3137 -0.0436
12924TIP3    H160263   0.104   3.002   3.453 -0.0646  0.2577 -1.7030
12924TIP3    H260264   0.063   3.138   3.402 -0.5573  1.1329  0.9352
12925TIP3   OH260265   4.602   0.482   0.911 -0.0459  0.2397  0.2359
12925TIP3    H160266   4.641   0.550   0.855  1.6175 -0.2281  0.8096
12925TIP3    H260267   4.670   0.461   0.974 -1.7936  0.5115  2.2686
12926TIP3   OH260268   1.463   6.551  11.738 -0.2410 -0.1455 -0.3664
12926TIP3    H160269   1.465   6.455  11.747  1.9076  0.0272  1.2818
12926TIP3    H260270   1.419   6.581  11.817  1.4075  0.3547  0.3721
12927TIP3   OH260271   6.560   5.890   4.504  0.0122 -0.6341  0.1987
12927TIP3    H160272   6.629   5.841   4.548  0.4343  0.1885  0.4709
12927TIP3    H260273   6.564   5.863   4.413  0.8469 -0.4117  0.1706
12928TIP3   OH260274   4.952   4.185  16.774  0.2146  0.0970 -0.2774
12928TIP3    H160275   4.997   4.212  16.854  0.7875  1.4653 -1.0309
12928TIP3    H260276   4.905   4.264  16.746 -0.7263 -0.6393 -0.7892
12929TIP3   OH260277   3.974   5.845   5.868  0.4681 -0.0195 -0.2259
12929TIP3    H160278   3.969   5.844   5.963 -2.6197  1.2104 -0.3025
12929TIP3    H260279   4.033   5.917   5.847 -0.5536  1.1426  0.7725
12930TIP3   OH260280   5.148   1.288  15.489  0.4200 -0.3742 -0.7153
12930TIP3    H160281   5.190   1.347  15.552 -1.8912  0.0381  0.5095
12930TIP3    H260282   5.176   1.201  15.516 -1.9799 -0.3436  2.0956
12931TIP3   OH260283   4.047   4.441   3.555  0.5903 -0.1943  0.4507
12931TIP3    H160284   4.102   4.483   3.621  0.1904  0.0758  0.6103
12931TIP3    H260285   4.040   4.506   3.485  3.2473 -1.4619 -1.0972
12932TIP3   OH260286   5.872   0.735   4.791  0.9277 -0.2458 -0.0649
12932TIP3    H160287   5.796   0.697   4.835 -0.7143  1.1429 -1.6103
12932TIP3    H260288   5.905   0.801   4.853  1.1685 -1.1577  0.7964
12933TIP3   OH260289   2.250   2.690  14.472  0.2462 -0.2805  0.2481
12933TIP3    H160290   2.176   2.637  14.504  0.3685  0.5640  1.9796
12933TIP3    H260291   2.325   2.657  14.520  0.7524 -0.1409 -0.4423
12934TIP3   OH260292   4.235   2.540  12.045  0.2834  0.4266  0.3955
12934TIP3    H160293   4.302   2.535  11.977  0.5183  1.2885  0.5591
12934TIP3    H260294   4.285   2.536  12.127  0.1783  1.4968  0.5194
12935TIP3   OH260295   1.292   6.295  12.144  0.3279 -0.5197  0.0287
12935TIP3    H160296   1.373   6.341  12.121  0.8727 -1.4805  0.0195
12935TIP3    H260297   1.233   6.365  12.173  0.8651  0.2867 -0.7758
12936TIP3   OH260298   2.589   5.807  15.693 -0.1320 -0.2811  0.1674
12936TIP3    H160299   2.616   5.849  15.611 -0.8400  0.7480  0.4480
12936TIP3    H260300   2.617   5.867  15.762 -1.1030 -0.2863  0.5790
12937TIP3   OH260301   4.970   5.338  12.880 -0.3573  0.1231 -0.0881
12937TIP3    H160302   4.905   5.376  12.821 -0.2307  0.2828 -0.1234
12937TIP3    H260303   5.038   5.304  12.823 -0.6420 -0.4797 -0.0724
12938TIP3   OH260304   3.577   2.735  14.004  0.2194  0.2671 -0.0815
12938TIP3    H160305   3.565   2.706  13.914  1.3040 -3.5564  0.9331
12938TIP3    H260306   3.668   2.766  14.007  0.8494 -1.5700  0.1778
12939TIP3   OH260307   6.108   4.488   3.459 -0.0083  0.0570  0.5082
12939TIP3    H160308   6.071   4.451   3.379 -0.7591 -0.4427  1.0886
12939TIP3    H260309   6.111   4.415   3.521  0.1115  0.5607  1.1024
12940TIP3   OH260310   0.615   4.759   6.491  0.3266 -0.1736 -0.5161
12940TIP3    H160311   0.600   4.840   6.540  1.5465  0.0702 -0.5223
12940TIP3    H260312   0.645   4.696   6.557  0.2601 -0.3566 -0.6602
12941TIP3   OH260313   6.490   5.043  12.899 -0.1687  0.3855 -0.2128
12941TIP3    H160314   6.564   5.018  12.843  0.6674  1.0819  0.5704
12941TIP3    H260315   6.440   4.962  12.909  0.3672 -0.0441 -0.9265
12942TIP3   OH260316   1.820   1.677   5.408 -0.5092  0.4066  0.0615
12942TIP3    H160317   1.822   1.772   5.396 -0.0392  0.5881  1.4834
12942TIP3    H260318   1.727   1.656   5.417 -0.6738  0.6161 -1.0922
12943TIP3   OH260319   2.266   4.200  14.261  0.1265 -0.0610 -0.0490
12943TIP3    H160320   2.313   4.256  14.323 -0.4053 -0.9493  1.1735
12943TIP3    H260321   2.174   4.212  14.282 -0.0857  0.0156 -1.0061
12944TIP3   OH260322   4.877   4.867   5.569 -0.6006 -0.0069  0.3279
12944TIP3    H160323   4.969   4.893   5.557 -0.2801 -0.8075  0.9837
12944TIP3    H260324   4.882   4.775   5.596 -1.5903 -0.0022  0.5212
12945TIP3   OH260325   5.172   5.674  16.978  0.3862  0.4883  0.0728
12945TIP3    H160326   5.251   5.666  16.925  0.7657  0.1113  0.6918
12945TIP3    H260327   5.106   5.625  16.929  0.8898 -0.3740  0.2446
12946TIP3   OH260328   6.489   0.546  17.144  0.1845 -0.5026  0.2580
12946TIP3    H160329   6.397   0.565  17.128  0.5758  4.3530  2.9449
12946TIP3    H260330   6.494   0.529  17.238  1.9379 -1.6318 -0.0193
12947TIP3   OH260331   1.781   4.891  17.110 -0.8759 -0.0626  0.0845
12947TIP3    H160332   1.737   4.969  17.145 -1.4814  0.0816 -0.9888
12947TIP3    H260333   1.872   4.917  17.102 -1.2039  0.8085 -1.0111
12948TIP3   OH260334   1.472   4.691  12.372  0.2892 -0.4141 -0.3676
12948TIP3    H160335   1.451   4.689  12.465 -1.5871 -0.6256 -0.7747
12948TIP3    H260336   1.544   4.753  12.365 -0.8571  1.1289  1.0011
12949TIP3   OH260337   5.009   5.924  14.503  0.8705  0.2112  0.3614
12949TIP3    H160338   4.921   5.957  14.488  1.1079  0.5532 -0.2913
12949TIP3    H260339   5.001   5.869  14.581  0.2447  0.8798  0.7690
12950TIP3   OH260340   3.721   3.799  13.897 -0.2070 -0.0634 -0.1337
12950TIP3    H160341   3.636   3.814  13.854 -0.6136  0.9199  0.9674
12950TIP3    H260342   3.784   3.843  13.841 -0.4417 -0.7041 -0.9036
12951TIP3   OH260343   2.604   6.633  11.839  0.5992  0.0684 -0.1196
12951TIP3    H160344   2.575   6.639  11.748  1.7307  0.4153 -0.4706
12951TIP3    H260345   2.562   6.555  11.874 -2.3745  1.6497  0.0012
12952TIP3   OH260346   4.313   1.294   5.361 -0.2990 -0.2470 -0.9831
12952TIP3    H160347   4.312   1.369   5.420 -1.1854  0.4701 -1.8866
12952TIP3    H260348   4.308   1.217   5.418  1.6180  0.3323  0.0149
12953TIP3   OH260349   6.588   2.007   5.851 -0.4693 -0.3337 -0.1637
12953TIP3    H160350   6.502   2.017   5.811 -0.7771 -1.4640  0.2233
12953TIP3    H260351   6.571   1.973   5.938  0.4025 -1.2906 -0.3521
12954TIP3   OH260352   5.427   3.591   4.819 -0.3046  0.0396  0.0799
12954TIP3    H160353   5.416   3.524   4.751 -1.7147  0.4901 -0.1498
12954TIP3    H260354   5.509   3.567   4.863 -0.7019 -1.7504 -0.1033
12955TIP3   OH260355   5.067   1.824  13.589 -0.0179 -0.2654  0.1237
12955TIP3    H160356   5.147   1.780  13.562  0.6767  0.3952  1.0740
12955TIP3    H260357   5.012   1.754  13.624  0.3865 -0.6273  0.0373
12956TIP3   OH260358   0.794   5.633   4.389 -0.3427 -0.0598  0.0297
12956TIP3    H160359   0.850   5.570   4.344 -1.7697 -1.7869  0.6185
12956TIP3    H260360   0.796   5.605   4.481  1.0719  2.3183  0.7813
12957TIP3   OH260361   0.842   3.881  14.593  0.2125  0.2992  0.4579
12957TIP3    H160362   0.822   3.866  14.685  0.1643 -0.9684  0.2498
12957TIP3    H260363   0.756   3.886  14.550  0.2456 -2.6744 -0.0529
12958TIP3   OH260364   1.443   5.882  16.300  0.1091 -0.3589 -0.3922
12958TIP3    H160365   1.457   5.924  16.385  1.8612  0.5036 -1.0773
12958TIP3    H260366   1.352   5.903  16.277  0.0957  0.6844  0.5657
12959TIP3   OH260367   4.027   6.055   2.902  0.1031 -0.3022  0.5324
12959TIP3    H160368   4.007   5.966   2.931 -0.4262  0.4939  2.7020
12959TIP3    H260369   4.121   6.064   2.916  0.1800 -0.5410  0.1953
12960TIP3   OH260370   3.533   6.629  12.619  0.3922  0.0445  0.2482
12960TIP3    H160371   3.582   6.699  12.576 -0.2001  0.3870  0.1230
12960TIP3    H260372   3.596   6.590  12.679 -0.2929  3.1001  3.0837
12961TIP3   OH260373   3.810   0.137  17.067 -0.4692  0.0031 -0.4134
12961TIP3    H160374   3.725   0.165  17.033 -1.0494 -1.4074 -0.1813
12961TIP3    H260375   3.792   0.052  17.108  0.6768  0.5657  1.3182
12962TIP3   OH260376   1.374   5.672   4.214  0.1580  0.2758  0.0186
12962TIP3    H160377   1.302   5.671   4.277  0.1405  1.6497  0.0526
12962TIP3    H260378   1.444   5.622   4.256 -0.4569 -0.2807  0.3837
12963TIP3   OH260379   5.295   6.462   4.577  0.3660  0.3620 -0.0508
12963TIP3    H160380   5.219   6.415   4.611  0.0066  0.2946 -0.9184
12963TIP3    H260381   5.370   6.420   4.619 -0.1273  1.1301  1.6233
12964TIP3   OH260382   2.412   0.048  14.375  0.3258  0.7463  0.1090
12964TIP3    H160383   2.353   0.030  14.449  1.9961  0.2381  1.3409
12964TIP3    H260384   2.435   0.140  14.385  0.4925  0.6964  0.1931
12965TIP3   OH260385   5.589   1.979  16.784 -0.1380 -0.1187  0.1290
12965TIP3    H160386   5.494   1.970  16.784 -0.1775  0.1402 -1.4266
12965TIP3    H260387   5.619   1.911  16.724  0.5354  0.8392 -0.6441
12966TIP3   OH260388   0.493   1.741  12.902  0.2815 -0.1406 -0.1434
12966TIP3    H160389   0.405   1.744  12.940  0.1563 -1.5104 -0.2969
12966TIP3    H260390   0.527   1.830  12.913 -1.2954  0.5233 -0.4856
12967TIP3   OH260391   2.467   3.695   6.409  0.1662  0.6838 -0.5408
12967TIP3    H160392   2.375   3.694   6.434 -0.0448  2.9227 -1.1169
12967TIP3    H260393   2.507   3.627   6.463 -1.4676  0.9881  1.1024
12968TIP3   OH260394   4.254   6.771   1.289 -0.1321  0.1525  0.2498
12968TIP3    H160395   4.226   6.707   1.223 -0.8086  0.7071 -0.0109
12968TIP3    H260396   4.267   6.720   1.368 -0.6413 -0.3169  0.0344
12969TIP3   OH260397   1.510   2.681  13.832 -0.1356 -0.0762 -0.0518
12969TIP3    H160398   1.460   2.600  13.847  0.6970 -0.8194 -1.1747
12969TIP3    H260399   1.466   2.722  13.758 -0.6634  0.6052  0.6269
12970TIP3   OH260400   0.627   2.901   5.249 -0.8797 -0.0464  0.3272
12970TIP3    H160401   0.654   2.898   5.157 -1.8889  0.0420  0.0169
12970TIP3    H260402   0.704   2.933   5.296 -0.3277 -0.1831 -0.4770
12971TIP3   OH260403   0.412   3.341  11.738  0.2855 -0.3669 -0.2115
12971TIP3    H160404   0.336   3.394  11.713  0.3090 -0.3395 -0.2263
12971TIP3    H260405   0.379   3.281  11.805 -0.4424 -2.3265 -2.2639
12972TIP3   OH260406   3.470   5.767  14.983 -0.1903 -0.5193  0.3970
12972TIP3    H160407   3.525   5.769  15.062 -0.7292  1.0001  0.7342
12972TIP3    H260408   3.509   5.698  14.929 -0.2048 -2.0352  2.2701
12973TIP3   OH260409   3.190   6.061  16.218 -0.5421 -0.1502 -0.4258
12973TIP3    H160410   3.147   6.080  16.302 -2.0661  0.0344 -1.2236
12973TIP3    H260411   3.183   5.966  16.209 -1.3192 -0.0644 -0.8167
12974TIP3   OH260412   2.237   1.497   2.822  0.5191 -0.1523  0.1759
12974TIP3    H160413   2.298   1.496   2.896  0.2806  0.5195  0.3850
12974TIP3    H260414   2.293   1.508   2.745  0.4976  2.6552  0.5437
12975TIP3   OH260415   2.170   6.135  14.562  0.0683  0.3386  0.3674
12975TIP3    H160416   2.256   6.101  14.536 -1.0174 -2.3966  0.1375
12975TIP3    H260417   2.156   6.210  14.505  1.3373 -0.5791 -1.1984
12976TIP3   OH260418   0.691   1.633   2.704  0.1267 -0.8897  0.0540
12976TIP3    H160419   0.660   1.554   2.748  0.4962 -1.0560  0.0223
12976TIP3    H260420   0.696   1.699   2.772  0.5509 -1.1046  0.2355
12977TIP3   OH260421   0.409   2.693   2.303 -0.2245 -0.3202 -0.2516
12977TIP3    H160422   0.499   2.726   2.305  0.2037 -1.4911  0.4084
12977TIP3    H260423   0.412   2.621   2.239 -1.4269  1.6422 -2.6337
12978TIP3   OH260424   5.746   2.070  10.928 -0.1292 -0.4787 -0.0662
12978TIP3    H160425   5.691   2.005  10.971  1.9740 -1.7817  0.7241
12978TIP3    H260426   5.740   2.051  10.835 -1.6478 -0.0892 -0.0506
12979TIP3   OH260427   3.209   2.737  13.111 -0.1527 -0.3254  0.1900
12979TIP3    H160428   3.148   2.671  13.142 -1.4894  1.2005  0.8646
12979TIP3    H260429   3.262   2.758  13.188  0.5556 -0.8999 -0.1324
12980TIP3   OH260430   3.804   4.090  16.520  0.1032  0.3983  0.1299
12980TIP3    H160431   3.746   4.144  16.573 -0.3554  1.3183 -1.2773
12980TIP3    H260432   3.745   4.030  16.474  0.5581 -0.8832  1.1937
12981TIP3   OH260433   1.187   4.653  16.028  0.0246 -0.2550 -0.2349
12981TIP3    H160434   1.189   4.742  15.992 -1.2811 -0.0101  0.2732
12981TIP3    H260435   1.247   4.603  15.972  1.0772  1.0246 -0.2741
12982TIP3   OH260436   0.268   5.138   3.739  0.2365  0.1563  0.6306
12982TIP3    H160437   0.280   5.074   3.668  1.1492 -0.8211  1.6333
12982TIP3    H260438   0.259   5.084   3.818  0.5597  1.2645  1.4285
12983TIP3   OH260439   2.220   1.023  11.846  0.3655 -0.4798 -0.0463
12983TIP3    H160440   2.251   0.948  11.796 -0.9675 -1.0409 -0.0553
12983TIP3    H260441   2.131   0.999  11.872  0.2882  0.6905  0.7815
12984TIP3   OH260442   5.932   4.521  11.701  0.1716  0.7331  0.2012
12984TIP3    H160443   5.907   4.600  11.655 -0.4235 -0.0299 -0.8067
12984TIP3    H260444   5.964   4.462  11.633  1.4407  0.4138  1.0407
12985TIP3   OH260445   0.171   3.794   5.301  0.4007 -0.4680  0.0504
12985TIP3    H160446   0.104   3.862   5.294 -0.7758 -1.6989 -0.9044
12985TIP3    H260447   0.241   3.823   5.242 -0.0800 -0.0774 -0.3264
12986TIP3   OH260448   0.778   2.812  14.523 -0.5451 -0.1127  0.7706
12986TIP3    H160449   0.809   2.901  14.507 -0.4285 -0.2283  0.3322
12986TIP3    H260450   0.808   2.791  14.612  2.1285 -0.8425 -0.2532
12987TIP3   OH260451   2.224   1.934   1.347  0.3973 -0.0067  0.1302
12987TIP3    H160452   2.268   1.975   1.272  0.2468  0.8316  0.4866
12987TIP3    H260453   2.162   2.001   1.377 -1.6353 -1.4356 -0.8011
12988TIP3   OH260454   3.901   1.257   2.162 -0.6899  0.1520  0.2692
12988TIP3    H160455   3.871   1.247   2.072  3.3037  2.1944 -1.4652
12988TIP3    H260456   3.889   1.350   2.181 -1.1495 -0.1864  1.7227
12989TIP3   OH260457   5.322   0.518  10.496 -0.4171  0.5315 -0.3187
12989TIP3    H160458   5.342   0.587  10.434 -0.1370 -1.6459 -2.7489
12989TIP3    H260459   5.323   0.437  10.444 -1.8440 -1.1905  2.1841
12990TIP3   OH260460   0.290   2.945   5.451 -0.2543  0.1592  0.2262
12990TIP3    H160461   0.378   2.982   5.458 -0.2036 -0.0709  0.8491
12990TIP3    H260462   0.288   2.902   5.366  0.6343 -0.8735  0.7159
12991TIP3   OH260463   3.068   2.160   1.736 -0.3044  0.5384 -0.0221
12991TIP3    H160464   3.065   2.079   1.685  3.3850 -0.1176  0.6812
12991TIP3    H260465   3.085   2.132   1.826 -0.4100  2.0422  0.4904
12992TIP3   OH260466   6.368   3.997   2.041 -0.3166  0.3010  0.0472
12992TIP3    H160467   6.351   4.090   2.058 -1.5719  0.3028 -1.0772
12992TIP3    H260468   6.344   3.952   2.122  2.6801  1.1860  1.4767
12993TIP3   OH260469   3.636   2.457   4.528 -0.2426 -0.9242 -0.2882
12993TIP3    H160470   3.553   2.416   4.500  1.0610 -2.2468 -2.3401
12993TIP3    H260471   3.688   2.384   4.561  0.2058 -0.1093  0.8342
12994TIP3   OH260472   3.421   2.732   3.616 -0.1130 -0.1644 -0.1109
12994TIP3    H160473   3.463   2.789   3.552 -1.7112 -1.1491 -2.1042
12994TIP3    H260474   3.386   2.792   3.682 -0.9251  1.1113 -1.6682
12995TIP3   OH260475   2.384   2.871  14.778  0.5180 -0.0968 -0.4836
12995TIP3    H160476   2.430   2.926  14.840  1.5272 -0.0221 -1.2887
12995TIP3    H260477   2.384   2.921  14.696  1.2250 -1.1632 -1.1571
12996TIP3   OH260478   3.021   5.348   0.583 -0.4186  0.3968  0.1942
12996TIP3    H160479   2.965   5.281   0.546 -0.2595  0.5756 -0.3807
12996TIP3    H260480   3.109   5.324   0.554 -0.2860  0.4916  0.5230
12997TIP3   OH260481   1.876   1.691  11.677  0.6889 -0.4594 -0.3361
12997TIP3    H160482   1.857   1.766  11.620 -0.1161 -0.9871 -0.7620
12997TIP3    H260483   1.952   1.719  11.728  1.4610  0.0017 -1.7069
12998TIP3   OH260484   2.210   3.696  16.950  0.1670  0.3660  0.0946
12998TIP3    H160485   2.180   3.610  16.979  1.1503  0.4334  1.3498
12998TIP3    H260486   2.257   3.679  16.869  0.0209 -0.2243  0.1310
12999TIP3   OH260487   4.178   1.037   0.158  0.3147 -0.1338 -0.2767
12999TIP3    H160488   4.210   0.951   0.131  2.1950 -0.0249  1.4597
12999TIP3    H260489   4.256   1.082   0.191 -0.8739  1.7768 -0.0001
13000TIP3   OH260490   4.979   1.318   4.520 -0.2947  0.6038  0.2251
13000TIP3    H160491   5.035   1.396   4.515 -0.1103  0.4372 -0.3629
13000TIP3    H260492   5.007   1.273   4.599  2.2587 -0.8833 -1.4336
13001TIP3   OH260493   6.078   4.256  16.826  0.1884 -0.0692  0.5098
13001TIP3    H160494   6.151   4.213  16.870 -0.7840 -0.5598  1.6724
13001TIP3    H260495   6.050   4.324  16.887 -0.0680  0.3854 -0.1081
13002TIP3   OH260496   2.800   5.875  13.666  0.4831 -0.1251 -0.1425
13002TIP3    H160497   2.780   5.968  13.670  0.9339 -0.0865  1.6693
13002TIP3    H260498   2.862   5.861  13.737 -1.3572 -2.2175  1.1383
13003TIP3   OH260499   4.786   2.658  15.073  0.4089  0.0490 -0.7690
13003TIP3    H160500   4.868   2.610  15.075 -0.1289 -0.8935 -0.7311
13003TIP3    H260501   4.809   2.748  15.094  1.5333 -0.0589 -1.5405
13004TIP3   OH260502   3.898   6.620  15.070  0.3240  0.2326 -0.5652
13004TIP3    H160503   3.925   6.603  14.980 -1.7650  0.8002 -1.3401
13004TIP3    H260504   3.957   6.568  15.124  0.7344 -1.1756 -2.3402
13005TIP3   OH260505   1.737   0.112  11.245 -0.6308 -0.5173  0.0572
13005TIP3    H160506   1.645   0.086  11.234 -0.9300  0.4977  0.0667
13005TIP3    H260507   1.750   0.180  11.180 -0.0762 -0.1769  0.5223
13006TIP3   OH260508   6.673   3.674   6.087 -0.6844 -0.2274  0.7932
13006TIP3    H160509   6.629   3.659   6.170 -0.8761 -0.2252  0.6912
13006TIP3    H260510   6.669   3.769   6.074 -1.8668 -0.3614  0.1101
13007TIP3   OH260511   2.444   1.389   5.206 -0.5210 -0.0912 -0.1743
13007TIP3    H160512   2.358   1.377   5.166 -0.3956 -1.8419  0.0360
13007TIP3    H260513   2.492   1.309   5.185  0.4489  0.1059  1.2189
13008TIP3   OH260514   3.757   3.783   0.100  0.1067  0.3277  0.0297
13008TIP3    H160515   3.698   3.858   0.092  0.2411  0.3916 -0.3630
13008TIP3    H260516   3.741   3.730   0.022  2.3171  1.6148 -1.3723
13009TIP3   OH260517   1.198   3.144   4.172  0.2442 -0.0864 -0.4877
13009TIP3    H160518   1.143   3.178   4.102  1.2089 -0.8899 -1.6494
13009TIP3    H260519   1.143   3.080   4.217 -0.3847  0.4462 -0.4891
13010TIP3   OH260520   0.827   0.391  11.557 -0.9742  0.7154 -0.2650
13010TIP3    H160521   0.922   0.380  11.562 -0.9940  0.7670  0.2775
13010TIP3    H260522   0.802   0.348  11.475 -0.7927 -1.3652  0.7410
13011TIP3   OH260523   1.432   4.310   6.142 -0.1474  0.2786 -0.2845
13011TIP3    H160524   1.487   4.254   6.196 -1.9678 -1.5663 -0.2459
13011TIP3    H260525   1.417   4.389   6.195  0.4164 -0.2858  0.7143
13012TIP3   OH260526   0.040   3.769  12.542 -0.4771  0.0177 -0.0238
13012TIP3    H160527   0.045   3.861  12.517 -0.0850  0.4272  1.5228
13012TIP3    H260528  -0.050   3.757  12.571 -1.0112 -0.5280 -1.8110
13013TIP3   OH260529   6.231   3.973   2.638  0.1064  0.4192 -0.6137
13013TIP3    H160530   6.253   4.013   2.722  0.9835  2.5102 -1.8085
13013TIP3    H260531   6.137   3.954   2.644 -0.4238  3.0779 -0.1871
13014TIP3   OH260532   2.177   2.739   2.440  0.4054 -0.5842 -0.2115
13014TIP3    H160533   2.200   2.646   2.437 -1.3274 -1.0125 -0.7360
13014TIP3    H260534   2.229   2.779   2.370  1.1552 -1.1501  0.0191
13015TIP3   OH260535   1.523   5.324   3.530  0.2554 -0.0514 -0.5269
13015TIP3    H160536   1.535   5.357   3.441 -3.3249  1.8416 -0.3931
13015TIP3    H260537   1.525   5.402   3.585 -0.5818 -0.8648  0.6935
13016TIP3   OH260538   2.443   3.636  16.779  0.4975  0.0200 -0.3410
13016TIP3    H160539   2.458   3.542  16.793 -0.5549  0.1247  1.8462
13016TIP3    H260540   2.496   3.659  16.703  1.5338 -2.1452 -0.2939
13017TIP3   OH260541   1.487   6.513  12.380  0.1074  0.0869  0.4724
13017TIP3    H160542   1.463   6.482  12.293 -1.5380 -0.1054  0.9749
13017TIP3    H260543   1.574   6.478  12.395  1.3226  1.9159 -1.9784
13018TIP3   OH260544   1.773   5.491  13.426  0.3243  0.5475  0.2880
13018TIP3    H160545   1.793   5.409  13.470 -2.1156 -0.1527  0.1573
13018TIP3    H260546   1.753   5.552  13.497 -1.1280  0.1027  0.2778
13019TIP3   OH260547   6.338   5.039   4.133 -0.3860  0.1454 -0.6841
13019TIP3    H160548   6.284   4.970   4.172  1.1871 -0.2741  0.8164
13019TIP3    H260549   6.282   5.079   4.067 -2.5075 -0.3158  0.8006
13020TIP3   OH260550   0.447   3.156   1.617 -0.4316  0.1192 -0.0413
13020TIP3    H160551   0.393   3.175   1.694  0.2100 -1.0482  0.7099
13020TIP3    H260552   0.394   3.096   1.565 -0.5669  0.3318 -0.1478
13021TIP3   OH260553   1.552   6.745   3.034  0.3354  0.2452 -0.2353
13021TIP3    H160554   1.542   6.741   2.938 -0.6054 -0.6893 -0.1052
13021TIP3    H260555   1.507   6.667   3.066  0.0213  0.9345  1.0237
13022TIP3   OH260556   0.265   2.764  16.151  0.1291 -0.1624  0.2240
13022TIP3    H160557   0.200   2.700  16.122  0.3517 -0.4032  0.2518
13022TIP3    H260558   0.214   2.841  16.176 -0.1106 -0.1858 -0.1914
13023TIP3   OH260559   4.136   3.100  14.381  0.4885  0.2428  0.1204
13023TIP3    H160560   4.197   3.170  14.361  0.7481  0.3432  1.2077
13023TIP3    H260561   4.185   3.019  14.363  0.9936  0.3211  1.1182
13024TIP3   OH260562   6.530   3.435  12.322  0.2898  0.2656  0.2764
13024TIP3    H160563   6.554   3.527  12.316 -3.4936  1.1697 -2.3116
13024TIP3    H260564   6.454   3.433  12.380  0.3424 -1.2615  0.3264
13025TIP3   OH260565   5.894   6.068  15.416  0.6864 -0.9760  0.7437
13025TIP3    H160566   5.842   6.147  15.401  0.1595 -1.2234  1.2876
13025TIP3    H260567   5.836   5.995  15.394  1.0640 -1.2292  0.5632
13026TIP3   OH260568   5.443   1.565  11.431  0.2636 -0.4116 -0.0316
13026TIP3    H160569   5.524   1.516  11.416  0.2551 -0.4960  0.1828
13026TIP3    H260570   5.419   1.543  11.522 -0.3852 -0.9548 -0.3268
13027TIP3   OH260571   4.834   3.169  16.542  0.1257 -0.0889  0.7006
13027TIP3    H160572   4.914   3.218  16.524 -0.0361  0.0611  0.3790
13027TIP3    H260573   4.847   3.132  16.629  1.5656 -2.1069 -0.3375
13028TIP3   OH260574   4.333   4.609   1.370  0.3181 -0.3683 -0.3499
13028TIP3    H160575   4.364   4.692   1.407 -0.5280 -0.1238 -0.1865
13028TIP3    H260576   4.406   4.578   1.317  1.2076 -0.2616  0.7922
13029TIP3   OH260577   1.831   4.455  15.677  0.0013  0.4480  0.1021
13029TIP3    H160578   1.830   4.503  15.759 -1.8129 -0.5286  0.6978
13029TIP3    H260579   1.792   4.515  15.613 -0.9438  0.3150  0.5359
13030TIP3   OH260580   5.638   6.719   2.637 -0.4474 -0.1821  0.0578
13030TIP3    H160581   5.691   6.682   2.708 -0.6082  1.2323  0.9401
13030TIP3    H260582   5.581   6.647   2.609  1.0579 -1.3452 -0.0422
13031TIP3   OH260583   3.170   2.819  12.013 -0.5944 -0.2469 -0.7941
13031TIP3    H160584   3.103   2.797  12.078  1.0977  0.4777  1.2390
13031TIP3    H260585   3.248   2.771  12.040  0.5018  1.0510 -1.5374
13032TIP3   OH260586   3.658   4.816  13.131 -0.9103  0.1850  0.4464
13032TIP3    H160587   3.707   4.779  13.058  0.1937 -0.5555  1.5397
13032TIP3    H260588   3.586   4.863  13.090  1.0183  1.7616 -1.2317
13033TIP3   OH260589   2.933   1.891  13.530  0.4299  0.6926  0.3332
13033TIP3    H160590   2.845   1.900  13.492  0.7661 -0.3190 -0.7291
13033TIP3    H260591   2.989   1.941  13.470  0.6156  1.2089  0.9292
13034TIP3   OH260592   5.323   3.646   4.177 -0.2773  0.0234 -0.6699
13034TIP3    H160593   5.282   3.560   4.178 -0.6739  0.1876 -1.9922
13034TIP3    H260594   5.251   3.707   4.191  0.1219  0.1113  1.1156
13035TIP3   OH260595   2.661   3.511  11.700  0.6249 -0.2898  0.5506
13035TIP3    H160596   2.608   3.448  11.749 -1.0580  0.4550 -0.2510
13035TIP3    H260597   2.722   3.458  11.650 -0.4680 -1.2812  0.2472
13036TIP3   OH260598   6.518   3.839  11.049  0.2307 -0.0121 -0.0351
13036TIP3    H160599   6.460   3.767  11.023 -1.2095  0.7245  1.0611
13036TIP3    H260600   6.462   3.917  11.045  1.6047  0.9476 -0.5962
13037TIP3   OH260601   2.286   0.180   1.147 -0.7887  0.6031  0.5441
13037TIP3    H160602   2.373   0.141   1.161 -1.0810  0.0205  0.7327
13037TIP3    H260603   2.303   0.253   1.087 -0.6417 -1.5957 -2.2330
13038TIP3   OH260604   5.494   1.868   1.413  0.0297 -0.2260 -0.7997
13038TIP3    H160605   5.530   1.786   1.379 -0.6162 -1.7413  2.0835
13038TIP3    H260606   5.571   1.920   1.436  0.4249 -1.2659  0.2503
13039TIP3   OH260607   6.300   5.963  15.668 -0.0322  0.4785 -0.0183
13039TIP3    H160608   6.382   5.990  15.711  0.7181 -2.5535  0.5836
13039TIP3    H260609   6.254   5.912  15.735 -1.1927 -0.0619 -1.2176
13040TIP3   OH260610   2.804   4.881  16.558  0.7784 -0.0320  0.7743
13040TIP3    H160611   2.822   4.811  16.496  0.0764 -0.0891  0.6328
13040TIP3    H260612   2.786   4.958  16.504  1.7743  0.3257  0.9340
13041TIP3   OH260613   2.102   2.051  10.780  0.0167  0.0500  0.1975
13041TIP3    H160614   2.101   1.970  10.832 -0.1222 -0.3651 -0.4436
13041TIP3    H260615   2.014   2.057  10.743  0.9260 -1.1522 -2.2623
13042TIP3   OH260616   4.616   1.611  13.245  0.0796  0.1010 -0.2922
13042TIP3    H160617   4.586   1.695  13.210  0.6069  0.1441 -0.6474
13042TIP3    H260618   4.711   1.618  13.245  0.1263 -0.5285 -0.3799
13043TIP3   OH260619   2.461   1.431   4.567  0.0296 -0.5850 -0.1527
13043TIP3    H160620   2.380   1.391   4.536  0.3216 -0.7764 -0.6841
13043TIP3    H260621   2.499   1.365   4.626 -0.7370 -0.0444  0.9549
13044TIP3   OH260622   3.289   0.943   4.348 -0.3245 -0.6826 -0.4134
13044TIP3    H160623   3.365   0.925   4.403 -1.7839 -1.1770  1.4997
13044TIP3    H260624   3.277   0.863   4.297 -0.6803 -1.3541  0.6875
13045TIP3   OH260625   4.542   6.660  13.986  0.2435  0.0464 -0.3808
13045TIP3    H160626   4.615   6.721  13.976 -0.3537  0.8053 -0.1686
13045TIP3    H260627   4.516   6.639  13.896  1.9707 -1.7583 -0.4836
13046TIP3   OH260628   5.392   0.722   5.503 -0.1545  0.1043  0.8232
13046TIP3    H160629   5.369   0.635   5.535  0.4882  0.0730  1.1973
13046TIP3    H260630   5.460   0.706   5.437  0.0375  0.3339  0.9669
13047TIP3   OH260631   2.767   4.072   3.677  0.4781 -0.0507  0.0720
13047TIP3    H160632   2.739   4.050   3.588  0.3566 -0.3782  0.1928
13047TIP3    H260633   2.819   3.997   3.705  0.0760 -0.1728  0.4759
13048TIP3   OH260634   2.928   3.646  12.658 -0.1034 -0.0567 -0.0303
13048TIP3    H160635   2.859   3.583  12.676  1.1040 -1.1686  0.7650
13048TIP3    H260636   2.910   3.719  12.718  0.1321 -0.8843  1.0555
13049TIP3   OH260637   2.491   1.078  17.072  0.1329 -0.2817  0.5816
13049TIP3    H160638   2.417   1.127  17.107  1.8951  2.2094  0.8895
13049TIP3    H260639   2.498   1.002  17.129 -0.7220  0.6621  1.9709
13050TIP3   OH260640   4.079   6.025   4.286  0.3174 -0.1163  0.1270
13050TIP3    H160641   4.072   5.973   4.366 -0.5959 -1.7573 -0.9909
13050TIP3    H260642   4.081   5.960   4.216  1.4508  1.2855 -1.1762
13051TIP3   OH260643   3.689   4.685  15.393  0.3216  0.8855  0.0085
13051TIP3    H160644   3.753   4.652  15.330  0.6193 -0.5002  1.0251
13051TIP3    H260645   3.692   4.780  15.382  1.2067  0.7237 -1.2531
13052TIP3   OH260646   1.789   4.530   1.731 -0.3738  0.2983  0.2253
13052TIP3    H160647   1.880   4.502   1.742 -0.9320 -1.0925  1.4319
13052TIP3    H260648   1.792   4.625   1.741  1.2308  0.4996 -1.7777
13053TIP3   OH260649   0.415   3.928   1.348 -0.1238  0.4332 -0.0899
13053TIP3    H160650   0.458   3.892   1.425  0.0846 -0.3500 -0.5736
13053TIP3    H260651   0.419   4.023   1.361 -2.8319  0.2853  2.3611
13054TIP3   OH260652   1.069   1.166   4.936 -0.1495 -0.0211 -0.0415
13054TIP3    H160653   0.977   1.160   4.910 -0.0503 -1.4459 -0.0894
13054TIP3    H260654   1.068   1.215   5.018 -0.7804  1.4680 -0.9029
13055TIP3   OH260655   1.294   2.332   0.647 -0.3550 -0.6170  0.2090
13055TIP3    H160656   1.302   2.425   0.668 -2.8095 -1.0632  3.4488
13055TIP3    H260657   1.203   2.321   0.619  0.0550 -1.9972 -0.6483
13056TIP3   OH260658   6.698   4.462   6.132  0.3936  0.2434 -0.1593
13056TIP3    H160659   6.687   4.369   6.114  1.7440  0.1820 -0.7229
13056TIP3    H260660   6.767   4.466   6.199  1.1569  0.8784 -0.9635
13057TIP3   OH260661   5.092   3.041  12.505  0.8107 -0.5869  0.9711
13057TIP3    H160662   5.086   2.945  12.507  0.4347 -0.6244 -1.4455
13057TIP3    H260663   5.186   3.059  12.505  0.9054 -1.0305 -1.0565
13058TIP3   OH260664   4.947   4.422  15.397 -0.1874  0.6228  0.3759
13058TIP3    H160665   4.870   4.367  15.416  1.1017 -0.7965  1.5640
13058TIP3    H260666   4.994   4.374  15.329  0.4435  0.7114  0.7448
13059TIP3   OH260667   5.097   1.282   0.273 -0.3264  0.1217 -0.3224
13059TIP3    H160668   5.043   1.239   0.339  0.2675 -0.1083  0.0222
13059TIP3    H260669   5.035   1.311   0.205 -0.6935 -1.4497 -0.6600
13060TIP3   OH260670   3.264   2.654   1.059 -0.0359  0.5159  0.7518
13060TIP3    H160671   3.322   2.580   1.041 -0.6487  0.1955  0.0259
13060TIP3    H260672   3.274   2.711   0.982 -0.0202  0.8895  1.0307
13061TIP3   OH260673   2.976   4.895   2.475  0.1114  0.4123  0.2745
13061TIP3    H160674   2.898   4.902   2.530  0.6875  0.0376  1.1501
13061TIP3    H260675   3.032   4.832   2.521 -0.4905 -1.9048 -2.0309
13062TIP3   OH260676   2.829   1.819  11.674  0.1237  0.3275  0.1172
13062TIP3    H160677   2.861   1.747  11.729 -0.1340  0.5463  0.5555
13062TIP3    H260678   2.852   1.792  11.585  0.7129  0.0555  0.3419
13063TIP3   OH260679   1.123   1.586  15.309  0.4094  0.1068 -0.2198
13063TIP3    H160680   1.147   1.554  15.223  0.1870 -0.7781  0.0346
13063TIP3    H260681   1.200   1.632  15.341  1.3454 -1.6689  0.1063
13064TIP3   OH260682   5.292   3.961  14.216 -0.0703 -0.5334  0.1233
13064TIP3    H160683   5.331   4.048  14.203 -0.6584 -0.3297 -0.3213
13064TIP3    H260684   5.367   3.902  14.217  0.3885  0.0487  1.1092
13065TIP3   OH260685   0.020   5.231   5.532  0.0603 -0.0063 -0.4049
13065TIP3    H160686   0.114   5.212   5.531 -0.0386 -0.5024 -1.4231
13065TIP3    H260687  -0.016   5.171   5.597  0.3106 -0.5162 -0.7336
13066TIP3   OH260688   3.650   3.842  15.281 -0.1476 -0.4092 -0.0208
13066TIP3    H160689   3.706   3.768  15.306  0.3835 -0.5352 -1.5811
13066TIP3    H260690   3.710   3.915  15.271 -0.6145  0.1248  0.9988
13067TIP3   OH260691   2.878   3.068  14.834  0.0374  0.4715  0.2994
13067TIP3    H160692   2.907   3.130  14.767 -0.9858  1.3085  0.6046
13067TIP3    H260693   2.923   3.095  14.914  1.0775 -0.3826  0.0136
13068TIP3   OH260694   5.758   4.364  15.008  0.0122  0.0906 -0.2864
13068TIP3    H160695   5.692   4.315  15.057 -0.6969  2.1261  0.8477
13068TIP3    H260696   5.708   4.431  14.961  0.8315 -1.0018 -2.7731
13069TIP3   OH260697   5.933   5.176   2.042  0.1574 -0.1154 -0.7038
13069TIP3    H160698   5.916   5.096   2.090 -0.2592 -1.6256 -3.2594
13069TIP3    H260699   5.861   5.181   1.978 -0.3892  2.8187  0.0436
13070TIP3   OH260700   0.831   2.332  13.804  0.5289 -0.0034 -0.0261
13070TIP3    H160701   0.764   2.302  13.866  0.1829  0.4884 -0.1566
13070TIP3    H260702   0.864   2.413  13.843 -0.9919  1.3122 -1.3757
13071TIP3   OH260703   5.520   2.216   5.618  0.0670  0.4644  0.0636
13071TIP3    H160704   5.506   2.204   5.712  0.3837  0.3383  0.0924
13071TIP3    H260705   5.558   2.134   5.589 -1.1588  0.0454 -0.3983
13072TIP3   OH260706   5.096   1.828   4.681  0.1169 -0.3922  0.1230
13072TIP3    H160707   5.172   1.790   4.636  0.1291 -0.2787  0.0471
13072TIP3    H260708   5.133   1.866   4.761  0.0898 -0.6281  0.2484
13073TIP3   OH260709   0.654   6.653  10.992 -0.1869  0.7327  0.4287
13073TIP3    H160710   0.599   6.664  11.069 -1.6585 -0.5947 -0.3934
13073TIP3    H260711   0.679   6.742  10.966 -1.9102  1.3441  0.8478
13074TIP3   OH260712   2.289   0.616  13.318 -0.7137  0.3047 -0.8793
13074TIP3    H160713   2.212   0.633  13.372 -0.3337  3.3820 -1.2063
13074TIP3    H260714   2.301   0.697  13.268  0.8938 -1.2813 -3.1260
13075TIP3   OH260715   4.175   2.297   2.958 -0.5326  0.5389  0.3779
13075TIP3    H160716   4.230   2.218   2.955 -0.0724  0.7353  3.0342
13075TIP3    H260717   4.141   2.305   2.869  2.3215 -0.6034 -0.8771
13076TIP3   OH260718   5.190   1.811   3.281  0.5782  0.0763  0.4690
13076TIP3    H160719   5.223   1.740   3.336  0.3889 -0.3962 -0.0228
13076TIP3    H260720   5.263   1.873   3.276  0.8504 -0.2254  0.6540
13077TIP3   OH260721   4.510   6.240  11.490 -0.0256  0.2229  0.0658
13077TIP3    H160722   4.546   6.160  11.527 -2.2320 -0.2601  1.2257
13077TIP3    H260723   4.500   6.299  11.565 -0.5529  0.7572 -0.4177
13078TIP3   OH260724   0.130   2.542  16.103 -0.0317  0.7876 -0.1852
13078TIP3    H160725   0.186   2.492  16.163  0.1059  2.5595  1.2211
13078TIP3    H260726   0.095   2.477  16.043  2.2397 -0.6012 -0.0591
13079TIP3   OH260727   1.324   5.698   3.847  0.5222 -0.6214  0.2213
13079TIP3    H160728   1.291   5.758   3.914 -0.4932 -0.2912 -0.5610
13079TIP3    H260729   1.398   5.744   3.808 -0.4097  0.2407 -0.5482
13080TIP3   OH260730   0.971   4.752   2.409  0.1861 -0.0448 -0.0185
13080TIP3    H160731   0.941   4.835   2.373  1.0741  0.2210 -0.1431
13080TIP3    H260732   0.959   4.760   2.503  1.9817  0.9146  0.1376
13081TIP3   OH260733   6.394   5.848  11.148  0.3899 -0.5051 -0.3248
13081TIP3    H160734   6.451   5.779  11.181  1.6844  1.5303  1.9068
13081TIP3    H260735   6.305   5.816  11.163  0.9560 -2.0675 -0.2453
13082TIP3   OH260736   0.062   1.342  13.927  0.2975 -0.0765 -0.4146
13082TIP3    H160737  -0.019   1.349  13.979  0.0415 -0.9418 -0.6880
13082TIP3    H260738   0.115   1.415  13.956 -0.3905  0.2153  0.1272
13083TIP3   OH260739   3.955   6.372   3.752  0.2795 -0.6075  0.3557
13083TIP3    H160740   4.007   6.331   3.683 -0.7107  0.2425 -0.9001
13083TIP3    H260741   3.865   6.347   3.734 -0.0439 -0.0038  1.0642
13084TIP3   OH260742   4.012   2.486  16.555  0.2022 -0.5018 -0.3194
13084TIP3    H160743   3.964   2.431  16.493 -0.4695 -0.9487  0.5941
13084TIP3    H260744   3.967   2.474  16.638  0.0584  1.4228 -0.0948
13085TIP3   OH260745   5.537   3.923   3.572 -0.3524  0.1417  0.0896
13085TIP3    H160746   5.595   3.881   3.509  1.5240  0.8958  1.2728
13085TIP3    H260747   5.552   4.017   3.559 -0.1834  0.3051  1.4540
13086TIP3   OH260748   5.936   2.515  10.381 -0.0033  0.1842  0.1293
13086TIP3    H160749   5.996   2.514  10.455 -0.3765 -1.0142  0.4249
13086TIP3    H260750   5.942   2.604  10.346  1.0255  0.4200  0.8942
13087TIP3   OH260751   5.075   2.635  11.504  0.4607 -0.1725 -0.6108
13087TIP3    H160752   5.116   2.551  11.524  0.6743  0.1696  0.4577
13087TIP3    H260753   5.141   2.682  11.452  0.4393 -0.5721 -0.9954
13088TIP3   OH260754   3.632   5.831  13.521 -0.5144 -0.1766  0.4952
13088TIP3    H160755   3.574   5.890  13.473 -0.7638  0.0128  1.0179
13088TIP3    H260756   3.612   5.848  13.613 -0.7816 -1.2705  0.6473
13089TIP3   OH260757   1.672   1.310  13.739 -0.3494  0.3214  0.6632
13089TIP3    H160758   1.735   1.240  13.756 -2.5572 -1.4944  1.6726
13089TIP3    H260759   1.725   1.386  13.719  2.1883 -0.7385  3.0897
13090TIP3   OH260760   0.122   2.376  13.734  0.5214  0.0050  0.1221
13090TIP3    H160761   0.152   2.361  13.644  1.2225 -0.3766  0.4093
13090TIP3    H260762   0.042   2.428  13.725 -0.8454 -2.1823 -0.8461
13091TIP3   OH260763   2.558   2.659   0.004  0.0453  0.1592 -0.3884
13091TIP3    H160764   2.595   2.611   0.078 -0.7429 -0.5730 -0.4604
13091TIP3    H260765   2.551   2.749   0.035  0.6248  0.0438  0.0899
13092TIP3   OH260766   1.621   5.028   3.557  0.1747  0.3467 -0.1136
13092TIP3    H160767   1.675   5.038   3.479 -1.8918 -0.6877 -1.7248
13092TIP3    H260768   1.553   5.095   3.549  0.8942  1.3090  1.6274
13093TIP3   OH260769   2.272   5.587   2.169  0.2621 -0.5384  0.7654
13093TIP3    H160770   2.288   5.543   2.085 -1.1725  0.5837 -0.1316
13093TIP3    H260771   2.346   5.646   2.181  0.0379 -0.0637 -0.1533
13094TIP3   OH260772   4.419   3.075  11.596 -0.0388  0.3776 -0.9145
13094TIP3    H160773   4.427   3.142  11.664 -2.6198  0.9950 -1.1614
13094TIP3    H260774   4.471   3.001  11.629  1.3817  1.8244  0.1876
13095TIP3   OH260775   4.231   2.360   1.708 -0.5073  0.1088 -0.1150
13095TIP3    H160776   4.314   2.395   1.741  0.0074 -1.0857 -0.0847
13095TIP3    H260777   4.181   2.338   1.787  0.1205 -1.3674 -0.1103
13096TIP3   OH260778   6.492   6.485  11.598 -0.1353  0.4624 -0.3534
13096TIP3    H160779   6.484   6.523  11.686 -0.5407 -1.6450  0.5630
13096TIP3    H260780   6.552   6.543  11.552  1.7457  0.4539  1.9903
13097TIP3   OH260781   5.195   6.343   1.069 -0.3077  0.3494 -0.2956
13097TIP3    H160782   5.222   6.402   1.139  0.7199  1.4661 -1.6228
13097TIP3    H260783   5.105   6.319   1.092  0.2204  0.1962  1.7326
13098TIP3   OH260784   4.818   2.977  16.217  0.2881  0.0184  0.2545
13098TIP3    H160785   4.772   2.929  16.148 -0.7910 -0.0668  1.0107
13098TIP3    H260786   4.883   2.915  16.250 -0.7040 -0.7553  0.8222
13099TIP3   OH260787   4.528   2.369  12.430 -0.4632 -0.7909  0.3999
13099TIP3    H160788   4.557   2.359  12.520 -1.8407 -2.1767  0.7279
13099TIP3    H260789   4.584   2.309  12.380  0.7912  0.5206  0.2063
13100TIP3   OH260790   3.827   6.656  11.822  0.0349  0.2310  0.4419
13100TIP3    H160791   3.734   6.674  11.833  0.0638  0.5449  0.1678
13100TIP3    H260792   3.831   6.583  11.761 -0.0336  0.1565  0.5274
13101TIP3   OH260793   0.332   1.860   1.593 -0.4527  0.3229  0.6702
13101TIP3    H160794   0.288   1.838   1.676 -0.1617 -0.8750  0.5165
13101TIP3    H260795   0.269   1.915   1.546 -0.7680  0.7083  1.5283
13102TIP3   OH260796   3.112   0.728  13.580  0.0114 -0.0417 -0.3212
13102TIP3    H160797   3.163   0.693  13.507  2.6271 -0.2685  1.5404
13102TIP3    H260798   3.051   0.658  13.602 -0.0464 -0.3933 -1.5959
13103TIP3   OH260799   4.280   3.864  13.178  0.6249  0.9846  0.1305
13103TIP3    H160800   4.197   3.890  13.137  0.4879  0.6824  0.2148
13103TIP3    H260801   4.295   3.929  13.246 -1.3189 -0.9089  2.4505
13104TIP3   OH260802   6.738   5.840   6.380 -0.0200  0.6406 -0.0290
13104TIP3    H160803   6.647   5.854   6.354  0.0784  0.8568 -0.2613
13104TIP3    H260804   6.753   5.746   6.366  0.0286  0.7525 -0.7387
13105TIP3   OH260805   0.302   6.056  12.154 -0.4119 -0.1215  0.1078
13105TIP3    H160806   0.381   6.104  12.179 -0.9699  1.1899 -0.5698
13105TIP3    H260807   0.322   5.965  12.174  1.5144  0.0967 -0.6456
13106TIP3   OH260808   1.580   2.965   5.727  0.4519  0.2151 -0.0994
13106TIP3    H160809   1.494   2.922   5.731  0.6452 -0.3778 -1.7775
13106TIP3    H260810   1.562   3.055   5.752 -0.9720  0.4983 -1.9908
13107TIP3   OH260811   1.667   6.200  13.970  0.6225 -0.1029  0.0345
13107TIP3    H160812   1.731   6.218  13.901 -1.1541  1.2002 -1.2992
13107TIP3    H260813   1.610   6.276  13.971 -1.2484 -1.4780  0.8663
13108TIP3   OH260814   2.469   2.026   2.819  1.0867 -0.3944  0.1573
13108TIP3    H160815   2.515   2.019   2.735 -1.6491 -1.4070 -1.3457
13108TIP3    H260816   2.486   2.115   2.848  2.7328 -0.2714 -1.0850
13109TIP3   OH260817   6.171   6.069  12.992  0.5038 -0.0485 -0.2760
13109TIP3    H160818   6.135   6.039  12.909 -1.0713  2.0569 -0.3793
13109TIP3    H260819   6.242   6.129  12.967  0.9115 -0.4537 -0.0925
13110TIP3   OH260820   0.255   1.275   5.488 -0.3910 -0.0848  0.3073
13110TIP3    H160821   0.281   1.361   5.455 -1.5829  0.0400 -0.3198
13110TIP3    H260822   0.276   1.278   5.581  0.0979  0.6856  0.1777
13111TIP3   OH260823   3.098   2.737   1.598 -0.6850 -0.1385 -0.0136
13111TIP3    H160824   3.064   2.704   1.515  0.3663 -2.8720  0.5791
13111TIP3    H260825   3.148   2.663   1.635 -0.0637  1.4293  2.4349
13112TIP3   OH260826   3.659   5.167  12.832  0.0135 -0.0910 -0.0215
13112TIP3    H160827   3.595   5.160  12.903 -0.0469 -0.6870 -0.1315
13112TIP3    H260828   3.725   5.227  12.865  0.5437 -1.1991  0.9697
13113TIP3   OH260829   3.969   0.546  13.284  0.5848 -0.3531 -0.8266
13113TIP3    H160830   3.909   0.620  13.294  0.6051 -0.4986  0.4813
13113TIP3    H260831   4.056   0.585  13.280  0.7585 -0.4006  1.8124
13114TIP3   OH260832   6.239   5.170   1.941 -0.5874  0.1616  0.5455
13114TIP3    H160833   6.154   5.212   1.924 -0.6756 -0.5162 -0.7598
13114TIP3    H260834   6.230   5.083   1.903  0.0047 -0.6318  2.1773
13115TIP3   OH260835   1.260   6.619   1.660 -0.3754  0.2695  0.1111
13115TIP3    H160836   1.348   6.608   1.694 -0.1109  0.5733 -0.4558
13115TIP3    H260837   1.259   6.566   1.580 -1.7543 -2.4354  1.8426
13116TIP3   OH260838   5.687   0.269   1.581  0.3353  0.0284 -0.4702
13116TIP3    H160839   5.764   0.240   1.630 -0.3151 -1.5830 -0.3728
13116TIP3    H260840   5.650   0.340   1.634  1.1724  0.1281 -0.0066
13117TIP3   OH260841   2.422   4.740  12.094  0.1424 -0.4820 -0.0475
13117TIP3    H160842   2.409   4.835  12.097  2.0090 -0.1995 -0.4612
13117TIP3    H260843   2.489   4.722  12.159  1.9973 -1.1054 -2.0701
13118TIP3   OH260844   3.101   1.402   4.464 -0.0338 -0.3296  0.0601
13118TIP3    H160845   3.052   1.344   4.406 -0.2529  1.7929 -1.9221
13118TIP3    H260846   3.137   1.344   4.531 -3.7924 -2.1856  0.5997
13119TIP3   OH260847   3.693   6.702  13.208 -0.3914  0.1460 -0.0016
13119TIP3    H160848   3.785   6.680  13.194 -0.3119  0.1777  0.4438
13119TIP3    H260849   3.673   6.667  13.295 -0.7112  0.4230  0.0382
13120TIP3   OH260850   2.061   1.612   6.010  0.8300  0.4729 -0.0626
13120TIP3    H160851   1.985   1.583   6.060  0.7255 -0.8378 -0.9448
13120TIP3    H260852   2.124   1.642   6.075  0.0091  0.4543  0.7364
13121TIP3   OH260853   3.163   3.333  11.294 -0.3199 -0.0252  0.4542
13121TIP3    H160854   3.149   3.397  11.224  0.8121 -0.6705 -0.4034
13121TIP3    H260855   3.233   3.371  11.347  0.0521 -0.3406  0.1953
13122TIP3   OH260856   1.061   4.742   5.524 -0.5437  0.1079  0.1192
13122TIP3    H160857   1.001   4.811   5.496 -0.9323 -0.2622  0.0147
13122TIP3    H260858   1.133   4.787   5.567  0.1957  0.7198 -1.7089
13123TIP3   OH260859   0.124   5.128   4.375  0.4933  0.3302  0.2873
13123TIP3    H160860   0.215   5.144   4.351 -0.0828  5.0022  0.7787
13123TIP3    H260861   0.073   5.185   4.317 -2.2941 -3.3837 -1.0827
13124TIP3   OH260862   6.250   6.578   6.765  0.4873 -0.6575  0.0534
13124TIP3    H160863   6.336   6.541   6.784  1.0461  0.2169 -0.7474
13124TIP3    H260864   6.239   6.567   6.671  0.1840  0.1796 -0.0167
13125TIP3   OH260865   6.298   4.649  14.010  0.0853  0.2548 -0.2481
13125TIP3    H160866   6.357   4.715  13.975 -1.0829  1.6045  0.2840
13125TIP3    H260867   6.258   4.691  14.087  0.5987 -1.6679  1.1247
13126TIP3   OH260868   4.663   5.476   3.555 -0.2844  0.0959 -0.0859
13126TIP3    H160869   4.636   5.566   3.537  1.5240  0.7014  0.0840
13126TIP3    H260870   4.643   5.429   3.474  0.0882  0.9705 -0.7066
13127TIP3   OH260871   2.456   5.020   4.310 -0.0290  0.3156  0.1491
13127TIP3    H160872   2.535   4.996   4.359  0.3563  0.6692 -0.2940
13127TIP3    H260873   2.474   4.992   4.221 -0.9983 -0.9281  0.3346
13128TIP3   OH260874   5.542   3.909  15.102 -0.0822  0.3026  0.3259
13128TIP3    H160875   5.487   3.868  15.167  0.7595  0.6845  1.2949
13128TIP3    H260876   5.620   3.853  15.097  0.5775  1.1594  0.8431
13129TIP3   OH260877   2.928   0.670  17.268  0.2292 -0.7799  0.4802
13129TIP3    H160878   3.008   0.688  17.219  0.2546 -1.4491  0.2789
13129TIP3    H260879   2.881   0.754  17.268  0.0423 -0.8784 -1.0254
13130TIP3   OH260880   5.948   3.285   3.178  0.0709 -0.2975 -0.2895
13130TIP3    H160881   5.885   3.257   3.112  0.0284 -2.8535  0.7895
13130TIP3    H260882   5.897   3.290   3.259  0.4312  1.4278 -0.1539
13131TIP3   OH260883   5.632   3.246  12.280  0.2898  0.5966  0.1985
13131TIP3    H160884   5.636   3.265  12.374 -1.0131  1.5765  0.0736
13131TIP3    H260885   5.664   3.326  12.238  1.2087  0.0306 -0.1943
13132TIP3   OH260886   0.552   6.135  12.913 -0.4447 -0.2498 -0.3126
13132TIP3    H160887   0.559   6.056  12.860 -0.6622  0.6860 -1.7525
13132TIP3    H260888   0.519   6.202  12.853  2.0924  1.5586  0.2219
13133TIP3   OH260889   1.269   5.420  16.940 -0.5481  0.6744 -0.5914
13133TIP3    H160890   1.356   5.453  16.921  0.6538 -1.1291  1.5861
13133TIP3    H260891   1.282   5.327  16.958 -3.2112 -0.0683 -2.1687
13134TIP3   OH260892   4.509   0.196  17.112  1.0037 -0.2047 -0.2833
13134TIP3    H160893   4.521   0.211  17.206  0.7728  1.6967 -0.5391
13134TIP3    H260894   4.536   0.105  17.099  0.9355 -0.5243  1.6382
13135TIP3   OH260895   1.830   0.460  12.040  0.0684  0.0748  0.4318
13135TIP3    H160896   1.784   0.421  11.965  2.0996  1.2583 -1.4918
13135TIP3    H260897   1.921   0.464  12.013  0.7577  1.0232  2.7909
13136TIP3   OH260898   0.741   4.222  13.472 -0.6610 -0.2968 -0.2047
13136TIP3    H160899   0.699   4.174  13.543  0.5874 -0.7599  0.2243
13136TIP3    H260900   0.793   4.157  13.425  0.3705  0.4494 -0.1253
13137TIP3   OH260901   2.193   2.244   0.810 -0.1223 -0.0659  0.2601
13137TIP3    H160902   2.259   2.179   0.785  0.9051  0.9877  0.2000
13137TIP3    H260903   2.135   2.197   0.871  1.9772 -0.3528  2.0745
13138TIP3   OH260904   2.020   2.249  14.848 -0.1177 -0.2977  0.1238
13138TIP3    H160905   2.071   2.317  14.892 -0.2630 -0.4692  0.5566
13138TIP3    H260906   2.078   2.217  14.779 -0.3447  0.8157 -0.6022
13139TIP3   OH260907   6.522   2.404  17.129 -0.2040  0.7213 -0.4522
13139TIP3    H160908   6.492   2.480  17.079  1.9550  1.5468 -0.5222
13139TIP3    H260909   6.612   2.425  17.155  1.5983 -3.1015 -3.1247
13140TIP3   OH260910   1.038   3.378   3.002  0.3446 -0.0057  0.4989
13140TIP3    H160911   0.999   3.439   2.939 -0.1424  1.1193  1.8752
13140TIP3    H260912   1.119   3.350   2.960  0.2476  1.0686 -0.4468
13141TIP3   OH260913   1.063   1.727   2.043 -0.1205 -0.3553 -0.0103
13141TIP3    H160914   1.144   1.777   2.031 -0.1387 -0.1365  0.7788
13141TIP3    H260915   0.993   1.792   2.038 -0.0614 -0.0594  2.5005
13142TIP3   OH260916   2.329   0.073   4.162  0.3118  0.5110  0.2459
13142TIP3    H160917   2.396   0.010   4.189 -0.5245 -0.7998 -0.6362
13142TIP3    H260918   2.329   0.139   4.231  0.9633 -0.6536  1.3949
13143TIP3   OH260919   4.419   0.619   2.443  0.2289 -0.2629 -0.1861
13143TIP3    H160920   4.372   0.536   2.432  0.2283 -0.5266  1.7251
13143TIP3    H260921   4.352   0.686   2.435  0.2873 -0.3999 -2.1290
13144TIP3   OH260922   1.206   1.015   6.344 -0.5358 -0.1362  0.1486
13144TIP3    H160923   1.289   0.989   6.303 -0.6200  1.2566 -0.9586
13144TIP3    H260924   1.212   0.982   6.434  1.3749  0.2666  0.1950
13145TIP3   OH260925   4.512   2.525  16.736 -0.3204  0.0565 -0.1819
13145TIP3    H160926   4.542   2.551  16.649  1.2143  1.2920  0.6821
13145TIP3    H260927   4.558   2.443  16.753 -0.0388  0.1970 -0.2511
13146TIP3   OH260928   6.223   1.240   4.925 -0.1931 -0.1143 -0.0190
13146TIP3    H160929   6.151   1.177   4.930 -0.9849  0.7160 -0.8364
13146TIP3    H260930   6.227   1.264   4.833  1.5497 -0.6125 -0.0889
13147TIP3   OH260931   1.942   0.475  15.695  0.3695  0.4153 -0.1148
13147TIP3    H160932   2.028   0.501  15.663  1.3569 -0.6801  1.5525
13147TIP3    H260933   1.896   0.557  15.709  1.5517  1.0621  0.0535
13148TIP3   OH260934   0.372   4.053   2.731 -0.4527 -0.2225  0.2670
13148TIP3    H160935   0.306   3.985   2.719 -0.0555 -0.3934 -1.0189
13148TIP3    H260936   0.449   4.006   2.764  0.7406 -0.9002 -3.2250
13149TIP3   OH260937   6.761   4.771   4.460 -0.4395  0.2089  0.0258
13149TIP3    H160938   6.797   4.859   4.472 -0.3852  0.1588  0.2336
13149TIP3    H260939   6.759   4.733   4.548 -1.2551  0.3105  0.0592
13150TIP3   OH260940   0.100   0.242  17.187  0.0631 -0.2355  0.5108
13150TIP3    H160941   0.077   0.183  17.116 -0.8455  1.4974 -0.6737
13150TIP3    H260942   0.030   0.231  17.251  0.3515 -1.0673  0.6801
13151TIP3   OH260943   3.060   3.400   3.956 -0.1951  0.5255  0.2190
13151TIP3    H160944   2.991   3.345   3.918 -0.4310  1.9043 -1.4520
13151TIP3    H260945   3.029   3.420   4.044 -1.0540 -0.3954  0.1358
13152TIP3   OH260946   5.534   0.256  11.569 -0.5045  0.3224  0.3928
13152TIP3    H160947   5.528   0.268  11.664 -0.4897  0.1102  0.4199
13152TIP3    H260948   5.622   0.222  11.554 -0.4045  0.6331  0.2744
13153TIP3   OH260949   5.507   5.718   2.756  0.6390 -0.0317 -0.1870
13153TIP3    H160950   5.462   5.746   2.676  0.3330  1.2693  0.4307
13153TIP3    H260951   5.480   5.627   2.768  2.1212 -0.8482 -2.5531
13154TIP3   OH260952   2.162   0.530   1.060 -0.3159 -0.9277 -0.0779
13154TIP3    H160953   2.153   0.513   0.966  0.4131  0.5353 -0.4290
13154TIP3    H260954   2.220   0.607   1.065 -1.3391 -0.2399  1.5258
13155TIP3   OH260955   6.213   5.795   0.918 -0.1821 -0.3790  0.6251
13155TIP3    H160956   6.126   5.759   0.938 -0.6152  1.2607  1.7993
13155TIP3    H260957   6.262   5.783   0.999  0.4895 -0.6533  0.1851
13156TIP3   OH260958   0.480   2.625  15.767 -0.4725  0.4020  0.2168
13156TIP3    H160959   0.473   2.687  15.839 -0.0835  0.9227 -0.1817
13156TIP3    H260960   0.461   2.678  15.689 -1.3115 -0.2455 -0.0229
13157TIP3   OH260961   5.310   4.627  14.036  0.0427  0.1813 -0.1803
13157TIP3    H160962   5.323   4.695  13.969  0.3247  0.4203  0.1116
13157TIP3    H260963   5.243   4.570  13.999 -0.3266  0.7220 -0.3568
13158TIP3   OH260964   0.081   4.810   5.667  0.1405  0.1359 -0.1112
13158TIP3    H160965   0.107   4.839   5.579  0.5961 -1.7935 -0.6446
13158TIP3    H260966   0.150   4.843   5.725  1.4102 -1.0908 -0.8971
13159TIP3   OH260967   6.223   1.199  14.262 -0.5794 -0.1862  0.2641
13159TIP3    H160968   6.182   1.215  14.177  2.1652 -1.2928 -1.3516
13159TIP3    H260969   6.153   1.161  14.315 -2.1187 -0.3871 -1.8105
13160TIP3   OH260970   5.054   4.170  11.974 -0.2894  0.7032  0.4651
13160TIP3    H160971   5.098   4.108  12.032 -1.1381  1.8909  2.4286
13160TIP3    H260972   5.097   4.254  11.991 -1.8681  1.4607  0.8830
13161TIP3   OH260973   1.474   4.281  14.579 -0.7718 -0.3815  0.2881
13161TIP3    H160974   1.448   4.361  14.534  1.9294  0.8100  0.7607
13161TIP3    H260975   1.398   4.223  14.570 -2.5111  1.9543 -0.6541
13162TIP3   OH260976   0.064   4.143   0.907  0.1266 -0.4499 -0.0861
13162TIP3    H160977  -0.032   4.135   0.906  0.0003  0.8840 -2.0928
13162TIP3    H260978   0.090   4.115   0.994 -2.1719 -0.1741  0.7094
13163TIP3   OH260979   4.033   6.175  14.541  0.3107 -0.3166 -0.7467
13163TIP3    H160980   4.051   6.268  14.558  0.3654 -0.4324 -0.1613
13163TIP3    H260981   3.942   6.173  14.512 -0.0899 -0.2160  0.4546
13164TIP3   OH260982   4.872   5.535  11.131 -0.2450 -0.4580 -0.0645
13164TIP3    H160983   4.828   5.493  11.057  1.0074 -0.2415 -0.9355
13164TIP3    H260984   4.962   5.548  11.102  0.0264  0.4912  1.1492
13165TIP3   OH260985   3.511   0.541  10.868  0.0986 -0.6327  0.2180
13165TIP3    H160986   3.565   0.589  10.931 -0.1852 -0.5937  0.4336
13165TIP3    H260987   3.568   0.472  10.835  1.4639  1.6246 -2.2799
13166TIP3   OH260988   5.728   1.162   3.645 -0.1634 -0.6269  0.6748
13166TIP3    H160989   5.737   1.243   3.595 -0.2401 -1.6680 -1.0465
13166TIP3    H260990   5.634   1.142   3.642 -0.0761 -1.0439  0.6846
13167TIP3   OH260991   0.593   2.535   0.524  0.4697  0.0353  0.0192
13167TIP3    H160992   0.666   2.597   0.525  0.2897  0.2543  1.8799
13167TIP3    H260993   0.551   2.547   0.609 -1.1700 -0.7639 -0.6625
13168TIP3   OH260994   5.484   5.053  11.317  0.1313  0.8249  0.1836
13168TIP3    H160995   5.389   5.043  11.306  0.3976  1.0125 -2.5617
13168TIP3    H260996   5.512   5.104  11.241  2.6552 -0.5685  0.1254
13169TIP3   OH260997   0.681   6.797   4.996  0.3470  0.0083  0.8218
13169TIP3    H160998   0.698   6.882   5.037 -0.0796  0.3369  0.3202
13169TIP3    H260999   0.586   6.786   5.003  0.4398 -0.5581  1.1446
13170TIP3   OH261000   0.078   4.253   4.001  0.3944  0.4615 -0.3030
13170TIP3    H161001   0.072   4.277   4.094  1.4961  2.9813 -0.8637
13170TIP3    H261002   0.169   4.229   3.988  0.8534  2.6360 -1.3037
13171TIP3   OH261003   1.810   5.485  13.935 -0.2402 -0.2218  0.3471
13171TIP3    H161004   1.876   5.554  13.930 -0.7431  0.3652  1.5164
13171TIP3    H261005   1.815   5.454  14.025 -0.6150 -1.1232  0.0608
13172TIP3   OH261006   1.046   5.661   3.748  0.2893  0.5650  0.2044
13172TIP3    H161007   1.139   5.637   3.751  0.1869 -0.0438 -1.1165
13172TIP3    H261008   1.031   5.710   3.829  2.2401  2.3780 -0.4926
13173TIP3   OH261009   3.018   6.036   4.736 -0.0120 -0.4597  0.2935
13173TIP3    H161010   3.085   6.023   4.803 -0.6058 -1.4733  0.6964
13173TIP3    H261011   2.935   6.030   4.784 -0.4029  1.0245 -0.1526
13174TIP3   OH261012   4.385   6.170  15.901  0.4918 -0.5758 -0.2249
13174TIP3    H161013   4.378   6.080  15.870  0.6696 -0.6390 -0.0783
13174TIP3    H261014   4.404   6.163  15.994  0.6212 -0.3886 -0.2365
13175TIP3   OH261015   6.761   6.310  14.963  0.5928 -0.0168 -0.0503
13175TIP3    H161016   6.683   6.334  15.013  0.4523 -0.7752  0.0993
13175TIP3    H261017   6.805   6.394  14.946 -1.5580  0.7114 -2.3745
13176TIP3   OH261018   5.265   5.999   3.554  0.2775  0.2739  0.0039
13176TIP3    H161019   5.330   6.016   3.486 -0.6938  1.0506 -0.7265
13176TIP3    H261020   5.306   6.030   3.635  0.9972  0.3389 -0.3867
13177TIP3   OH261021   3.177   6.503   0.695  0.1618 -0.2146  0.3700
13177TIP3    H161022   3.103   6.561   0.677  1.1150  0.6463 -0.8701
13177TIP3    H261023   3.174   6.438   0.626  0.4960 -0.2321  0.3696
13178TIP3   OH261024   5.739   0.574  11.268 -0.0697  0.0061 -0.2105
13178TIP3    H161025   5.674   0.592  11.335 -1.3204 -2.4393 -0.7221
13178TIP3    H261026   5.756   0.480  11.276  1.3396  0.0971 -1.9154
13179TIP3   OH261027   2.810   4.989  10.877  0.4042  0.3691 -0.0829
13179TIP3    H161028   2.803   5.033  10.793 -0.4304  2.6205  1.1270
13179TIP3    H261029   2.728   5.009  10.922  1.3759  0.2994  1.7662
13180TIP3   OH261030   5.227   5.070   5.199  0.5060  0.4238 -0.1247
13180TIP3    H161031   5.270   5.156   5.195  0.9921  0.2145  0.5777
13180TIP3    H261032   5.139   5.085   5.164  0.6921  1.1419 -0.2886
13181TIP3   OH261033   4.788   5.819  11.457 -0.0450 -0.0676  0.4179
13181TIP3    H161034   4.780   5.789  11.548  0.0790  0.4266  0.5914
13181TIP3    H261035   4.880   5.802  11.434 -0.3235 -1.1311  0.0494
13182TIP3   OH261036   6.330   4.878  14.399  0.6827 -0.0170 -0.6210
13182TIP3    H161037   6.278   4.897  14.322 -0.6270 -2.5688 -0.4294
13182TIP3    H261038   6.385   4.803  14.373 -0.3716 -1.4438  1.1280
13183TIP3   OH261039   6.656   3.815   4.802  0.0425 -0.0707  0.0772
13183TIP3    H161040   6.591   3.785   4.865  0.2519 -1.6261 -0.4122
13183TIP3    H261041   6.717   3.741   4.794  0.5826  0.4896 -1.1678
13184TIP3   OH261042   4.786   1.816   1.592 -0.4744  0.3426 -0.1696
13184TIP3    H161043   4.820   1.731   1.621 -1.1548 -0.1653 -0.8351
13184TIP3    H261044   4.759   1.859   1.673 -0.6858 -0.3294  0.1251
13185TIP3   OH261045   4.077   3.142  16.105  0.5183  0.4914 -0.7761
13185TIP3    H161046   4.126   3.164  16.184 -0.7389  2.2121 -0.4463
13185TIP3    H261047   4.139   3.155  16.033  1.2023  0.4051 -0.2038
13186TIP3   OH261048   5.203   1.413  16.213 -1.0891  0.5238 -0.1035
13186TIP3    H161049   5.293   1.401  16.243 -1.3725 -1.4919  0.0103
13186TIP3    H261050   5.149   1.384  16.287 -1.7962 -0.7292 -1.0823
13187TIP3   OH261051   1.425   0.748  11.640  0.1436 -0.2327  0.1352
13187TIP3    H161052   1.503   0.704  11.605 -0.1655  0.1685 -1.0681
13187TIP3    H261053   1.353   0.716  11.586 -0.2058  1.1246 -0.2187
13188TIP3   OH261054   2.441   1.946  12.497 -0.1428 -0.4750 -1.1300
13188TIP3    H161055   2.414   2.027  12.541  1.7715  0.7829 -2.1808
13188TIP3    H261056   2.536   1.944  12.509 -0.1222 -2.3492 -1.5198
13189TIP3   OH261057   5.790   2.427   5.056 -0.6445  0.7169 -0.2760
13189TIP3    H161058   5.884   2.446   5.063 -0.3264 -0.9586  0.0042
13189TIP3    H261059   5.775   2.354   5.116 -1.2961 -1.8658 -3.4358
13190TIP3   OH261060   5.354   0.206   5.854  0.7856 -0.2809 -0.0816
13190TIP3    H161061   5.355   0.140   5.924  2.5464  0.4445  0.6125
13190TIP3    H261062   5.282   0.265   5.878 -0.2135 -1.4289 -0.2183
13191TIP3   OH261063   4.878   4.213   1.667  0.4505 -0.3810  0.2556
13191TIP3    H161064   4.877   4.122   1.638  1.5221 -0.4103  0.2674
13191TIP3    H261065   4.905   4.262   1.589  1.9193 -0.3052  0.7863
13192TIP3   OH261066   0.241   2.351  16.288 -0.3730  0.1045 -0.0696
13192TIP3    H161067   0.171   2.347  16.354  0.5189  1.1643  0.9603
13192TIP3    H261068   0.251   2.261  16.258 -1.0083 -0.3345  1.0108
13193TIP3   OH261069   3.589   1.411  12.433  0.4126  0.5778  0.4344
13193TIP3    H161070   3.507   1.430  12.479  0.5002 -0.8458  1.1822
13193TIP3    H261071   3.572   1.439  12.343 -0.3352  1.7822  0.9293
13194TIP3   OH261072   0.176   0.892  16.835 -0.3805 -0.2779 -0.4010
13194TIP3    H161073   0.114   0.827  16.800  0.0615 -3.0795  3.6674
13194TIP3    H261074   0.124   0.972  16.842 -3.0701 -2.0434  1.0162
13195TIP3   OH261075   6.707   1.518   4.333  0.6615  0.2193  0.0063
13195TIP3    H161076   6.761   1.475   4.266  1.4598 -0.3927  1.0373
13195TIP3    H261077   6.654   1.448   4.370  1.5636  0.2019  1.3023
13196TIP3   OH261078   4.731   3.522   5.930 -0.1527 -0.5896 -0.1043
13196TIP3    H161079   4.669   3.463   5.973 -0.7985 -0.5597 -0.9830
13196TIP3    H261080   4.763   3.579   6.000 -0.2881 -1.3163  0.5572
13197TIP3   OH261081   0.001   3.218   1.557  0.3414 -0.0252  0.0761
13197TIP3    H161082  -0.053   3.149   1.518  0.7533 -0.2204 -0.1515
13197TIP3    H261083  -0.061   3.276   1.601 -0.2321  0.8609 -1.8780
13198TIP3   OH261084   0.086   2.976  12.387  0.0343  0.2885 -0.1903
13198TIP3    H161085   0.006   3.022  12.413 -0.4264 -1.2914  1.3062
13198TIP3    H261086   0.105   3.009  12.300 -2.0790  0.9302 -0.4463
13199TIP3   OH261087   3.921   3.599  16.268 -0.3599  0.3093  0.1362
13199TIP3    H161088   3.952   3.661  16.202 -0.7746  0.0441 -0.3153
13199TIP3    H261089   3.834   3.630  16.292 -0.9854 -0.6574 -0.8378
13200TIP3   OH261090   5.550   2.423  11.474  0.2182 -0.3420 -0.3583
13200TIP3    H161091   5.640   2.456  11.479 -0.4610  1.9241 -2.5477
13200TIP3    H261092   5.506   2.461  11.551  0.5203  0.5010 -0.5977
13201TIP3   OH261093   4.878   1.850  15.361  0.5570 -0.3316  0.3455
13201TIP3    H161094   4.827   1.894  15.294  2.3583  0.1674 -0.7349
13201TIP3    H261095   4.969   1.862  15.334  1.2740 -0.9090  2.3892
13202TIP3   OH261096   0.290   5.467   5.101  0.2953 -0.0677  0.0755
13202TIP3    H161097   0.368   5.488   5.050  1.1016 -0.6026  1.0699
13202TIP3    H261098   0.324   5.431   5.183 -0.9404  2.0205  1.5410
13203TIP3   OH261099   5.648   6.069  15.887  0.0471  0.6064 -0.4975
13203TIP3    H161100   5.599   6.063  15.969 -0.0020  1.3611 -0.4644
13203TIP3    H261101   5.584   6.101  15.823  0.3228  0.9288 -0.6132
13204TIP3   OH261102   3.160   2.417  13.791 -0.1308  0.2530  0.0797
13204TIP3    H161103   3.232   2.377  13.839  1.0457  1.9623 -0.2320
13204TIP3    H261104   3.087   2.416  13.853  1.1913  1.8481  1.7166
13205TIP3   OH261105   2.431   3.216  11.466 -0.4108  0.2952  0.6341
13205TIP3    H161106   2.471   3.209  11.552  0.0489 -1.0221  0.3131
13205TIP3    H261107   2.501   3.252  11.410 -0.4098  0.2390  0.5996
13206TIP3   OH261108   5.410   4.300   5.480 -0.3873 -0.1183  0.5509
13206TIP3    H161109   5.327   4.272   5.442 -0.7465  2.1036 -0.3389
13206TIP3    H261110   5.476   4.274   5.416 -0.8074  1.8228 -0.7120
13207TIP3   OH261111   5.083   1.281  11.476  0.2023  0.0313 -0.0125
13207TIP3    H161112   5.084   1.238  11.390  3.3777 -0.7418  0.3617
13207TIP3    H261113   5.105   1.211  11.538 -1.6974  0.6691  1.4112
13208TIP3   OH261114   3.766   4.997   3.725 -0.3784  0.3783  0.2930
13208TIP3    H161115   3.852   4.956   3.721 -0.8296 -0.4913 -0.6940
13208TIP3    H261116   3.783   5.090   3.712  0.4653  0.2789  0.6494
13209TIP3   OH261117   0.547   2.494   4.481  0.0608 -0.0266 -0.8043
13209TIP3    H161118   0.513   2.512   4.393  1.5554  2.0042 -1.0216
13209TIP3    H261119   0.525   2.403   4.497 -0.5782 -0.3312 -3.1427
13210TIP3   OH261120   0.625   5.742  11.616 -0.0940 -0.2774 -0.7182
13210TIP3    H161121   0.682   5.819  11.612  0.0290 -0.3627 -0.6187
13210TIP3    H261122   0.669   5.682  11.676 -1.2688  0.4610  0.9352
13211TIP3   OH261123   5.818   0.820   3.405  0.4466  0.2115  0.0336
13211TIP3    H161124   5.872   0.892   3.437  0.4359  0.7656 -1.1577
13211TIP3    H261125   5.762   0.860   3.338 -0.2893 -0.6922  0.0929
13212TIP3   OH261126   4.302   0.960   5.405 -0.4415  0.4064 -0.5377
13212TIP3    H161127   4.307   0.893   5.473 -1.9080  1.6241  0.8300
13212TIP3    H261128   4.381   1.012   5.416  1.4820 -1.9552 -2.6026
13213TIP3   OH261129   6.253   3.403  15.467 -0.7329 -0.1023 -0.6166
13213TIP3    H161130   6.211   3.331  15.514  0.6485 -0.8125 -0.4417
13213TIP3    H261131   6.346   3.378  15.463 -0.3544  1.3492 -1.1471
13214TIP3   OH261132   6.485   2.249   1.895  0.5767 -0.6169 -0.3638
13214TIP3    H161133   6.507   2.194   1.820  0.3420  0.2563 -1.0728
13214TIP3    H261134   6.472   2.336   1.859  0.2845 -0.2214  0.6653
13215TIP3   OH261135   5.719   0.448   2.509 -0.5128 -0.3121  0.4598
13215TIP3    H161136   5.767   0.500   2.446  0.0268  1.1287  2.0162
13215TIP3    H261137   5.782   0.384   2.542 -1.0749 -1.7567 -1.1754
13216TIP3   OH261138   1.861   3.774   3.623  0.6987 -0.0678  0.4684
13216TIP3    H161139   1.945   3.800   3.660  1.5887 -0.3785 -1.2829
13216TIP3    H261140   1.846   3.686   3.658  0.8588  0.1949  1.1967
13217TIP3   OH261141   6.213   5.018  12.306  0.1788 -0.0071  0.1601
13217TIP3    H161142   6.178   5.107  12.299  1.5078  0.5536  0.5093
13217TIP3    H261143   6.243   4.997  12.217 -0.9664 -0.4705 -0.1289
13218TIP3   OH261144   6.569   4.750  17.116  0.4690 -0.2260 -0.5101
13218TIP3    H161145   6.498   4.736  17.054  0.8853 -0.7213 -0.8777
13218TIP3    H261146   6.532   4.809  17.182 -0.3935 -0.7990 -0.4849
13219TIP3   OH261147   5.216   6.590   0.566 -0.1650  0.6403  0.2196
13219TIP3    H161148   5.158   6.538   0.510 -0.4685  1.4410 -0.2240
13219TIP3    H261149   5.288   6.532   0.587 -1.0667 -0.3316  0.6613
13220TIP3   OH261150   5.936   0.051  12.611 -0.1921 -0.7116 -0.4083
13220TIP3    H161151   5.964  -0.028  12.565  2.9360  0.3601 -0.5102
13220TIP3    H261152   5.980   0.047  12.695 -0.3061  0.7247 -0.2691
13221TIP3   OH261153   5.672   2.541  16.514  0.1186  0.2175  0.3972
13221TIP3    H161154   5.716   2.479  16.456 -0.5480  1.4363 -1.4452
13221TIP3    H261155   5.732   2.615  16.521 -1.6528  2.0173 -2.3574
13222TIP3   OH261156   4.171   4.886  17.160 -0.1439  0.2490 -0.8858
13222TIP3    H161157   4.139   4.962  17.209 -0.4537  1.2847 -2.6500
13222TIP3    H261158   4.257   4.867  17.197  0.7814  2.6789 -1.7272
13223TIP3   OH261159   6.790   5.365   2.005 -0.4141 -0.0694 -0.3280
13223TIP3    H161160   6.824   5.422   2.073  0.8403  0.7361 -1.6002
13223TIP3    H261161   6.698   5.353   2.027  0.0923 -0.2508  1.7779
13224TIP3   OH261162   1.021   0.401  14.617 -0.1980  0.1494  0.5413
13224TIP3    H161163   0.941   0.387  14.669  0.0327  1.9042  1.3939
13224TIP3    H261164   1.091   0.403  14.682  0.1510  1.9417  0.1187
13225TIP3   OH261165   4.187   1.701  13.450 -0.0605 -0.0904  0.2612
13225TIP3    H161166   4.117   1.765  13.454 -0.4401 -0.3931 -1.3053
13225TIP3    H261167   4.157   1.628  13.505 -0.5978  0.1418  0.2746
13226TIP3   OH261168   2.212   3.350  16.491  0.3777 -0.4176 -0.7280
13226TIP3    H161169   2.123   3.348  16.456  0.2660  0.5028 -0.4950
13226TIP3    H261170   2.264   3.393  16.422  0.3352  0.5378 -0.1612
13227TIP3   OH261171   4.702   4.765   2.417 -0.1012 -0.4755  0.1728
13227TIP3    H161172   4.712   4.795   2.507  0.5264 -0.2028  0.0176
13227TIP3    H261173   4.791   4.745   2.388 -0.3017 -0.6004 -0.3747
13228TIP3   OH261174   5.461   0.078   1.782 -0.2696 -0.2743  0.6891
13228TIP3    H161175   5.537   0.091   1.725 -1.3946  0.1670 -0.7305
13228TIP3    H261176   5.420  -0.002   1.750 -0.2554 -0.6675  1.6309
13229TIP3   OH261177   2.269   6.659  17.178 -0.1425  0.2132  0.0110
13229TIP3    H161178   2.249   6.703  17.096  1.7141 -0.4629 -0.8401
13229TIP3    H261179   2.307   6.727  17.234  0.6733  0.2080 -0.5155
13230TIP3   OH261180   3.225   1.033   3.678  0.1467  0.4005 -0.0957
13230TIP3    H161181   3.161   0.976   3.634 -1.0550 -0.6761  2.8820
13230TIP3    H261182   3.310   1.000   3.651 -0.5592 -1.2627 -0.3432
13231TIP3   OH261183   5.183   0.201  16.454  0.2282 -0.2397 -0.2139
13231TIP3    H161184   5.236   0.122  16.444 -0.5121 -0.6907 -0.6164
13231TIP3    H261185   5.187   0.222  16.547 -0.2728 -1.2409  0.0354
13232TIP3   OH261186   4.381   0.420  12.740  0.1292 -0.2974  0.1304
13232TIP3    H161187   4.475   0.434  12.739 -0.0002  0.5948 -1.1089
13232TIP3    H261188   4.361   0.381  12.655 -0.8947  1.6058 -0.5447
13233TIP3   OH261189   5.804   4.984  11.290  0.4330  0.1218  0.3098
13233TIP3    H161190   5.729   4.938  11.253 -0.1241  1.7381 -0.6217
13233TIP3    H261191   5.796   4.970  11.384  1.1440 -2.9358 -0.0327
13234TIP3   OH261192   3.940   5.046   3.449 -0.0453 -0.3600  0.4390
13234TIP3    H161193   4.003   4.999   3.394 -0.1320 -0.4735  0.4364
13234TIP3    H261194   3.855   5.022   3.414 -0.0679  0.3632 -0.0137
13235TIP3   OH261195   0.888   0.644   4.520 -0.3107  0.5658  0.2014
13235TIP3    H161196   0.866   0.602   4.604 -0.2983  0.5422  0.1925
13235TIP3    H261197   0.956   0.589   4.483  2.3150  2.5822  1.8652
13236TIP3   OH261198   2.060   6.241   0.578 -0.0970 -0.0347  0.0016
13236TIP3    H161199   2.045   6.213   0.487 -1.1893  0.1645  0.1197
13236TIP3    H261200   2.155   6.254   0.583 -0.0233 -0.0903 -1.1039
13237TIP3   OH261201   2.114   5.213   5.960 -0.4577  0.0443 -0.0073
13237TIP3    H161202   2.105   5.308   5.970 -2.4887 -0.2186  0.8909
13237TIP3    H261203   2.127   5.180   6.049 -2.4081 -0.7599 -0.0051
13238TIP3   OH261204   4.952   0.906  15.754  0.6167 -0.4111  0.0914
13238TIP3    H161205   4.989   0.960  15.684  0.9863  0.8050  1.1971
13238TIP3    H261206   4.873   0.868  15.716  0.9610  0.0264 -1.0649
13239TIP3   OH261207   5.382   1.788  14.216 -1.2276  0.5249 -0.4880
13239TIP3    H161208   5.440   1.823  14.284 -0.0286 -1.2287 -0.5862
13239TIP3    H261209   5.312   1.743  14.264  0.5478 -2.2223 -0.3619
13240TIP3   OH261210   3.610   4.470  14.870  0.2916  0.1704  0.1576
13240TIP3    H161211   3.613   4.528  14.946  0.0479  0.3879 -0.0010
13240TIP3    H261212   3.519   4.471  14.842  0.5894  0.9388 -0.7973
13241TIP3   OH261213   6.506   5.671   4.881 -0.0300  0.1501  0.4329
13241TIP3    H161214   6.573   5.613   4.917  0.9288  0.7449 -0.3823
13241TIP3    H261215   6.542   5.759   4.891 -0.8120  0.4975  0.2397
13242TIP3   OH261216   2.129   2.720  15.049 -0.8171 -0.0716  0.7410
13242TIP3    H161217   2.111   2.728  14.955 -0.0883 -1.8191  0.4291
13242TIP3    H261218   2.042   2.709  15.089 -0.9474 -2.1799 -0.0608
13243TIP3   OH261219   4.490   0.233  10.746  1.0022  0.4981  0.2324
13243TIP3    H161220   4.427   0.164  10.724 -1.0633  1.5471  2.6528
13243TIP3    H261221   4.460   0.309  10.697  0.4683  0.9585  1.2680
13244TIP3   OH261222   3.835   0.226   2.138  0.0113  0.0801 -0.2080
13244TIP3    H161223   3.761   0.237   2.079  1.5179 -0.8539 -2.3133
13244TIP3    H261224   3.881   0.309   2.135 -0.6466  0.4781  0.6812
13245TIP3   OH261225   6.364   4.333  15.627 -0.6018  0.6065  0.4660
13245TIP3    H161226   6.275   4.358  15.650  0.2449  2.8700  1.3947
13245TIP3    H261227   6.417   4.411  15.645  1.6900 -0.9419  0.7124
13246TIP3   OH261228   3.740   3.899  10.475 -0.7427  0.1959  0.0116
13246TIP3    H161229   3.714   3.836  10.407  1.1366 -0.0065 -0.5457
13246TIP3    H261230   3.716   3.856  10.557 -0.8830 -0.5870 -0.4247
13247TIP3   OH261231   2.349   5.153   5.823  0.5862 -0.3557 -0.2777
13247TIP3    H161232   2.262   5.168   5.859  0.3421  0.1924 -1.0883
13247TIP3    H261233   2.345   5.186   5.733  1.9285  0.6552  0.0032
13248TIP3   OH261234   3.461   6.048   3.288  0.0372 -0.3061  0.3374
13248TIP3    H161235   3.389   5.995   3.319  1.1148 -1.7613  0.4079
13248TIP3    H261236   3.481   6.014   3.201 -0.9844  1.7514 -0.7490
13249TIP3   OH261237   2.893   3.248   3.228  0.3138  0.7082  0.7047
13249TIP3    H161238   2.841   3.181   3.272  0.0812 -0.9752 -2.0228
13249TIP3    H261239   2.982   3.233   3.259 -0.1823  1.0940  2.3914
13250TIP3   OH261240   5.672   3.650   0.774  0.1162  0.5343 -0.3922
13250TIP3    H161241   5.755   3.615   0.741 -0.5129 -0.4387 -0.9888
13250TIP3    H261242   5.688   3.668   0.866  1.0184  0.4141 -0.5231
13251TIP3   OH261243   6.200   3.262  16.864 -0.1561 -0.5083 -0.0193
13251TIP3    H161244   6.172   3.225  16.780  0.1789 -1.4796  0.2992
13251TIP3    H261245   6.151   3.212  16.929  1.2298 -1.2306  0.4688
13252TIP3   OH261246   2.393   6.782  12.216  0.2172  0.1210  0.2465
13252TIP3    H161247   2.325   6.717  12.231  0.5222 -0.1395  0.4971
13252TIP3    H261248   2.472   6.744  12.255  0.4538  0.5223  0.1611
13253TIP3   OH261249   2.848   1.020  14.108 -0.0074  0.4763 -0.0204
13253TIP3    H161250   2.877   0.955  14.172 -2.2544 -0.6933 -0.1228
13253TIP3    H261251   2.882   0.988  14.025 -0.3201 -0.0878  0.0628
13254TIP3   OH261252   6.794   4.444  12.705  0.1897  0.3253  0.1557
13254TIP3    H161253   6.877   4.414  12.668  0.5405  2.0364 -0.4728
13254TIP3    H261254   6.819   4.506  12.773 -0.5518 -0.1213  0.8428
13255TIP3   OH261255   5.982   6.098  11.908 -0.7066 -0.2855  0.4078
13255TIP3    H161256   5.978   6.077  12.002 -3.3446  0.1788  0.4223
13255TIP3    H261257   5.956   6.017  11.865  0.7041 -0.5580  0.0369
13256TIP3   OH261258   5.591   0.084  13.161 -0.0991 -0.3138 -0.4375
13256TIP3    H161259   5.539   0.005  13.144  2.9243 -1.8818 -2.9689
13256TIP3    H261260   5.670   0.051  13.204  1.2508  1.3096 -1.6179
13257TIP3   OH261261   1.771   5.457   5.774 -0.5356  0.3627  0.0850
13257TIP3    H161262   1.820   5.406   5.710 -0.8690 -1.1859  1.0413
13257TIP3    H261263   1.829   5.530   5.797  0.0413  0.2891 -1.1209
13258TIP3   OH261264   4.373   5.153  12.318 -0.1405 -0.2358  0.6251
13258TIP3    H161265   4.291   5.104  12.324 -0.2496 -0.2348 -0.7160
13258TIP3    H261266   4.375   5.207  12.397 -1.0810 -0.7605  1.0122
13259TIP3   OH261267   4.512   4.732  15.814 -0.1865 -0.6541 -0.0097
13259TIP3    H161268   4.501   4.718  15.908 -1.1171 -0.2165 -0.0498
13259TIP3    H261269   4.603   4.710  15.797  0.4988  1.0399  1.3183
13260TIP3   OH261270   3.675   3.525   0.655 -0.0226 -0.6236 -0.0687
13260TIP3    H161271   3.681   3.611   0.696  1.4534 -0.4395 -0.6241
13260TIP3    H261272   3.619   3.538   0.578  0.5139 -0.0768 -0.3652
13261TIP3   OH261273   5.911   1.121  11.136 -0.5335 -0.4411  0.0328
13261TIP3    H161274   5.927   1.087  11.048  0.4872 -0.0238  0.0504
13261TIP3    H261275   5.827   1.166  11.130 -0.8735 -1.1409 -0.5194
13262TIP3   OH261276   2.906   1.927  16.004 -0.1289 -0.1232  0.4923
13262TIP3    H161277   2.987   1.879  15.987  0.5089  0.5178  1.6949
13262TIP3    H261278   2.924   2.017  15.977 -0.2338  0.1490  1.2908
13263TIP3   OH261279   2.036   5.643  12.168 -0.5402  0.0099 -0.2059
13263TIP3    H161280   2.058   5.730  12.201  3.5301 -1.5193  1.3315
13263TIP3    H261281   2.087   5.635  12.087 -1.1732 -0.8308 -0.5217
13264TIP3   OH261282   4.753   5.628   1.301  0.2886  0.0950 -0.2098
13264TIP3    H161283   4.705   5.600   1.379  1.1252 -2.6328 -0.6288
13264TIP3    H261284   4.684   5.656   1.240 -0.7197 -2.1736 -0.1774
13265TIP3   OH261285   5.916   1.953  11.531  0.0739 -0.3283  0.5273
13265TIP3    H161286   5.885   1.913  11.450  1.6905  0.5174 -0.5383
13265TIP3    H261287   5.855   1.923  11.598 -1.5937 -0.6167 -1.0933
13266TIP3   OH261288   5.881   2.358   6.357 -0.3925 -0.2916  0.2060
13266TIP3    H161289   5.908   2.450   6.354 -0.4641 -0.2715  0.1717
13266TIP3    H261290   5.922   2.323   6.436  1.7014 -0.8750 -1.0895
13267TIP3   OH261291   5.671   6.280   3.220 -0.0825 -0.7617 -0.3214
13267TIP3    H161292   5.748   6.277   3.163 -0.6544 -1.0383 -1.0921
13267TIP3    H261293   5.652   6.189   3.240 -0.2816 -0.7007 -0.2265
13268TIP3   OH261294   3.718   4.674  16.071 -0.2493 -0.2276  0.4778
13268TIP3    H161295   3.807   4.640  16.060  0.6906  2.7278 -1.5009
13268TIP3    H261296   3.669   4.635  15.999 -1.1098 -3.4050  2.6910
13269TIP3   OH261297   4.216   6.464   4.701 -0.4665 -0.8888 -0.2564
13269TIP3    H161298   4.202   6.486   4.793 -1.7665 -1.6880 -0.2541
13269TIP3    H261299   4.286   6.522   4.673 -1.2274  0.5586  0.7789
13270TIP3   OH261300   5.050   1.907   0.343  0.5114 -0.2309 -0.1252
13270TIP3    H161301   5.095   1.839   0.393  2.7136  0.7294 -0.7405
13270TIP3    H261302   5.049   1.983   0.401 -2.9170 -1.0077  0.9938
13271TIP3   OH261303   0.828   4.809  14.846 -0.2257  0.3643  0.0643
13271TIP3    H161304   0.875   4.851  14.774 -0.9672 -0.0043 -0.6397
13271TIP3    H261305   0.868   4.722  14.853  0.1835  0.5766  0.4372
13272TIP3   OH261306   5.889   4.292   3.528  0.8245 -0.0288  0.1005
13272TIP3    H161307   5.879   4.266   3.437  1.1208 -0.0835  0.0809
13272TIP3    H261308   5.863   4.384   3.531  0.5135 -0.1160  0.0204
13273TIP3   OH261309   3.540   3.262   1.937 -0.0704 -0.1004 -0.3070
13273TIP3    H161310   3.545   3.176   1.979 -0.3815 -0.0714 -0.2079
13273TIP3    H261311   3.531   3.323   2.010  0.4753  0.0433 -0.3626
13274TIP3   OH261312   5.471   5.988   0.912  0.5631 -0.8277 -0.3433
13274TIP3    H161313   5.510   5.944   0.987 -1.5790 -0.3646  1.1106
13274TIP3    H261314   5.508   6.076   0.913  0.5951 -0.8487  0.1371
13275TIP3   OH261315   0.823   5.696  13.364 -0.7235  0.5873  0.6308
13275TIP3    H161316   0.749   5.708  13.424  1.3204  0.3553  3.3202
13275TIP3    H261317   0.884   5.765  13.389  0.5816 -0.1199 -0.5799
13276TIP3   OH261318   1.078   0.291   0.748  0.1282 -0.2204 -0.6771
13276TIP3    H161319   1.076   0.348   0.671  0.6974 -1.1842 -1.4184
13276TIP3    H261320   1.034   0.211   0.720  0.2559 -0.5449  0.0312
13277TIP3   OH261321   3.976   1.673  16.366  0.0688 -0.2260  0.3322
13277TIP3    H161322   3.914   1.741  16.393 -0.4759 -0.8386  0.6688
13277TIP3    H261323   4.062   1.711  16.380 -0.2024 -0.4317  2.7687
13278TIP3   OH261324   6.441   4.334   4.406 -0.6333  0.4358 -0.1487
13278TIP3    H161325   6.378   4.273   4.443 -0.2455 -1.1306 -2.0296
13278TIP3    H261326   6.392   4.386   4.343 -0.1790 -0.4753 -1.2774
13279TIP3   OH261327   5.147   5.966   4.855  0.5978  0.1718 -0.1607
13279TIP3    H161328   5.096   6.040   4.888  1.9756 -0.0558  2.6373
13279TIP3    H261329   5.092   5.889   4.871  0.0055  0.3690 -1.2129
13280TIP3   OH261330   4.246   6.613   6.210 -0.0337  0.1805 -0.0155
13280TIP3    H161331   4.318   6.649   6.262 -1.1774  1.4780  0.6762
13280TIP3    H261332   4.209   6.688   6.164 -1.4746 -0.3350  0.2758
13281TIP3   OH261333   0.240   4.383   5.463  0.0114 -0.5049  0.0338
13281TIP3    H161334   0.253   4.405   5.556  1.2400 -0.2699 -0.1949
13281TIP3    H261335   0.325   4.352   5.433 -0.4873 -0.9582 -0.9226
13282TIP3   OH261336   1.457   1.010  17.184  0.4677  0.3877 -0.0562
13282TIP3    H161337   1.510   1.033  17.108  1.6119 -3.1130 -0.3975
13282TIP3    H261338   1.521   0.987  17.252 -0.5630 -1.2869  0.3746
13283TIP3   OH261339   2.265   3.079   5.225 -0.3141 -0.6618 -0.2518
13283TIP3    H161340   2.275   3.135   5.149  1.2953 -0.7294 -0.0943
13283TIP3    H261341   2.263   3.139   5.300 -3.1482 -0.4953 -0.4067
13284TIP3   OH261342   3.856   5.011  11.996 -0.3929  0.5846 -0.0974
13284TIP3    H161343   3.885   5.090  12.042  1.1225  0.6680 -1.1614
13284TIP3    H261344   3.803   5.044  11.924 -2.0557  0.4899  1.0527
13285TIP3   OH261345   3.617   6.116  12.127  0.7319  0.2035 -0.2027
13285TIP3    H161346   3.630   6.203  12.164  1.0263  0.1398 -0.1498
13285TIP3    H261347   3.531   6.119  12.086 -0.2061 -0.1563  1.7181
13286TIP3   OH261348   2.810   6.372   0.778  0.8945 -0.2478  0.0039
13286TIP3    H161349   2.844   6.383   0.690 -1.2529 -2.2833 -1.1349
13286TIP3    H261350   2.887   6.355   0.832  2.5330  3.7123 -0.9053
13287TIP3   OH261351   1.281   3.344  13.571 -0.0637 -0.5154  0.0603
13287TIP3    H161352   1.234   3.298  13.640 -0.3044 -0.8978 -0.3529
13287TIP3    H261353   1.358   3.380  13.614 -1.2075  0.8964  0.9341
13288TIP3   OH261354   5.623   5.465   1.370  0.7387 -0.3783 -0.7177
13288TIP3    H161355   5.544   5.420   1.340  1.6854 -2.1832 -0.5401
13288TIP3    H261356   5.695   5.406   1.349  2.0976  1.4098 -1.1936
13289TIP3   OH261357   0.427   2.115  14.640  0.0453  0.5773  0.0822
13289TIP3    H161358   0.494   2.135  14.574  0.4414  2.4220  1.0238
13289TIP3    H261359   0.447   2.173  14.713 -0.1186 -1.7497  2.0440
13290TIP3   OH261360   5.738   0.637  14.276 -0.5777  0.2381 -0.4658
13290TIP3    H161361   5.816   0.597  14.238 -0.7830 -0.9034  0.2723
13290TIP3    H261362   5.768   0.723  14.307  0.7072 -0.6633  0.9006
13291TIP3   OH261363   4.415   3.638  10.892  0.2983  0.2603  0.2031
13291TIP3    H161364   4.327   3.611  10.919 -0.1195  2.2877  1.0204
13291TIP3    H261365   4.472   3.567  10.919 -0.8304 -0.1385  1.5960
13292TIP3   OH261366   5.613   0.435   2.098 -0.0104  0.0394 -0.0557
13292TIP3    H161367   5.579   0.446   2.187 -0.6030  2.8526 -0.5999
13292TIP3    H261368   5.674   0.362   2.105 -0.1958  0.0901  2.6154
13293TIP3   OH261369   5.338   3.818   3.728 -0.0228  0.3221  0.1434
13293TIP3    H161370   5.395   3.872   3.673 -1.4582  0.1008 -1.5992
13293TIP3    H261371   5.320   3.741   3.675 -1.5050  0.1422  0.8939
13294TIP3   OH261372   0.224   2.594   4.334  0.0630  0.2873  0.1889
13294TIP3    H161373   0.307   2.577   4.288  0.9542  3.3190  0.5924
13294TIP3    H261374   0.165   2.626   4.266 -1.4408 -3.5544 -0.4569
13295TIP3   OH261375   3.524   3.966   1.105 -0.4175  0.6368  0.0524
13295TIP3    H161376   3.547   3.914   1.182 -1.7933 -0.9268 -0.5632
13295TIP3    H261377   3.606   3.973   1.055  0.1512  0.4534  0.9473
13296TIP3   OH261378   6.657   3.178   5.253 -0.3968  0.2747 -0.1190
13296TIP3    H161379   6.613   3.154   5.334 -0.9717 -1.8125 -1.0327
13296TIP3    H261380   6.590   3.224   5.202  0.2940  2.6289  1.0329
13297TIP3   OH261381   1.050   5.631  14.475  0.4038  0.0508 -0.1733
13297TIP3    H161382   1.023   5.571  14.406  0.5429 -0.1860 -0.0203
13297TIP3    H261383   0.981   5.697  14.477 -0.5173 -0.9200  0.6800
13298TIP3   OH261384   1.803   3.710   1.614 -0.0892 -0.1146 -0.1074
13298TIP3    H161385   1.762   3.746   1.693 -1.0905  2.2751 -1.6407
13298TIP3    H261386   1.896   3.706   1.634 -0.3079  0.6961  1.0965
13299TIP3   OH261387   4.212   0.958  14.119  0.1809  0.1418 -0.0594
13299TIP3    H161388   4.177   0.888  14.175  0.0136  2.2673  2.6180
13299TIP3    H261389   4.138   0.984  14.065 -0.6753  0.4087  1.2150
13300TIP3   OH261390   1.908   4.866   5.204 -0.2635 -0.5357  0.3408
13300TIP3    H161391   1.898   4.958   5.180 -0.4068 -0.8863 -1.0195
13300TIP3    H261392   1.995   4.842   5.172 -1.4998 -1.7144 -2.2737
13301TIP3   OH261393   6.264   2.102   1.814 -0.0935  0.6099 -0.3902
13301TIP3    H161394   6.206   2.092   1.890  0.6209 -2.4175 -0.1523
13301TIP3    H261395   6.326   2.170   1.839 -0.9943  0.9314  1.0080
13302TIP3   OH261396   4.274   1.383   3.520 -0.1514  0.0506 -0.3714
13302TIP3    H161397   4.257   1.450   3.586 -1.4981  0.6149 -1.2605
13302TIP3    H261398   4.253   1.426   3.437  1.9726 -0.4935 -1.2159
13303TIP3   OH261399   1.210   2.136  13.788  0.2358  0.0581 -0.4705
13303TIP3    H161400   1.140   2.118  13.726 -0.3469  0.3365  0.1035
13303TIP3    H261401   1.165   2.160  13.869  0.9852 -0.7681  0.1994
13304TIP3   OH261402   2.240   4.267   2.026  0.1146 -0.0561  0.0848
13304TIP3    H161403   2.212   4.302   1.941  0.4498  0.1788  0.0713
13304TIP3    H261404   2.243   4.172   2.013  0.0529 -0.0272 -0.1340
13305TIP3   OH261405   3.602   4.473  16.881 -0.0443  0.0498 -0.2011
13305TIP3    H161406   3.551   4.511  16.953  0.1067 -2.1179  1.1093
13305TIP3    H261407   3.683   4.525  16.879 -0.0315  0.1225  1.2359
13306TIP3   OH261408   4.830   4.245  12.594 -0.0060 -0.3276  0.3790
13306TIP3    H161409   4.743   4.211  12.577  0.6840 -1.3954 -1.0561
13306TIP3    H261410   4.816   4.317  12.657 -2.0283  0.3271 -0.7930
13307TIP3   OH261411   1.682   1.113  13.320  0.2052  0.4628 -0.4430
13307TIP3    H161412   1.722   1.035  13.282  0.5758  0.8290 -0.8168
13307TIP3    H261413   1.691   1.180  13.252 -2.1896  0.2209 -1.0523
13308TIP3   OH261414   0.332   1.812  13.803  0.3580  0.2162 -0.3029
13308TIP3    H161415   0.424   1.824  13.780  0.2255  0.0622 -0.9337
13308TIP3    H261416   0.285   1.817  13.719 -0.5189  3.0266  0.3060
13309TIP3   OH261417   0.007   4.675  13.528  0.3287 -0.2470 -0.5402
13309TIP3    H161418  -0.061   4.688  13.462  0.0532 -0.8769 -0.3856
13309TIP3    H261419   0.063   4.752  13.520  1.4221 -1.2284 -2.8636
13310TIP3   OH261420   4.277   4.704   5.597  0.1140 -0.7106 -0.1752
13310TIP3    H161421   4.212   4.668   5.656  1.1225 -3.0901 -0.4867
13310TIP3    H261422   4.231   4.715   5.514 -0.8176  0.9637  0.5316
13311TIP3   OH261423   1.976   5.943  12.246 -0.2723 -0.2265  0.9385
13311TIP3    H161424   2.001   5.934  12.154  0.9525  1.3490  1.0981
13311TIP3    H261425   1.935   6.029  12.251  1.4675  0.5537  2.2340
13312TIP3   OH261426   1.613   2.240   2.039  0.6876  0.4331 -0.4901
13312TIP3    H161427   1.605   2.270   2.130  1.1885 -1.0789  0.0581
13312TIP3    H261428   1.695   2.280   2.009  0.7557  0.5733 -0.1301
13313TIP3   OH261429   6.262   2.511   0.954  0.1199 -0.8778  0.0889
13313TIP3    H161430   6.287   2.424   0.923 -1.1266 -1.1224 -0.2598
13313TIP3    H261431   6.171   2.520   0.927  0.1253  0.3776  0.4855
13314TIP3   OH261432   0.087   4.323  14.303 -0.1203 -0.6948  0.4118
13314TIP3    H161433   0.160   4.317  14.364  1.2031 -0.0817 -1.0580
13314TIP3    H261434   0.073   4.233  14.273 -0.9584 -1.0418  1.7829
13315TIP3   OH261435   3.067   5.568   1.907  0.0601 -0.2258 -0.3467
13315TIP3    H161436   3.128   5.641   1.906  1.0685 -0.9152  3.0287
13315TIP3    H261437   3.109   5.500   1.855 -0.4968  1.2501 -2.7859
13316TIP3   OH261438   0.233   6.255  13.008 -0.3229  0.0154  0.3827
13316TIP3    H161439   0.217   6.250  12.914  0.7945 -0.2233  0.1997
13316TIP3    H261440   0.310   6.312  13.017 -0.8356  0.5891  1.1943
13317TIP3   OH261441   4.302   5.351   0.131 -0.0241 -0.5205 -0.4143
13317TIP3    H161442   4.316   5.312   0.217  0.4002 -0.8355 -0.6305
13317TIP3    H261443   4.387   5.388   0.107 -0.2252 -0.1440 -0.5539
13318TIP3   OH261444   6.653   1.317   2.142  0.6788 -0.0545  0.4730
13318TIP3    H161445   6.560   1.329   2.124  0.6322 -1.1088 -0.0145
13318TIP3    H261446   6.696   1.378   2.082  0.3683 -0.8807 -0.6018
13319TIP3   OH261447   1.060   4.214   0.951  0.3619 -0.3387  0.9105
13319TIP3    H161448   1.096   4.299   0.925  1.8991  0.0372  4.0489
13319TIP3    H261449   1.134   4.154   0.944 -1.0767 -1.8556 -2.7896
13320TIP3   OH261450   5.733   5.568   4.666  0.3524 -0.2769  0.2678
13320TIP3    H161451   5.705   5.580   4.756  1.7689 -3.1604  1.1762
13320TIP3    H261452   5.668   5.508   4.628 -0.0310  0.6289 -0.5179
13321TIP3   OH261453   4.726   2.376  14.767  0.2769  0.2116  0.0838
13321TIP3    H161454   4.727   2.360  14.673 -4.0824  0.2297 -0.0667
13321TIP3    H261455   4.706   2.469  14.776  0.9261  0.2698  1.0579
13322TIP3   OH261456   3.048   0.796   2.346 -0.2952  0.9783  0.4866
13322TIP3    H161457   2.974   0.735   2.341  1.3512 -1.5386  4.7934
13322TIP3    H261458   3.026   0.855   2.418  0.3132  2.5254 -0.5591
13323TIP3   OH261459   1.886   0.726   3.539  0.0499 -1.5089 -0.0362
13323TIP3    H161460   1.872   0.817   3.565  1.0477 -0.6483 -2.3857
13323TIP3    H261461   1.919   0.683   3.618  0.2001  0.3040  0.9104
13324TIP3   OH261462   1.931   5.247  13.512 -0.1963 -0.3428  0.0716
13324TIP3    H161463   1.856   5.192  13.538 -0.3132  0.1685  0.8424
13324TIP3    H261464   2.006   5.205  13.553 -0.0732 -0.7933 -0.6091
13325TIP3   OH261465   3.596   0.289  15.446 -0.0297 -0.3842 -0.1994
13325TIP3    H161466   3.662   0.318  15.384  0.9935 -1.9108  0.1492
13325TIP3    H261467   3.619   0.198  15.465 -0.8099 -0.2029  1.7575
13326TIP3   OH261468   0.942   4.896  11.526 -0.0061  0.2713  0.0989
13326TIP3    H161469   0.966   4.853  11.444  0.7665  1.6316 -0.3953
13326TIP3    H261470   0.849   4.917  11.515 -0.0330 -0.0101 -0.2284
13327TIP3   OH261471   6.616   5.920  13.615 -0.0097 -0.2103 -0.0635
13327TIP3    H161472   6.544   5.969  13.655 -0.4884  0.6222 -1.8554
13327TIP3    H261473   6.620   5.839  13.665 -1.8889 -0.0618  0.3888
13328TIP3   OH261474   5.478   1.649   0.019 -0.2109  0.2822  0.2008
13328TIP3    H161475   5.460   1.731  -0.028  1.2993 -0.4150 -1.6277
13328TIP3    H261476   5.399   1.597   0.007 -0.0959  0.3800 -0.9778
13329TIP3   OH261477   4.107   3.616  15.814 -0.2644  0.5066 -0.2696
13329TIP3    H161478   4.022   3.573  15.813  0.4758 -1.0779  1.8753
13329TIP3    H261479   4.098   3.684  15.880  0.6597 -0.8190  1.2426
13330TIP3   OH261480   6.655   3.848  12.857 -0.3775 -0.3862 -0.9852
13330TIP3    H161481   6.673   3.756  12.840  2.2853  0.5431 -3.6685
13330TIP3    H261482   6.739   3.885  12.884 -1.4356  1.2224  0.2059
13331TIP3   OH261483   0.811   1.296  12.210 -0.0209  0.2845 -0.0661
13331TIP3    H161484   0.745   1.353  12.172 -2.8178 -2.0962  1.0595
13331TIP3    H261485   0.862   1.352  12.267 -2.6747  1.6737  0.9863
13332TIP3   OH261486   1.342   0.453  14.158 -0.0345 -0.7374  0.6572
13332TIP3    H161487   1.269   0.467  14.099  0.2641 -1.3099  0.1422
13332TIP3    H261488   1.340   0.528  14.218  0.5171  0.6191 -0.9665
13333TIP3   OH261489   2.866   4.627   4.403  0.6088 -0.2395  0.1476
13333TIP3    H161490   2.774   4.645   4.385  0.3886 -1.8271 -0.3855
13333TIP3    H261491   2.870   4.607   4.496  0.4035 -0.2201  0.1588
13334TIP3   OH261492   0.288   1.978  14.129  0.2997 -0.4490  0.5585
13334TIP3    H161493   0.207   1.971  14.078  0.5903  1.0995 -0.1293
13334TIP3    H261494   0.346   2.030  14.074  1.0719  0.1218  1.9126
13335TIP3   OH261495   2.497   6.230  14.111  0.0392  0.3420 -0.5051
13335TIP3    H161496   2.564   6.294  14.089 -1.3180  1.6307 -0.9293
13335TIP3    H261497   2.425   6.281  14.148 -1.0012 -0.9523 -0.6803
13336TIP3   OH261498   4.906   5.784  15.633  0.1959  0.2918 -0.6219
13336TIP3    H161499   4.906   5.817  15.543 -0.7151 -0.0869 -0.7737
13336TIP3    H261500   4.874   5.693  15.625  1.5819 -0.2485 -0.0921
13337TIP3   OH261501   1.449   2.035  14.936 -0.1178  0.0579  0.2970
13337TIP3    H161502   1.445   2.018  14.842 -0.2109  0.6834  0.1882
13337TIP3    H261503   1.393   2.111  14.950  1.1701  0.9825  0.6108
13338TIP3   OH261504   2.728   3.289   1.545 -0.0342 -0.5585 -0.2844
13338TIP3    H161505   2.734   3.385   1.554 -0.4753 -0.7083  1.8219
13338TIP3    H261506   2.636   3.273   1.527  0.1246 -0.5539 -1.0995
13339TIP3   OH261507   4.653   1.856   2.138  0.6651 -0.0171 -0.0899
13339TIP3    H161508   4.699   1.845   2.221  0.0983  1.0648  0.3802
13339TIP3    H261509   4.615   1.944   2.143 -0.1672 -0.3056 -1.1057
13340TIP3   OH261510   3.031   3.346   0.840  0.2173  0.1201 -0.0061
13340TIP3    H161511   2.963   3.280   0.831  0.9369 -0.6897  0.5105
13340TIP3    H261512   3.073   3.350   0.753 -0.3542  0.4821 -0.2675
13341TIP3   OH261513   0.219   4.412   2.511  0.3368  0.1419 -0.3987
13341TIP3    H161514   0.283   4.475   2.478 -2.4332  3.2272 -0.2315
13341TIP3    H261515   0.151   4.410   2.443  0.6347 -3.1738 -0.6638
13342TIP3   OH261516   2.442   2.681  11.626  0.5690 -0.2935 -0.5854
13342TIP3    H161517   2.457   2.765  11.582  0.0423  0.2295  0.2164
13342TIP3    H261518   2.419   2.705  11.716  1.3168 -1.3382 -0.1097
13343TIP3   OH261519   6.332   4.023  14.541  0.3120  0.3436 -0.1400
13343TIP3    H161520   6.262   4.041  14.604  2.5646 -0.3254  2.6756
13343TIP3    H261521   6.398   4.090  14.560  0.7562  0.5277 -2.2528
13344TIP3   OH261522   4.285   1.524   0.960 -0.3593 -0.0619  0.1230
13344TIP3    H161523   4.201   1.564   0.938 -1.1688 -0.9371  1.5484
13344TIP3    H261524   4.308   1.561   1.046 -0.5221 -1.6868  0.8944
13345TIP3   OH261525   6.325   6.597   2.500  0.2734 -0.0004  0.2401
13345TIP3    H161526   6.316   6.504   2.522  0.5786 -0.6692 -2.3515
13345TIP3    H261527   6.418   6.615   2.514  0.3450 -0.2667  0.1209
13346TIP3   OH261528   5.421   4.747  16.531  0.1991  0.0663  0.2122
13346TIP3    H161529   5.439   4.653  16.538 -0.8486 -0.1283  0.3252
13346TIP3    H261530   5.507   4.788  16.536  0.7801 -0.9560 -1.0694
13347TIP3   OH261531   5.741   5.376  13.693 -0.3722 -0.2990  0.2900
13347TIP3    H161532   5.667   5.408  13.743 -1.3995 -2.2409  0.0648
13347TIP3    H261533   5.705   5.305  13.640  1.2138  0.0933 -1.3546
13348TIP3   OH261534   3.836   5.389  12.836 -0.4504 -0.1541  0.6274
13348TIP3    H161535   3.840   5.483  12.853  1.7899 -0.5134  2.2070
13348TIP3    H261536   3.889   5.377  12.757  1.1721 -0.3547  1.7199
13349TIP3   OH261537   3.221   3.353  14.612 -0.0244 -0.3963  0.1917
13349TIP3    H161538   3.159   3.336  14.682 -0.8979  1.0032 -0.2113
13349TIP3    H261539   3.232   3.448  14.613 -1.0693 -0.2050 -2.4053
13350TIP3   OH261540   2.375   0.404   4.104 -0.2118 -0.0587 -0.3083
13350TIP3    H161541   2.311   0.332   4.108 -1.3154  0.7304 -2.7261
13350TIP3    H261542   2.415   0.396   4.018  0.3149  1.6769 -0.2499
13351TIP3   OH261543   3.348   2.509   1.554  0.1339  0.0471 -0.0463
13351TIP3    H161544   3.380   2.569   1.486  1.1138 -0.7175 -0.2705
13351TIP3    H261545   3.424   2.456   1.576 -0.7039 -1.0426  0.2292
13352TIP3   OH261546   0.302   3.142  14.950  0.1703  0.4498 -0.0420
13352TIP3    H161547   0.335   3.195  15.022 -0.9972  0.0354  0.8077
13352TIP3    H261548   0.366   3.155  14.879  2.2537 -0.4830  1.6126
13353TIP3   OH261549   2.613   3.043   1.307 -0.3671  0.4860  0.2378
13353TIP3    H161550   2.705   3.067   1.320  0.3776 -1.2709 -1.5568
13353TIP3    H261551   2.589   2.992   1.384  1.0909 -1.6173 -0.6665
13354TIP3   OH261552   1.642   0.656  16.526 -0.0672  0.3402 -0.2884
13354TIP3    H161553   1.635   0.590  16.595  0.4221  1.3186  0.7123
13354TIP3    H261554   1.569   0.716  16.542  0.6468  1.1431  0.0155
13355TIP3   OH261555   4.233   3.812   4.724  0.0670  0.0743  0.2848
13355TIP3    H161556   4.191   3.866   4.791  2.2190 -0.1482  1.8282
13355TIP3    H261557   4.320   3.849   4.713  0.1190 -0.5385 -1.6530
13356TIP3   OH261558   2.994   6.266  14.656  0.2082 -0.1777  0.2890
13356TIP3    H161559   2.900   6.253  14.661  0.0628  0.6307 -0.3465
13356TIP3    H261560   3.022   6.274  14.748  0.0058 -2.7531  0.6218
13357TIP3   OH261561   3.721   0.307  15.176  0.1479  0.4480 -0.3315
13357TIP3    H161562   3.756   0.371  15.113 -0.4763  0.6613 -0.4667
13357TIP3    H261563   3.753   0.223  15.145 -0.0055  0.5709 -0.8366
13358TIP3   OH261564   6.451   6.002  12.757 -0.0329 -0.1700 -0.3311
13358TIP3    H161565   6.457   5.923  12.811  0.4587  0.0613 -0.0418
13358TIP3    H261566   6.433   6.072  12.820  1.2376  0.2042 -0.3801
13359TIP3   OH261567   5.623   6.002  12.062  0.2474  0.2610 -0.1065
13359TIP3    H161568   5.613   6.093  12.091  2.1592  0.6380 -0.5732
13359TIP3    H261569   5.533   5.968  12.057 -0.4343  1.9088  0.7327
13360TIP3   OH261570   5.504   5.202   2.474  0.3580  0.1754  0.5489
13360TIP3    H161571   5.590   5.162   2.460  0.5566  0.9939 -0.6977
13360TIP3    H261572   5.442   5.136   2.441  0.5237 -0.3018  1.1918
13361TIP3   OH261573   6.802   5.176   3.320  0.3243  0.2490  0.1424
13361TIP3    H161574   6.868   5.245   3.323  1.0314 -0.4102  0.0104
13361TIP3    H261575   6.794   5.146   3.411 -2.3740  2.7021  0.7968
13362TIP3   OH261576   1.048   2.709  12.808  0.8530 -0.2603  0.2805
13362TIP3    H161577   1.001   2.632  12.774  0.6414 -0.3768  0.8394
13362TIP3    H261578   0.995   2.783  12.778 -0.1131 -0.4234  1.5556
13363TIP3   OH261579   2.478   2.602  15.371  0.3471  0.4309 -0.2255
13363TIP3    H161580   2.488   2.671  15.306  1.0840  0.2109 -0.3557
13363TIP3    H261581   2.393   2.618  15.411  0.3279  1.1508 -0.5573
13364TIP3   OH261582   6.377   0.442   1.662  0.2449  0.0228 -0.3891
13364TIP3    H161583   6.370   0.346   1.662  0.1253  0.0187 -1.7024
13364TIP3    H261584   6.319   0.470   1.733 -1.1748 -0.7945 -1.2051
13365TIP3   OH261585   3.216   6.142   1.117  0.0984 -0.0129 -0.2386
13365TIP3    H161586   3.214   6.078   1.188 -3.0801  0.6056  0.3286
13365TIP3    H261587   3.205   6.088   1.038  3.0364 -0.6388 -0.2814
13366TIP3   OH261588   5.727   4.107   0.602  0.2625  0.0715 -0.3759
13366TIP3    H161589   5.779   4.060   0.538  1.4006  0.2977  0.3738
13366TIP3    H261590   5.642   4.063   0.600  0.5448 -0.4513 -1.4299
13367TIP3   OH261591   2.434   5.229   5.236 -0.2950 -0.1744  0.4608
13367TIP3    H161592   2.418   5.211   5.144  0.1479  0.4089  0.2694
13367TIP3    H261593   2.441   5.324   5.241 -0.2964 -0.2042  1.0918
13368TIP3   OH261594   4.584   0.466  14.229 -0.0617 -0.1442  0.3392
13368TIP3    H161595   4.644   0.517  14.175 -1.1090  1.9508  1.1267
13368TIP3    H261596   4.559   0.392  14.173  2.5230 -0.5750 -0.3120
13369TIP3   OH261597   6.289   2.285  10.404 -0.3130  0.0094  0.0571
13369TIP3    H161598   6.256   2.375  10.396 -1.4877 -0.5952 -2.2397
13369TIP3    H261599   6.385   2.294  10.405 -0.4358  1.3556  1.1487
13370TIP3   OH261600   6.079   6.630  11.519 -0.2502 -0.2152 -0.1187
13370TIP3    H161601   5.988   6.649  11.496 -0.3468  0.6927  0.9690
13370TIP3    H261602   6.117   6.715  11.541  1.1562 -0.4450 -1.5215
13371TIP3   OH261603   3.050   4.206   2.491 -0.0580  0.5462 -0.6238
13371TIP3    H161604   3.004   4.227   2.410  2.0293  3.1055 -1.2121
13371TIP3    H261605   3.139   4.185   2.462  0.3842  0.2835  0.9143
13372TIP3   OH261606   1.602   4.057   2.213  0.2303  0.0437  0.3772
13372TIP3    H161607   1.683   4.036   2.166  0.2301  1.3053 -0.2112
13372TIP3    H261608   1.631   4.096   2.296  0.2248 -1.4002  1.0743
13373TIP3   OH261609   6.086   1.744   6.644  0.2290 -0.0178  0.0622
13373TIP3    H161610   6.179   1.719   6.643  0.1410 -0.3572 -2.3530
13373TIP3    H261611   6.087   1.840   6.639  0.4421 -0.0759 -1.0843
13374TIP3   OH261612   1.804   5.092   2.718 -0.1881 -0.2617 -0.1823
13374TIP3    H161613   1.802   4.996   2.723 -1.0068 -0.1792  1.1022
13374TIP3    H261614   1.714   5.119   2.735  0.1076  0.7611 -0.2291
13375TIP3   OH261615   6.517   5.578  16.874 -0.2448  0.0652  0.0238
13375TIP3    H161616   6.556   5.633  16.942  0.8011  0.0968 -0.6034
13375TIP3    H261617   6.581   5.578  16.803 -1.8522  1.0412 -1.4874
13376TIP3   OH261618   6.543   0.998  16.972  0.2359 -0.0879 -0.3968
13376TIP3    H161619   6.629   1.039  16.974  0.5206 -0.6416 -1.2176
13376TIP3    H261620   6.561   0.905  16.955 -0.4850 -0.3020 -0.0108
13377TIP3   OH261621   4.066   2.768   3.074 -0.2262 -0.3768 -0.0119
13377TIP3    H161622   4.110   2.786   2.990 -0.5963  0.8937  0.0531
13377TIP3    H261623   3.985   2.819   3.070 -0.2400 -0.2961  1.1188
13378TIP3   OH261624   0.911   0.943   0.495 -0.5457 -0.3057  0.1611
13378TIP3    H161625   0.913   1.038   0.502  0.8835 -0.5192  3.2300
13378TIP3    H261626   0.978   0.923   0.429 -0.8005  0.8036 -0.4465
13379TIP3   OH261627   1.469   6.568  16.758 -0.2889  0.1288 -0.0502
13379TIP3    H161628   1.552   6.527  16.733 -0.5915 -1.3427  1.3367
13379TIP3    H261629   1.443   6.618  16.680  0.7967 -1.1639 -1.2692
13380TIP3   OH261630   3.441   2.085   2.839  0.2901  0.1427  0.4170
13380TIP3    H161631   3.445   2.089   2.744 -1.3069  0.1027  0.3306
13380TIP3    H261632   3.426   1.992   2.858  3.6156 -0.3853  0.8800
13381TIP3   OH261633   5.167   6.381   4.905  0.3503  0.4922 -0.1749
13381TIP3    H161634   5.137   6.464   4.941 -0.5778  0.1439 -0.1143
13381TIP3    H261635   5.262   6.389   4.901  0.2982  1.3873  0.2379
13382TIP3   OH261636   1.887   2.889   4.499  0.0093 -0.2277 -0.3420
13382TIP3    H161637   1.854   2.839   4.574  0.6177  1.1810  0.8699
13382TIP3    H261638   1.817   2.949   4.477  1.2777  2.0660  1.5985
13383TIP3   OH261639   0.196   6.750   3.776  0.1376  0.1984  0.5615
13383TIP3    H161640   0.260   6.687   3.742  0.9764  1.0235  0.5835
13383TIP3    H261641   0.111   6.717   3.747  0.3531 -2.2199  2.5762
13384TIP3   OH261642   6.202   1.427   4.340  0.6946 -0.2149  0.1981
13384TIP3    H161643   6.222   1.397   4.429  1.3661  0.0578  0.1460
13384TIP3    H261644   6.264   1.379   4.284 -0.3098 -1.0411 -0.2202
13385TIP3   OH261645   5.616   5.283  14.925 -0.0202  0.4126  0.2735
13385TIP3    H161646   5.634   5.220  14.855  0.8227 -0.1809  1.0144
13385TIP3    H261647   5.530   5.256  14.960  1.5773 -2.0974  2.4438
13386TIP3   OH261648   3.065   6.006   2.707 -0.5061  0.2736  0.0374
13386TIP3    H161649   3.155   6.012   2.675 -1.2749  2.4799 -1.8733
13386TIP3    H261650   3.066   6.052   2.791  0.3643 -0.8040  0.6475
13387TIP3   OH261651   5.632   4.881  11.856  0.3529 -0.2829  0.0810
13387TIP3    H161652   5.595   4.909  11.940  0.2230 -0.6669  0.1560
13387TIP3    H261653   5.704   4.824  11.881 -0.7083 -1.7215 -0.0641
13388TIP3   OH261654   5.442   3.749  13.397  0.6358 -0.3594 -0.1726
13388TIP3    H161655   5.466   3.673  13.343 -1.1367 -0.3851 -0.9450
13388TIP3    H261656   5.347   3.751  13.395  0.6711  2.3092 -0.7449
13389TIP3   OH261657   4.829   0.044  16.567 -0.0752 -0.1146 -0.1982
13389TIP3    H161658   4.801   0.135  16.582 -2.2676 -0.5838 -1.1966
13389TIP3    H261659   4.865   0.046  16.478 -0.4608 -0.2814 -0.3605
13390TIP3   OH261660   4.568   4.982  16.247 -0.7402 -0.2935 -0.5490
13390TIP3    H161661   4.473   4.967  16.249 -0.6472 -0.6547  1.3950
13390TIP3    H261662   4.600   4.945  16.329  1.1400 -0.4764 -1.3469
13391TIP3   OH261663   5.129   3.342  14.601 -0.4961  0.0490 -0.6048
13391TIP3    H161664   5.063   3.346  14.670 -0.1386 -0.8500 -0.1973
13391TIP3    H261665   5.171   3.428  14.601  0.2863 -0.3236  1.0903
13392TIP3   OH261666   2.759   6.233   1.191 -0.5644  0.0709 -0.4761
13392TIP3    H161667   2.725   6.315   1.227  0.4010 -0.3176  1.4050
13392TIP3    H261668   2.705   6.165   1.232 -0.3618 -0.3125 -0.8395
13393TIP3   OH261669   2.969   5.429   0.133  0.1505  0.0864 -0.1371
13393TIP3    H161670   2.981   5.339   0.104 -1.6711 -0.5130  0.9099
13393TIP3    H261671   3.029   5.439   0.208  0.9906  0.0436 -0.7875
13394TIP3   OH261672   3.760   1.719   3.813 -0.0708 -0.0506 -0.4337
13394TIP3    H161673   3.851   1.691   3.824  0.1112 -0.0836 -1.9358
13394TIP3    H261674   3.713   1.639   3.790 -0.7330 -0.2721  1.5372
13395TIP3   OH261675   0.970   6.256   1.920 -0.5012 -0.1889 -0.0480
13395TIP3    H161676   0.893   6.248   1.864  0.5083  0.4930 -1.5510
13395TIP3    H261677   1.045   6.239   1.862  0.5218 -0.1664  1.2324
13396TIP3   OH261678   0.719   2.076  12.435  0.1249  0.0379 -0.0419
13396TIP3    H161679   0.688   2.037  12.516  0.8557  0.0406  0.2331
13396TIP3    H261680   0.726   2.002  12.374 -0.5829  0.0609 -0.1540
13397TIP3   OH261681   3.257   2.104   5.503  0.1052 -0.1133 -0.2696
13397TIP3    H161682   3.345   2.099   5.540 -0.1766 -0.5686  0.3378
13397TIP3    H261683   3.213   2.172   5.553 -0.5953 -1.4200  0.9178
13398TIP3   OH261684   4.542   1.139  15.814  0.0938 -0.1764 -0.0924
13398TIP3    H161685   4.547   1.224  15.772 -2.2138 -0.2664 -0.6515
13398TIP3    H261686   4.544   1.159  15.908 -0.0024  0.4601 -0.2223
13399TIP3   OH261687   0.269   6.737   2.561  0.1020 -0.2101 -0.0152
13399TIP3    H161688   0.347   6.708   2.514  0.7308  0.1940  0.7685
13399TIP3    H261689   0.303   6.788   2.635 -0.9396  1.5955 -0.7557
13400TIP3   OH261690   3.019   0.106   3.456  0.0549  0.2843 -0.6100
13400TIP3    H161691   3.021   0.162   3.534  2.6408 -0.2088 -0.2866
13400TIP3    H261692   2.926   0.082   3.447 -0.6475  2.2099  0.9550
13401TIP3   OH261693   4.040   0.695  16.918 -0.4734  0.4485 -0.0760
13401TIP3    H161694   3.992   0.629  16.869  0.3902  1.8180 -2.8703
13401TIP3    H261695   3.991   0.776  16.904  0.2906  1.0267  0.5564
13402TIP3   OH261696   2.444   3.333   6.188 -0.0748  0.2887 -0.6611
13402TIP3    H161697   2.360   3.377   6.199  1.0875  2.0342  1.7014
13402TIP3    H261698   2.470   3.352   6.097 -0.9231  2.1396 -0.5441
13403TIP3   OH261699   4.172   6.708  16.856  0.2354  0.1734 -0.1189
13403TIP3    H161700   4.267   6.716  16.861  0.4097 -2.0044  0.4948
13403TIP3    H261701   4.148   6.756  16.777  2.0998 -1.0863 -1.4813
13404TIP3   OH261702   1.120   4.090  16.302 -0.1649 -0.2201 -0.5836
13404TIP3    H161703   1.036   4.054  16.273 -1.0533  2.7099 -1.8885
13404TIP3    H261704   1.125   4.175  16.259  2.9618  0.1520  0.4119
13405TIP3   OH261705   5.473   2.030   1.203  0.2601  0.3693  0.5435
13405TIP3    H161706   5.390   2.075   1.187  0.2079  0.1979  0.3273
13405TIP3    H261707   5.452   1.960   1.263 -0.1616 -1.0108 -1.1824
13406TIP3   OH261708   2.864   6.639  16.167  0.3419 -0.3261  0.2620
13406TIP3    H161709   2.959   6.646  16.159  0.5208  0.4570  2.7827
13406TIP3    H261710   2.830   6.695  16.097  1.7459  0.6894  0.3790
13407TIP3   OH261711   2.622   4.121   5.452  0.1374  0.3011  0.4935
13407TIP3    H161712   2.632   4.140   5.359 -0.7924 -0.6429  0.1789
13407TIP3    H261713   2.700   4.070   5.475 -0.2690 -0.5884 -0.0920
13408TIP3   OH261714   2.810   3.516  15.750  0.1680 -0.1474  0.0486
13408TIP3    H161715   2.849   3.600  15.775  0.1235  0.1195 -0.7756
13408TIP3    H261716   2.864   3.484  15.678 -0.7976 -0.0304 -0.7412
13409TIP3   OH261717   3.659   4.542  12.267  0.3157  0.1706  0.0927
13409TIP3    H161718   3.572   4.581  12.261 -0.2621 -0.8870  1.2547
13409TIP3    H261719   3.645   4.459  12.313  1.8330 -0.3569 -0.3549
13410TIP3   OH261720   1.453   5.593  11.593  0.0272  0.2325  0.2516
13410TIP3    H161721   1.361   5.604  11.615  0.0164  1.3824 -0.2901
13410TIP3    H261722   1.461   5.632  11.505 -0.3493 -5.9624 -2.7980
13411TIP3   OH261723   1.759   2.372  14.851  0.4245  0.0350 -0.1816
13411TIP3    H161724   1.688   2.334  14.800 -0.0177 -1.2572  1.3976
13411TIP3    H261725   1.832   2.311  14.841  0.5352  0.0950  0.2552
13412TIP3   OH261726   4.528   5.303  15.435  0.3448  0.3042  0.3040
13412TIP3    H161727   4.481   5.242  15.378  0.1419  0.4138  0.3554
13412TIP3    H261728   4.592   5.345  15.377 -2.3967  3.2198 -0.7557
13413TIP3   OH261729   5.998   5.236   3.482  0.2376  0.2978 -0.5517
13413TIP3    H161730   5.977   5.221   3.389  3.0480  0.2006 -1.2256
13413TIP3    H261731   6.028   5.151   3.514  1.9125  0.9309 -0.3469
13414TIP3   OH261732   1.811   0.093  13.787 -0.2856  0.1882  0.1847
13414TIP3    H161733   1.823   0.033  13.861  0.1311 -0.3688 -0.3269
13414TIP3    H261734   1.884   0.074  13.729 -1.8639 -1.0125 -1.4604
13415TIP3   OH261735   6.792   4.347   4.789 -0.2082 -0.5640  0.4536
13415TIP3    H161736   6.750   4.339   4.704 -0.3161 -0.5869  0.5083
13415TIP3    H261737   6.719   4.343   4.852  0.0374 -2.4111  0.6323
13416TIP3   OH261738   1.908   4.125  16.524 -0.2101  0.0882 -0.3569
13416TIP3    H161739   1.843   4.193  16.506 -2.6934 -1.9343  0.6386
13416TIP3    H261740   1.913   4.074  16.443  1.8503  1.5325 -1.1987
13417TIP3   OH261741   6.118   0.738   0.720  0.2644  0.4805  0.1643
13417TIP3    H161742   6.177   0.813   0.723  0.4052  0.4857 -2.3822
13417TIP3    H261743   6.043   0.764   0.775  1.1298  1.7386  0.7731
13418TIP3   OH261744   2.836   2.144  15.789  0.1778 -0.3282 -0.1745
13418TIP3    H161745   2.818   2.128  15.696  0.1445 -0.6073 -0.1191
13418TIP3    H261746   2.750   2.145  15.831  0.2244 -0.6980 -0.0673
13419TIP3   OH261747   5.472   3.870   3.149 -0.2744 -0.0630  0.0383
13419TIP3    H161748   5.476   3.955   3.194 -0.7198  0.0973 -0.2298
13419TIP3    H261749   5.391   3.831   3.180 -1.3181  0.6708 -1.7614
13420TIP3   OH261750   2.120   2.255   2.296  0.1846  0.0971 -0.4674
13420TIP3    H161751   2.095   2.162   2.298 -0.7497  0.3393 -0.4252
13420TIP3    H261752   2.209   2.255   2.262  0.0030 -0.7845 -0.9724
13421TIP3   OH261753   1.435   4.550  14.014  0.1651  0.3210 -0.5333
13421TIP3    H161754   1.366   4.490  13.986  0.7295  0.3357 -2.0110
13421TIP3    H261755   1.388   4.631  14.036 -0.1902  0.8080 -2.9115
13422TIP3   OH261756   4.728   2.897   6.035  0.3196  0.0300  0.1251
13422TIP3    H161757   4.802   2.940   6.077 -0.2722  1.2203 -0.0380
13422TIP3    H261758   4.651   2.940   6.070 -0.2064  0.6815 -1.7582
13423TIP3   OH261759   5.640   4.078  14.233  0.1224  0.5592 -0.1876
13423TIP3    H161760   5.626   3.994  14.190  0.8325  0.9431 -1.1857
13423TIP3    H261761   5.554   4.119  14.234 -0.1143  0.0644 -0.2192
13424TIP3   OH261762   2.941   5.213  14.941 -0.0335  0.9618 -1.0395
13424TIP3    H161763   2.962   5.180  14.853 -0.3594  0.5559 -0.9636
13424TIP3    H261764   2.970   5.304  14.939 -0.4401  1.0789 -1.7125
13425TIP3   OH261765   0.040   5.908   4.037 -0.1305  0.4477  0.1779
13425TIP3    H161766   0.023   5.823   4.077  0.4940 -0.1582 -0.8156
13425TIP3    H261767  -0.039   5.928   3.987  0.2571 -0.2026 -0.7044
13426TIP3   OH261768   0.015   4.678  16.194  0.4965 -0.0498  0.3242
13426TIP3    H161769   0.089   4.737  16.211  1.3073 -0.7600 -0.6296
13426TIP3    H261770   0.004   4.629  16.275  1.0939  0.0564  0.4718
13427TIP3   OH261771   4.507   5.432   2.650  0.3062  0.1869  0.0150
13427TIP3    H161772   4.599   5.410   2.635  0.7167  0.8760  1.4409
13427TIP3    H261773   4.495   5.516   2.607  0.3547  0.1252 -0.1207
13428TIP3   OH261774   6.032   5.046   3.844 -0.3861  0.3120  0.4638
13428TIP3    H161775   6.082   5.104   3.902  1.0570 -0.5201  0.0955
13428TIP3    H261776   5.955   5.021   3.895  0.7170 -0.1880  1.9362
13429TIP3   OH261777   6.269   1.967   0.170  0.1756  0.3871  0.2906
13429TIP3    H161778   6.224   2.039   0.125  2.9986  2.1196  0.0906
13429TIP3    H261779   6.311   1.918   0.100  0.4494  0.1203  0.6418
13430TIP3   OH261780   1.223   4.601  12.540  0.2205 -0.4727  0.6828
13430TIP3    H161781   1.220   4.695  12.560  0.0216 -0.0079 -1.4468
13430TIP3    H261782   1.287   4.566  12.603 -0.3494  0.9244  2.0722
13431TIP3   OH261783   2.887   1.881   5.042  0.3502  0.1644  0.0522
13431TIP3    H161784   2.811   1.827   5.063  0.9258 -1.1661 -1.1932
13431TIP3    H261785   2.962   1.825   5.061  1.0552  1.7275  1.9576
13432TIP3   OH261786   2.785   4.561  14.763 -0.8298  1.0985  0.4147
13432TIP3    H161787   2.821   4.594  14.681 -2.9056  1.0627 -0.5450
13432TIP3    H261788   2.798   4.632  14.826 -0.2742  1.5677 -0.2347
13433TIP3   OH261789   4.560   4.284  12.127 -0.1606 -0.2462  0.6978
13433TIP3    H161790   4.645   4.316  12.096 -0.3811  1.7023  2.0128
13433TIP3    H261791   4.500   4.303  12.056  0.4794 -1.6180 -0.2341
13434TIP3   OH261792   0.889   2.955  12.917 -0.1769  0.6138 -0.0857
13434TIP3    H161793   0.900   3.049  12.936  1.4059  0.0205  2.2768
13434TIP3    H261794   0.966   2.914  12.957 -0.2040 -1.5773 -2.1830
13435TIP3   OH261795   1.106   2.235   0.062 -0.2231  0.7902  0.5059
13435TIP3    H161796   1.180   2.251   0.003 -0.3430 -1.3092 -0.2865
13435TIP3    H261797   1.071   2.150   0.033 -2.1894  1.1787  1.6529
13436TIP3   OH261798   3.045   6.755  16.767  0.0631 -0.4056  0.5247
13436TIP3    H161799   3.085   6.841  16.756 -0.4124 -0.3578 -1.0466
13436TIP3    H261800   2.961   6.772  16.810 -0.8859  0.1576 -1.4685
13437TIP3   OH261801   1.286   3.067   6.414  0.4467 -0.4677  0.4774
13437TIP3    H161802   1.336   3.119   6.477 -1.6716  1.9199  0.2547
13437TIP3    H261803   1.236   3.005   6.468  1.7017 -1.1937  0.8396
13438TIP3   OH261804   0.524   2.149   4.533 -0.3651  0.2244  0.4213
13438TIP3    H161805   0.513   2.144   4.438  0.6202 -3.6991  0.4142
13438TIP3    H261806   0.617   2.133   4.548 -0.9300 -1.7234  2.1355
13439TIP3   OH261807   6.814   2.874   5.949  0.5531 -0.2424 -0.4108
13439TIP3    H161808   6.892   2.872   5.893  1.8359 -2.0933  1.4031
13439TIP3    H261809   6.746   2.832   5.896  1.7774 -2.0515 -0.5997
13440TIP3   OH261810   3.683   0.143   1.518 -0.4124 -0.7220  0.1332
13440TIP3    H161811   3.629   0.168   1.593  1.4531  0.4381  1.1260
13440TIP3    H261812   3.672   0.048   1.511 -0.5842 -0.8536  1.9174
13441TIP3   OH261813   6.325   5.202   5.951 -0.6855  0.3156 -0.3586
13441TIP3    H161814   6.341   5.279   6.004  0.5440 -0.3012  0.1916
13441TIP3    H261815   6.273   5.144   6.006 -0.1218  0.0302 -0.1152
13442TIP3   OH261816   1.220   3.688  16.909  0.2521  0.1125 -0.1563
13442TIP3    H161817   1.233   3.778  16.880 -0.1313  1.0548  2.4909
13442TIP3    H261818   1.146   3.692  16.969  1.0464 -1.7169  1.0091
13443TIP3   OH261819   1.909   2.715   3.348 -0.5516  0.8656 -0.1599
13443TIP3    H161820   1.967   2.760   3.285 -0.1908  1.3216  0.4911
13443TIP3    H261821   1.882   2.784   3.408  1.5890 -0.1409  2.0500
13444TIP3   OH261822   5.150   6.413  13.264  0.5293  0.0906  0.4277
13444TIP3    H161823   5.112   6.383  13.347 -0.2296  3.0520  1.2199
13444TIP3    H261824   5.204   6.340  13.234 -3.4860 -3.1377  0.7540
13445TIP3   OH261825   5.635   1.450  12.982  0.5574  0.2431  0.0300
13445TIP3    H161826   5.708   1.468  13.042  0.9842 -1.3951  0.0414
13445TIP3    H261827   5.604   1.363  13.009 -0.3535  0.2459 -1.0178
13446TIP3   OH261828   4.131   0.313  16.327  0.4159  0.2322  0.1024
13446TIP3    H161829   4.194   0.373  16.367  1.4950 -0.5472 -0.3979
13446TIP3    H261830   4.160   0.305  16.236 -0.0074 -0.6625  0.0406
13447TIP3   OH261831   3.229   4.945  13.765  0.1369 -0.2112  0.0018
13447TIP3    H161832   3.230   4.876  13.831  1.6684  0.6361  0.9100
13447TIP3    H261833   3.225   4.898  13.681  2.7893 -1.4968  0.5351
13448TIP3   OH261834   2.424   2.900  11.462  0.2741  0.0241 -0.4081
13448TIP3    H161835   2.485   2.968  11.493  0.1621  0.6336 -1.4908
13448TIP3    H261836   2.369   2.945  11.398 -1.6681 -0.4087  0.9482
13449TIP3   OH261837   2.749   1.170  10.673 -0.1588 -0.0558  0.5381
13449TIP3    H161838   2.769   1.255  10.713 -0.1668 -0.2595  0.9701
13449TIP3    H261839   2.673   1.188  10.617 -0.7279  0.0253  1.3315
13450TIP3   OH261840   6.280   2.628   4.704 -0.1732  0.4756 -0.5722
13450TIP3    H161841   6.371   2.622   4.731 -1.1263  2.3637  3.3725
13450TIP3    H261842   6.261   2.544   4.663  2.9721 -0.3932 -0.3172
13451TIP3   OH261843   2.742   0.785   0.909  0.4648 -0.7979  0.6372
13451TIP3    H161844   2.668   0.743   0.866 -1.3148  2.1182  0.6769
13451TIP3    H261845   2.819   0.753   0.861 -0.9210 -2.7183 -0.3878
13452TIP3   OH261846   4.640   0.840   3.452 -0.2917  0.2611 -0.1362
13452TIP3    H161847   4.639   0.896   3.530  0.3617  0.8235 -0.5154
13452TIP3    H261848   4.730   0.847   3.420 -0.2909 -0.7764 -0.3595
13453TIP3   OH261849   1.835   3.038  11.839  0.6338  0.1623  0.4670
13453TIP3    H161850   1.778   3.082  11.775  0.0003 -0.7851  0.3728
13453TIP3    H261851   1.909   3.098  11.850  0.2055  0.8481 -0.3218
13454TIP3   OH261852   6.765   0.761   2.109  0.0747  0.0454 -0.3059
13454TIP3    H161853   6.757   0.665   2.108 -1.3011  0.1585 -1.1030
13454TIP3    H261854   6.691   0.791   2.162  1.0427  0.6194  0.7175
13455TIP3   OH261855   3.132   4.869   6.250 -0.2802 -0.6972 -0.0142
13455TIP3    H161856   3.056   4.811   6.241  1.2368 -3.0639  1.9160
13455TIP3    H261857   3.207   4.810   6.261  1.4184  1.6170  1.3610
13456TIP3   OH261858   4.938   5.457  14.381  0.7939  0.5304 -0.0728
13456TIP3    H161859   4.884   5.493  14.310  0.1211 -0.4344 -0.0560
13456TIP3    H261860   4.995   5.393  14.338  1.3916  0.9835  0.0356
13457TIP3   OH261861   6.745   5.058   5.733 -0.2486 -0.0071 -0.2440
13457TIP3    H161862   6.659   5.020   5.750 -0.6118  0.6539 -0.5898
13457TIP3    H261863   6.806   4.985   5.742 -0.9468 -0.6863 -0.9738
13458TIP3   OH261864   1.581   1.972  15.669 -0.1168 -0.2341 -0.7222
13458TIP3    H161865   1.514   1.934  15.613 -0.3250 -1.5229  0.3662
13458TIP3    H261866   1.654   1.990  15.610 -0.0624 -2.2512 -1.3068
13459TIP3   OH261867   4.965   2.329   2.920 -0.2484  0.4578  0.3235
13459TIP3    H161868   5.034   2.263   2.932  1.7219  2.3905 -0.0522
13459TIP3    H261869   4.944   2.358   3.008 -0.6311 -0.1719  0.4421
13460TIP3   OH261870   3.058   6.129  11.173  0.4002  0.0782 -0.3066
13460TIP3    H161871   3.007   6.152  11.095  1.1953  0.1205 -0.8135
13460TIP3    H261872   3.048   6.034  11.182 -0.6421  0.2304  0.2132
13461TIP3   OH261873   4.448   3.099   3.015 -0.1268 -0.4174 -0.4150
13461TIP3    H161874   4.486   3.086   2.929  1.5799 -0.5345  0.3323
13461TIP3    H261875   4.448   3.012   3.055  1.5517  0.0508  0.6726
13462TIP3   OH261876   6.613   2.594  15.062  0.0671  0.1002 -0.5301
13462TIP3    H161877   6.667   2.673  15.067  0.5787 -0.1550 -1.8451
13462TIP3    H261878   6.523   2.627  15.067  0.2957  0.6786 -0.0987
13463TIP3   OH261879   0.204   5.935  17.163 -0.2340  0.8258 -0.2989
13463TIP3    H161880   0.196   5.883  17.083 -0.6402  2.6933 -1.5281
13463TIP3    H261881   0.129   5.994  17.160  1.1203  2.6161  0.1616
13464TIP3   OH261882   1.941   1.833   0.361  0.0871  0.3025  0.3462
13464TIP3    H161883   1.953   1.887   0.282 -0.1760  2.1979  1.5809
13464TIP3    H261884   1.848   1.842   0.382  0.4350  0.8939  1.6493
13465TIP3   OH261885   6.752   4.444  14.088  0.2553  0.0832  0.0333
13465TIP3    H161886   6.791   4.402  14.164  2.8250  2.1960 -0.0595
13465TIP3    H261887   6.657   4.433  14.100  0.7343 -2.4149  1.8466
13466TIP3   OH261888   5.249   3.873  12.672 -0.6298  0.6009 -0.4117
13466TIP3    H161889   5.283   3.872  12.762  0.0465 -1.6721 -0.6646
13466TIP3    H261890   5.324   3.897  12.618 -0.3865 -0.5592 -0.5998
13467TIP3   OH261891   4.668   0.067  13.340 -0.1223 -0.0723 -0.3551
13467TIP3    H161892   4.761   0.085  13.329 -0.1451 -0.1614 -0.6975
13467TIP3    H261893   4.662   0.019  13.422  0.1574 -0.2478 -0.4380
13468TIP3   OH261894   2.260   3.108   4.797  0.1747 -0.6241  0.3652
13468TIP3    H161895   2.185   3.161   4.772 -0.5986 -1.2560  1.3173
13468TIP3    H261896   2.227   3.018   4.798  1.1717 -1.0095 -0.0843
13469TIP3   OH261897   2.714   0.898   2.102  0.0190 -0.3840 -0.2192
13469TIP3    H161898   2.802   0.875   2.074  0.0619 -0.6189  0.1090
13469TIP3    H261899   2.660   0.887   2.024  0.8843  3.2830 -1.4402
13470TIP3   OH261900   4.668   1.797  14.367  0.0618  0.6666  0.0760
13470TIP3    H161901   4.704   1.814  14.280 -0.0478 -0.9465 -0.3000
13470TIP3    H261902   4.574   1.788  14.352  0.1622 -0.7023  0.1676
13471TIP3   OH261903   4.513   0.049   3.582  0.2302 -0.1805  0.2840
13471TIP3    H161904   4.465   0.031   3.501  1.6883 -0.3872 -0.5521
13471TIP3    H261905   4.540   0.141   3.574  1.4764 -0.5674 -0.0620
13472TIP3   OH261906   2.846   1.814   3.477 -0.2465 -0.0917  0.3586
13472TIP3    H161907   2.937   1.786   3.489 -0.9517 -2.3134  0.7785
13472TIP3    H261908   2.806   1.742   3.428 -1.7101  1.0017 -0.0740
13473TIP3   OH261909   5.104   3.568   0.966 -0.4564 -0.7197 -0.4621
13473TIP3    H161910   5.114   3.484   1.010 -0.5295 -0.2625  0.4548
13473TIP3    H261911   5.026   3.607   1.007  0.3443  0.3576  0.0516
13474TIP3   OH261912   2.440   5.552   3.535  0.0600  0.4061 -0.8473
13474TIP3    H161913   2.467   5.643   3.548 -1.4214  0.7422  0.1074
13474TIP3    H261914   2.474   5.506   3.612 -1.1474  0.6251 -0.1680
13475TIP3   OH261915   2.102   6.611   5.607  0.5000 -0.2399  0.5548
13475TIP3    H161916   2.148   6.620   5.524 -0.3127  0.3208  0.1571
13475TIP3    H261917   2.034   6.545   5.589 -0.5969  0.9199  0.3581
13476TIP3   OH261918   0.765   0.408   0.844  0.0961 -0.5455 -0.1245
13476TIP3    H161919   0.762   0.352   0.922 -0.1840 -0.6153 -0.1817
13476TIP3    H261920   0.848   0.386   0.802  0.7087  0.2261  0.6848
13477TIP3   OH261921   4.660   1.945   6.639  0.0834 -0.5386  0.2415
13477TIP3    H161922   4.597   1.889   6.593 -1.9227  0.8439  1.2297
13477TIP3    H261923   4.641   2.033   6.606  2.3012 -0.2450 -0.3058
13478TIP3   OH261924   3.266   2.529   4.577  0.6456 -0.1661  0.2693
13478TIP3    H161925   3.301   2.443   4.552 -0.7470 -0.9774  1.0452
13478TIP3    H261926   3.173   2.524   4.555  0.2453  0.5902  1.7722
13479TIP3   OH261927   5.658   0.605   4.907  0.8664  0.9023  0.0755
13479TIP3    H161928   5.589   0.582   4.970  2.1905  0.0560  1.2445
13479TIP3    H261929   5.637   0.555   4.829  0.9996 -0.5758  0.9624
13480TIP3   OH261930   0.111   5.488   0.981  0.6190  0.1282  0.0641
13480TIP3    H161931   0.113   5.546   0.905  1.3189 -0.5738 -0.4602
13480TIP3    H261932   0.062   5.537   1.047 -0.4009  0.5527 -0.9876
13481TIP3   OH261933   5.971   3.699   3.880  0.1733 -0.3532  0.0897
13481TIP3    H161934   6.029   3.726   3.808 -0.3669 -0.7454 -0.5005
13481TIP3    H261935   5.888   3.680   3.837 -0.5364  0.6675  0.9971
13482TIP3   OH261936   4.659   3.365  14.142 -0.1625  0.2726 -0.0327
13482TIP3    H161937   4.703   3.357  14.227  1.5712  3.8246 -0.5173
13482TIP3    H261938   4.578   3.412  14.162 -0.1598  0.3599 -0.2242
13483TIP3   OH261939   0.897   1.695   3.135 -0.1855 -0.4533  0.3443
13483TIP3    H161940   0.817   1.648   3.112 -0.6433  0.8867 -0.8304
13483TIP3    H261941   0.871   1.752   3.208 -0.1983 -0.2964  0.2156
13484TIP3   OH261942   4.499   0.214  12.975 -0.2224  0.4103  0.4396
13484TIP3    H161943   4.460   0.144  13.027 -0.5715  0.3632  0.1221
13484TIP3    H261944   4.437   0.227  12.902 -0.4117  1.3858  0.7627
13485TIP3   OH261945   4.184   3.444   5.553 -0.2610  0.1170  0.0242
13485TIP3    H161946   4.202   3.355   5.584 -0.6063 -0.4791 -1.4055
13485TIP3    H261947   4.122   3.431   5.481  1.4311  1.3189 -1.6963
13486TIP3   OH261948   5.992   2.595   0.282 -0.2722 -0.0447 -0.2104
13486TIP3    H161949   5.933   2.552   0.219  1.6433 -0.4807 -1.7705
13486TIP3    H261950   6.027   2.671   0.234  1.8328 -0.8322  0.0090
13487TIP3   OH261951   0.904   5.215   1.278 -0.1428 -0.4695  0.1794
13487TIP3    H161952   0.860   5.198   1.362 -0.7892 -1.4921 -0.3480
13487TIP3    H261953   0.871   5.300   1.250 -3.2921 -2.0493 -1.1224
13488TIP3   OH261954   3.361   2.187  11.170 -0.2447  0.1078 -0.0273
13488TIP3    H161955   3.385   2.127  11.240 -0.0504  0.4705  0.2177
13488TIP3    H261956   3.403   2.151  11.092  0.9984  0.6734  0.3764
13489TIP3   OH261957   0.874   3.198  16.408 -0.1998  0.6153  0.2674
13489TIP3    H161958   0.966   3.189  16.383 -0.2315  0.6383  0.1403
13489TIP3    H261959   0.871   3.174  16.501 -0.5250 -2.1423 -0.4152
13490TIP3   OH261960   3.218   4.135  11.239 -0.1274  0.2043 -0.3740
13490TIP3    H161961   3.230   4.094  11.325 -1.2879 -2.7697 -1.5568
13490TIP3    H261962   3.130   4.173  11.243 -0.6966 -1.0523 -0.6485
13491TIP3   OH261963   4.626   5.445   4.349 -0.8257  0.9741  0.4319
13491TIP3    H161964   4.708   5.469   4.394 -1.4286  2.7174  0.6633
13491TIP3    H261965   4.622   5.504   4.274 -2.2197  1.4089  0.8270
13492TIP3   OH261966   3.728   2.923   6.545 -0.3149  0.3283 -0.0559
13492TIP3    H161967   3.668   2.995   6.525 -1.4339 -0.6122 -0.1349
13492TIP3    H261968   3.675   2.861   6.595  0.6726 -0.3931  0.1048
13493TIP3   OH261969   2.887   4.557   1.742  0.3551  0.0935  0.0257
13493TIP3    H161970   2.897   4.525   1.652  0.6023  1.9047 -0.6034
13493TIP3    H261971   2.862   4.479   1.792 -0.9411 -0.7056 -1.8102
13494TIP3   OH261972   5.346   3.664   1.087  0.3475  0.3553 -0.0901
13494TIP3    H161973   5.301   3.589   1.048  1.2724 -1.1504  1.6707
13494TIP3    H261974   5.278   3.731   1.095 -1.3077 -1.4545  1.4015
13495TIP3   OH261975   4.644   5.774   3.503 -0.2832 -0.7556  0.0905
13495TIP3    H161976   4.627   5.833   3.430  1.8467  3.2701  2.6401
13495TIP3    H261977   4.559   5.764   3.547 -0.5611  0.9436 -0.0381
13496TIP3   OH261978   5.978   5.548   4.871  0.1798 -0.0487  0.4604
13496TIP3    H161979   6.024   5.604   4.809 -1.5684 -0.1059 -0.9386
13496TIP3    H261980   5.893   5.532   4.830 -0.5286 -1.1441  2.2952
13497TIP3   OH261981   1.807   5.080   3.111  0.4664 -0.9706  0.0626
13497TIP3    H161982   1.894   5.048   3.090  0.8116  0.5196 -0.8441
13497TIP3    H261983   1.748   5.010   3.084  1.2455 -1.1439 -1.2190
13498TIP3   OH261984   6.494   6.319  13.532  0.6624 -0.1964 -0.9206
13498TIP3    H161985   6.450   6.403  13.541  1.2611  0.0869 -0.5367
13498TIP3    H261986   6.586   6.342  13.517  0.7390 -0.7777 -1.3503
13499TIP3   OH261987   4.131   6.467  12.466  0.8577 -0.2616 -0.2157
13499TIP3    H161988   4.141   6.382  12.509  1.1372 -0.0262  0.1767
13499TIP3    H261989   4.049   6.502  12.501  0.3315 -0.7108 -0.9601
13500TIP3   OH261990   2.780   5.434   2.164 -0.2915 -0.3135 -0.2227
13500TIP3    H161991   2.785   5.404   2.255  0.5443  0.8176  0.1172
13500TIP3    H261992   2.728   5.367   2.120 -0.1166 -1.2361  0.9325
13501TIP3   OH261993   2.725   1.992  12.549 -0.1720  0.2967 -0.4420
13501TIP3    H161994   2.770   2.066  12.508  0.8165  0.2541  0.5337
13501TIP3    H261995   2.780   1.916  12.531  0.4774  0.3426  1.2580
13502TIP3   OH261996   1.075   0.065  14.324 -0.5326  0.9221 -0.0440
13502TIP3    H161997   1.137  -0.000  14.357  0.0313  3.1146  3.4389
13502TIP3    H261998   0.998   0.014  14.298  0.5427 -1.2802  0.9790
13503TIP3   OH261999   4.466   6.706   2.651  0.0024  0.0599  0.3424
13503TIP3    H162000   4.454   6.743   2.563 -1.4522  0.4466  0.6891
13503TIP3    H262001   4.559   6.719   2.670  0.3783 -0.2250 -1.2248
13504TIP3   OH262002   2.098   5.264  11.252 -0.3936  0.5054  0.1989
13504TIP3    H162003   2.048   5.307  11.182 -0.9590 -0.1021  0.2261
13504TIP3    H262004   2.047   5.281  11.331  0.0003  0.7922  0.3878
13505TIP3   OH262005   5.004   6.343  13.483 -0.5856  0.2549  0.1217
13505TIP3    H162006   4.965   6.297  13.409 -0.0365 -1.8334  1.1009
13505TIP3    H262007   4.930   6.370  13.537 -0.9208  0.8231 -0.6101
13506TIP3   OH262008   1.091   1.645  15.842 -0.2691  0.0043  0.0948
13506TIP3    H162009   1.047   1.648  15.927 -0.2258  0.0640  0.1161
13506TIP3    H262010   1.029   1.601  15.785  0.1086 -0.9351  0.3928
13507TIP3   OH262011   5.214   4.365  12.812  0.1492  0.1160 -0.1935
13507TIP3    H162012   5.174   4.451  12.822 -0.1256  0.1883 -1.7395
13507TIP3    H262013   5.175   4.329  12.732  1.3900 -0.8054 -0.4113
13508TIP3   OH262014   2.934   0.770   5.015 -0.3028  0.1409  0.0630
13508TIP3    H162015   2.998   0.830   4.977  0.6332 -0.4596  0.6701
13508TIP3    H262016   2.977   0.737   5.094 -1.0414 -0.8822  0.0388
13509TIP3   OH262017   1.148   3.794  14.662  0.1221  0.4645  0.1695
13509TIP3    H162018   1.144   3.736  14.737  0.8339 -2.3229 -1.8393
13509TIP3    H262019   1.060   3.793  14.625  0.1853  0.4693  0.0140
13510TIP3   OH262020   3.163   5.136   3.151  0.1598  0.1300 -0.3189
13510TIP3    H162021   3.083   5.135   3.203  0.6270  1.4704  0.4575
13510TIP3    H262022   3.151   5.066   3.087 -1.3702 -0.0789  0.1725
13511TIP3   OH262023   6.543   2.819  15.371  0.0836  0.2657  0.1778
13511TIP3    H162024   6.513   2.899  15.328 -1.1971 -0.3692 -0.1140
13511TIP3    H262025   6.638   2.831  15.380 -0.0043  1.5178 -0.4830
13512TIP3   OH262026   5.618   3.822   0.520 -0.3556 -0.1121 -0.1980
13512TIP3    H162027   5.663   3.821   0.604 -0.4321  0.6504 -0.1436
13512TIP3    H262028   5.545   3.883   0.533  0.2381  0.8008 -1.1318
13513TIP3   OH262029   6.131   3.541  13.443 -0.4068 -0.4151  0.4364
13513TIP3    H162030   6.218   3.559  13.477 -0.6593 -0.2474  1.0033
13513TIP3    H262031   6.080   3.618  13.468 -1.3494 -1.6022  2.3253
13514TIP3   OH262032   4.544   6.343  16.750  0.1675 -0.5950  0.1683
13514TIP3    H162033   4.584   6.381  16.672 -1.9240  1.4971  0.0668
13514TIP3    H262034   4.616   6.336  16.813  1.3827 -0.1071 -1.1502
13515TIP3   OH262035   1.509   4.922   3.777  0.1626 -0.1374 -0.3875
13515TIP3    H162036   1.530   4.828   3.778 -0.9444 -0.4286 -2.0910
13515TIP3    H262037   1.553   4.955   3.699 -0.3054  0.5460 -0.3630
13516TIP3   OH262038   1.386   3.692  12.578  1.0379  0.4071 -0.0887
13516TIP3    H162039   1.346   3.714  12.662  1.3298 -0.0499  0.1748
13516TIP3    H262040   1.315   3.652  12.528  1.5205 -1.8035  0.9380
13517TIP3   OH262041   3.006   3.088   4.223  0.0049 -0.5047  0.2718
13517TIP3    H162042   3.054   3.006   4.238 -0.9180 -1.1248 -0.1578
13517TIP3    H262043   2.981   3.084   4.131  0.7806  0.7117 -0.0015
13518TIP3   OH262044   5.530   4.293  11.284 -0.8065 -0.2509 -0.2122
13518TIP3    H162045   5.490   4.276  11.369  1.0364 -2.4427  0.2487
13518TIP3    H262046   5.524   4.210  11.237  1.2744 -0.0148 -0.9314
13519TIP3   OH262047   5.225   0.992   5.028 -0.1934 -0.0084  0.1401
13519TIP3    H162048   5.280   1.064   5.059 -1.3689  0.9943 -0.1148
13519TIP3    H262049   5.248   0.982   4.936  2.2334 -2.0321  0.8859
13520TIP3   OH262050   2.266   4.552  16.720  0.3481 -0.1535 -0.0052
13520TIP3    H162051   2.204   4.480  16.707  0.2236  0.2619 -1.8835
13520TIP3    H262052   2.217   4.617  16.770  0.2093 -1.0255  1.0235
13521TIP3   OH262053   5.513   4.522  11.126 -0.7971  0.6361 -0.5528
13521TIP3    H162054   5.535   4.449  11.185 -1.9498  0.1274 -0.7567
13521TIP3    H262055   5.595   4.571  11.119 -0.2549 -0.1157  0.3213
13522TIP3   OH262056   4.452   3.349  12.476  0.1222  0.7151  0.5073
13522TIP3    H162057   4.512   3.323  12.546  1.8194 -2.1619 -1.8950
13522TIP3    H262058   4.365   3.344  12.516  1.1149 -0.0344  2.6319
13523TIP3   OH262059   4.977   5.115   2.746 -0.3346  0.6236  0.0644
13523TIP3    H162060   4.957   5.159   2.829 -2.3146  0.7094 -0.4155
13523TIP3    H262061   5.071   5.098   2.749 -0.4976 -0.0179  2.6401
13524TIP3   OH262062   3.237   4.040   6.123 -0.6354 -0.3971  0.0447
13524TIP3    H162063   3.254   3.958   6.168 -2.5582 -1.5217 -1.1975
13524TIP3    H262064   3.168   4.082   6.175 -0.5707 -0.1937 -0.0331
13525TIP3   OH262065   4.215   4.414  12.542 -0.0572 -0.0319 -0.0428
13525TIP3    H162066   4.240   4.332  12.584  1.8552  0.9027  0.7175
13525TIP3    H262067   4.200   4.475  12.614 -0.4498  0.5668 -0.6213
13526TIP3   OH262068   2.090   5.368   6.577 -0.0148  0.1827 -0.2527
13526TIP3    H162069   2.126   5.370   6.488 -0.8822  0.5184 -0.6016
13526TIP3    H262070   2.009   5.317   6.568 -1.5299  2.4916 -0.2011
13527TIP3   OH262071   1.142   1.467  15.061 -0.3001 -0.8866  0.4547
13527TIP3    H162072   1.054   1.432  15.074 -1.2782  1.3953  0.1272
13527TIP3    H262073   1.166   1.441  14.972 -1.8282  0.9701 -0.5213
13528TIP3   OH262074   0.391   5.136   4.343 -0.2035 -0.7748  0.0373
13528TIP3    H162075   0.475   5.174   4.368 -0.4295 -0.6618  0.6163
13528TIP3    H262076   0.413   5.048   4.312  0.3329 -0.1510 -1.3984
13529TIP3   OH262077   3.479   5.248   4.168  0.2745 -0.5942  0.7309
13529TIP3    H162078   3.474   5.312   4.097 -1.6268 -0.3194  1.0859
13529TIP3    H262079   3.541   5.182   4.137 -0.0617 -0.1489 -0.9220
13530TIP3   OH262080   0.854   1.920   2.056 -0.0021 -0.2755 -0.3125
13530TIP3    H162081   0.783   1.885   2.004 -0.1498  0.8748 -0.9147
13530TIP3    H262082   0.817   1.934   2.143 -1.0501  1.9602 -1.0702
13531TIP3   OH262083   4.131   0.578   4.673 -0.1500  0.0287  0.4045
13531TIP3    H162084   4.204   0.516   4.681  1.8959  2.2626 -0.6449
13531TIP3    H262085   4.117   0.587   4.579 -1.4278  0.0440  0.5867
13532TIP3   OH262086   4.431   1.079   0.353 -0.6599  0.2553 -0.0305
13532TIP3    H162087   4.445   1.173   0.365 -0.9324  0.5566 -1.9282
13532TIP3    H262088   4.370   1.055   0.422 -2.7327  2.0432 -1.1791
13533TIP3   OH262089   4.149   0.469  17.119  0.0154  0.4332 -0.0484
13533TIP3    H162090   4.161   0.397  17.058  1.3694  1.2792 -0.8127
13533TIP3    H262091   4.152   0.548  17.065  0.9502  1.1860  1.0533
13534TIP3   OH262092   4.683   3.101   3.261 -0.0328 -0.5741 -0.2187
13534TIP3    H162093   4.698   3.017   3.218 -0.2128 -1.2766  1.0568
13534TIP3    H262094   4.679   3.164   3.190  2.4005 -1.3023 -1.0275
13535TIP3   OH262095   1.004   4.235  11.610 -0.3384  0.0605 -0.0827
13535TIP3    H162096   1.085   4.276  11.640 -0.8127  0.1786  1.0832
13535TIP3    H262097   0.949   4.230  11.689 -1.1995 -0.6358 -0.7120
13536TIP3   OH262098   5.800   4.474  13.796  0.1869 -0.2635  0.3040
13536TIP3    H162099   5.855   4.495  13.720 -1.7230  2.7268 -0.3541
13536TIP3    H262100   5.846   4.514  13.870 -0.2869  0.9420 -0.0287
13537TIP3   OH262101   0.132   2.235  15.414 -0.1706  0.1152 -0.3442
13537TIP3    H162102   0.090   2.149  15.416 -1.3508  0.6980  0.9971
13537TIP3    H262103   0.184   2.237  15.495 -0.0421  0.6248 -0.4414
13538TIP3   OH262104   5.796   4.036   4.956  0.3433  0.0287 -0.4374
13538TIP3    H162105   5.731   3.969   4.976  1.4254 -0.7323  0.5612
13538TIP3    H262106   5.786   4.100   5.026  0.4281  0.0949 -0.4862
13539TIP3   OH262107   3.063   1.554   1.304 -0.2329 -0.1232 -0.1078
13539TIP3    H162108   3.023   1.637   1.278 -0.7085 -1.0431 -2.3988
13539TIP3    H262109   3.155   1.564   1.282 -0.0063  0.3098  0.9763
13540TIP3   OH262110   1.892   2.330  16.160 -0.0226 -0.5361 -0.8160
13540TIP3    H162111   1.933   2.258  16.208 -0.0968 -1.2358 -1.7866
13540TIP3    H262112   1.845   2.287  16.088 -1.6676  0.3211 -0.2860
13541TIP3   OH262113   0.187   0.714   3.196  0.2653  0.0381 -0.0178
13541TIP3    H162114   0.272   0.756   3.208  1.5210 -2.1644 -1.0052
13541TIP3    H262115   0.154   0.701   3.285  2.1177 -1.3556  0.4935
13542TIP3   OH262116   3.565   5.650   3.761 -0.1206  0.8486 -0.1696
13542TIP3    H162117   3.506   5.622   3.691  0.9215  0.0450 -0.7375
13542TIP3    H262118   3.564   5.745   3.756 -0.5695  0.8189 -0.8400
13543TIP3   OH262119   2.448   2.913  13.082  0.7577 -0.0379 -0.1565
13543TIP3    H162120   2.418   2.829  13.118  1.2238 -0.5521 -0.9458
13543TIP3    H262121   2.538   2.921  13.111  0.3217  0.8072  0.9824
13544TIP3   OH262122   3.146   4.513  14.084  0.0157  0.4683 -0.2609
13544TIP3    H162123   3.071   4.540  14.031 -0.7036  0.9159  0.9715
13544TIP3    H262124   3.108   4.463  14.156  1.0030 -0.3315 -0.2900
13545TIP3   OH262125   2.402   3.940   1.341  0.9349 -0.1461  0.0289
13545TIP3    H162126   2.366   3.865   1.293  0.1219 -0.5460  1.2429
13545TIP3    H262127   2.427   4.002   1.272 -1.3151 -0.2100 -0.9118
13546TIP3   OH262128   4.118   6.674  11.561 -0.0167 -0.5042  0.2316
13546TIP3    H162129   4.050   6.622  11.517 -0.1561 -0.8619  0.8666
13546TIP3    H262130   4.078   6.703  11.642 -0.0294  0.8597 -0.2612
13547TIP3   OH262131   2.074   6.131  13.914 -0.1560  0.5984  0.7070
13547TIP3    H162132   2.089   6.143  13.820 -0.4712 -0.1234  0.5659
13547TIP3    H262133   2.068   6.220  13.948 -0.4628  0.8630 -0.0254
13548TIP3   OH262134   1.178   4.288   4.350 -0.4209  0.4151  0.7439
13548TIP3    H162135   1.146   4.352   4.414 -2.1944 -0.5673  0.8677
13548TIP3    H262136   1.109   4.222   4.345  0.2601 -0.1741 -1.2769
13549TIP3   OH262137   6.752   1.394   3.919 -0.7097 -0.0811 -0.6279
13549TIP3    H162138   6.812   1.326   3.888 -0.7214  0.2770 -1.4515
13549TIP3    H262139   6.665   1.355   3.911 -0.6785 -0.1521 -0.6213
13550TIP3   OH262140   5.298   4.471   0.050  0.1134  0.2888  0.2725
13550TIP3    H162141   5.322   4.535  -0.018 -0.9175  0.6647  0.2638
13550TIP3    H262142   5.314   4.518   0.132 -0.4694  0.5056  0.2672
13551TIP3   OH262143   5.854   1.678   1.694 -0.6164 -0.2137 -0.2594
13551TIP3    H162144   5.765   1.694   1.663 -0.1167 -2.8750 -3.4409
13551TIP3    H262145   5.905   1.750   1.657 -1.0530  0.0327 -0.3891
13552TIP3   OH262146   3.325   1.046  14.000  0.1471 -0.3725 -0.2847
13552TIP3    H162147   3.414   1.027  13.971 -0.5653 -2.9154 -0.9388
13552TIP3    H262148   3.296   1.118  13.944  1.8808  0.6538  0.1319
13553TIP3   OH262149   6.707   0.996  11.477  0.1279 -0.4838  0.7075
13553TIP3    H162150   6.671   0.926  11.422  0.1431  0.3970 -0.4576
13553TIP3    H262151   6.767   0.951  11.537 -1.8429 -1.7886  1.7598
13554TIP3   OH262152   4.599   3.929  13.306  0.1557  0.3243  0.0824
13554TIP3    H162153   4.639   3.976  13.379  0.2465  0.2115  0.1062
13554TIP3    H262154   4.505   3.930  13.325 -0.0564  2.2177 -0.9172
13555TIP3   OH262155   4.778   6.156  14.735  0.1535 -0.0847  0.3847
13555TIP3    H162156   4.757   6.086  14.796  2.0962 -1.3214 -0.3300
13555TIP3    H262157   4.712   6.223  14.752 -0.2875 -1.0713  2.7279
13556TIP3   OH262158   6.653   4.988   4.099  0.7183  0.4948 -0.0001
13556TIP3    H162159   6.606   4.905   4.108 -1.6224  1.7976  0.2457
13556TIP3    H262160   6.695   5.001   4.184 -0.7997  0.6424  0.7552
13557TIP3   OH262161   3.430   6.001   3.812  0.7336 -0.2266 -0.2852
13557TIP3    H162162   3.520   5.973   3.798  1.2453 -0.2611  2.7018
13557TIP3    H262163   3.437   6.083   3.860 -0.8181 -0.0053 -0.3951
13558TIP3   OH262164   5.883   1.720   3.312 -0.0976  0.9222  0.2782
13558TIP3    H162165   5.896   1.718   3.407 -2.1843  1.1502  0.5905
13558TIP3    H262166   5.958   1.769   3.279  2.4931 -2.0609  1.4580
13559TIP3   OH262167   5.150   2.278  12.718  0.2174 -0.4104 -0.7188
13559TIP3    H162168   5.212   2.255  12.649 -0.2595 -2.4843 -0.4807
13559TIP3    H262169   5.206   2.299  12.794  0.7250  1.5921 -1.6038
13560TIP3   OH262170   0.477   5.954  15.265  0.8126  0.1921  0.0598
13560TIP3    H162171   0.550   6.015  15.279  0.6688  0.5081 -0.5603
13560TIP3    H262172   0.492   5.884  15.329  0.3013  1.4783  1.5938
13561TIP3   OH262173   1.975   3.235  16.411 -0.1037 -0.1337 -0.0292
13561TIP3    H162174   1.903   3.253  16.472  0.3393 -0.4376  0.5750
13561TIP3    H262175   1.953   3.151  16.372 -0.2653 -0.0487 -0.1247
13562TIP3   OH262176   1.605   2.677  16.301  0.3164 -0.5397 -0.1236
13562TIP3    H162177   1.655   2.712  16.374  1.7050 -1.5070 -0.5763
13562TIP3    H262178   1.568   2.595  16.334 -1.3956  0.4020  0.3562
13563TIP3   OH262179   4.027   1.450   3.996  0.0574  0.0855  0.3930
13563TIP3    H162180   4.053   1.409   3.914 -0.5859 -0.1029  0.2844
13563TIP3    H262181   3.937   1.423   4.009 -0.0021  0.5268  0.9083
13564TIP3   OH262182   3.568   3.459   2.132 -0.0162 -0.0693  0.0130
13564TIP3    H162183   3.561   3.552   2.110 -0.0709 -0.4376 -1.5548
13564TIP3    H262184   3.568   3.457   2.228  1.7956  1.6879  0.0812
13565TIP3   OH262185   5.042   1.647   6.427  0.7399  0.9496 -0.7800
13565TIP3    H162186   5.001   1.698   6.357  0.6894 -0.0788 -1.5122
13565TIP3    H262187   5.021   1.695   6.508 -4.3572 -1.0369 -0.7804
13566TIP3   OH262188   2.432   4.329  11.779 -0.0201 -0.0395  0.0680
13566TIP3    H162189   2.470   4.381  11.708 -0.7796  1.0391  0.4498
13566TIP3    H262190   2.408   4.246  11.737  1.1439 -0.0811 -0.5504
13567TIP3   OH262191   6.349   0.785   1.889 -0.1203 -0.3781 -0.2767
13567TIP3    H162192   6.400   0.716   1.846 -0.1317 -1.4384  1.3488
13567TIP3    H262193   6.265   0.784   1.844 -0.0833 -1.3584 -0.3292
13568TIP3   OH262194   6.349   4.922   2.417 -0.0260 -0.1062  0.5383
13568TIP3    H162195   6.330   4.833   2.387 -0.2490  0.3679 -0.7815
13568TIP3    H262196   6.291   4.935   2.492 -1.4833 -0.3920 -0.4964
13569TIP3   OH262197   5.566   5.973   1.995  0.2271  0.0949  0.6832
13569TIP3    H162198   5.517   5.908   2.047  0.5318  1.8218  3.2240
13569TIP3    H262199   5.648   5.984   2.042  1.0189  0.8521 -0.8575
13570TIP3   OH262200   1.493   3.605  11.230 -0.3759  0.0987 -0.4568
13570TIP3    H162201   1.460   3.592  11.319 -1.2609  0.2891 -0.7525
13570TIP3    H262202   1.421   3.647  11.183 -0.5416 -1.5221 -1.7050
13571TIP3   OH262203   5.943   1.674  10.725  0.8017 -0.1984 -0.8333
13571TIP3    H162204   5.957   1.591  10.678  1.1410 -1.8129  2.0245
13571TIP3    H262205   5.990   1.663  10.807 -1.2810  1.8675  0.6684
13572TIP3   OH262206   0.039   4.271   1.481 -0.3729 -0.2015  0.1903
13572TIP3    H162207   0.120   4.285   1.431  0.7027 -1.3310  1.5552
13572TIP3    H262208  -0.029   4.264   1.414  0.5739  1.1980 -0.9692
13573TIP3   OH262209   5.259   2.003   1.616 -0.3626  0.1759 -0.5657
13573TIP3    H162210   5.240   1.940   1.547 -0.1856  0.9466 -1.3275
13573TIP3    H262211   5.179   2.056   1.624  0.3253  1.3926 -1.5953
13574TIP3   OH262212   5.470   2.975  16.971  0.0086 -0.0748 -0.2528
13574TIP3    H162213   5.458   2.881  16.959  0.3884 -0.3406  1.3406
13574TIP3    H262214   5.499   2.984  17.062  0.5973  1.5294 -0.5865
13575TIP3   OH262215   5.126   1.582  11.926 -0.2369 -0.2537 -0.0391
13575TIP3    H162216   5.109   1.500  11.880 -0.6954 -1.2057  1.7873
13575TIP3    H262217   5.158   1.556  12.012  0.8601  1.5007  0.1222
13576TIP3   OH262218   4.162   1.000   2.830  0.1112  0.1073 -0.0683
13576TIP3    H162219   4.149   1.043   2.746 -0.3198  2.4143  1.1457
13576TIP3    H262220   4.256   1.008   2.848  0.5217 -1.9589 -1.1209
13577TIP3   OH262221   5.870   5.437   3.683  0.1227  0.2438  0.8444
13577TIP3    H162222   5.901   5.377   3.615  0.9043  1.1494  0.3837
13577TIP3    H262223   5.839   5.380   3.754 -1.3644 -0.7283 -0.5399
13578TIP3   OH262224   6.536   4.041   1.207 -0.5960  0.4549  0.0210
13578TIP3    H162225   6.576   4.013   1.290 -1.4087 -1.1167 -0.0889
13578TIP3    H262226   6.442   4.041   1.224 -0.8833 -1.5285 -1.3446
13579TIP3   OH262227   1.073   1.297  12.649 -0.3112  0.1073 -0.4939
13579TIP3    H162228   1.145   1.331  12.596 -0.7559  1.3883 -0.2951
13579TIP3    H262229   1.113   1.230  12.704  0.5472  0.1727 -1.0292
13580TIP3   OH262230   5.399   3.970  15.849 -0.5185 -0.6285 -0.0271
13580TIP3    H162231   5.330   4.021  15.808 -1.0153 -1.6969 -0.5276
13580TIP3    H262232   5.458   3.947  15.777 -0.0320 -0.3639  0.2774
13581TIP3   OH262233   5.522   4.417   0.963  0.5728  0.4211 -0.0012
13581TIP3    H162234   5.432   4.410   0.993  0.0226 -1.5692 -1.9989
13581TIP3    H262235   5.530   4.507   0.931 -1.8251 -0.3847 -3.0952
13582TIP3   OH262236   1.433   3.925  16.983 -0.4182 -0.0246 -1.0298
13582TIP3    H162237   1.352   3.951  16.941 -0.5507 -0.3338 -0.9692
13582TIP3    H262238   1.450   3.837  16.950  0.9932  0.8139 -2.6437
13583TIP3   OH262239   1.868   5.977  16.387 -0.0849 -0.0310 -0.0906
13583TIP3    H162240   1.825   5.934  16.312  0.4400 -0.3048 -0.2307
13583TIP3    H262241   1.854   5.917  16.460 -0.5170  0.1923  0.0134
13584TIP3   OH262242   2.943   1.004  14.682 -0.5067  0.0687 -0.6088
13584TIP3    H162243   2.992   1.078  14.718 -0.2113 -0.5551  0.3080
13584TIP3    H262244   3.011   0.939  14.661 -0.8548 -0.3875 -0.3236
13585TIP3   OH262245   0.782   6.089  17.160  0.6972 -0.1839 -0.4895
13585TIP3    H162246   0.759   6.174  17.199  3.1676  0.6189 -0.6978
13585TIP3    H262247   0.805   6.034  17.235 -1.1798 -0.7926 -0.3347
13586TIP3   OH262248   2.749   4.380   5.619 -0.0169 -0.2210 -0.4300
13586TIP3    H162249   2.781   4.382   5.708  0.7212  1.5876 -0.7158
13586TIP3    H262250   2.723   4.289   5.604 -0.4917 -0.4510  1.7323
13587TIP3   OH262251   6.773   4.704   0.288  0.1245 -0.0131  0.1835
13587TIP3    H162252   6.778   4.614   0.319  2.4048 -0.1400 -0.4870
13587TIP3    H262253   6.795   4.757   0.365  0.6539 -0.0976  0.0863
13588TIP3   OH262254   5.826   3.405  11.162 -0.6810 -0.1850 -0.1501
13588TIP3    H162255   5.747   3.374  11.118 -0.7272  1.4907 -1.2777
13588TIP3    H262256   5.830   3.499  11.142  1.3042 -0.1425  0.3409
13589TIP3   OH262257   3.795   6.415   4.050  0.0406  0.0885  0.7412
13589TIP3    H162258   3.727   6.376   3.995  2.1528 -1.8108 -0.6470
13589TIP3    H262259   3.825   6.342   4.105  1.0441  0.8390  1.1981
13590TIP3   OH262260   5.776   3.686  12.904  0.1729  0.0618 -0.1995
13590TIP3    H162261   5.867   3.687  12.934 -0.0422  1.2949  0.4390
13590TIP3    H262262   5.766   3.767  12.854 -1.1220  0.9339  1.4269
13591TIP3   OH262263   5.688   5.768  12.566  0.0858 -0.5480  0.2600
13591TIP3    H162264   5.613   5.707  12.563  0.9292 -1.5574 -2.0382
13591TIP3    H262265   5.756   5.720  12.613 -0.8426  0.5536  2.7664
13592TIP3   OH262266   6.536   1.206  11.603  0.4807  0.3362 -0.0596
13592TIP3    H162267   6.524   1.292  11.642 -0.5038  0.5785 -0.8790
13592TIP3    H262268   6.624   1.208  11.565  0.6526  0.7991  0.3639
13593TIP3   OH262269   0.558   3.754  13.772  0.5133 -0.1396  0.0755
13593TIP3    H162270   0.541   3.661  13.787 -1.0288  0.3392  1.5532
13593TIP3    H262271   0.652   3.759  13.757  0.2176 -2.2945 -3.0604
13594TIP3   OH262272   0.780   1.214   4.902 -0.7010  0.4082  0.2139
13594TIP3    H162273   0.762   1.287   4.844 -0.7575 -0.1511 -0.4778
13594TIP3    H262274   0.729   1.141   4.866 -1.6960  0.3570  1.6413
13595TIP3   OH262275   6.405   4.398   3.138  0.1369  0.3658  0.1825
13595TIP3    H162276   6.331   4.432   3.088  3.0469  1.8938 -3.2917
13595TIP3    H262277   6.434   4.321   3.089  1.3941  0.2779  1.0573
13596TIP3   OH262278   5.078   3.163  13.202  0.0508  0.1089  0.3941
13596TIP3    H162279   5.156   3.210  13.172  1.1435 -2.1123 -0.3426
13596TIP3    H262280   5.007   3.196  13.147  1.1791 -0.5380 -1.4737
13597TIP3   OH262281   2.486   4.762  12.394 -0.1414 -0.4201 -0.1897
13597TIP3    H162282   2.401   4.798  12.421  0.2226  1.5891 -1.6389
13597TIP3    H262283   2.532   4.747  12.477 -1.3719 -0.2171  0.5579
13598TIP3   OH262284   6.742   3.342   5.516 -0.4781 -0.5450  0.1758
13598TIP3    H162285   6.735   3.416   5.455  0.4928  0.4576  1.2631
13598TIP3    H262286   6.822   3.296   5.489  0.1567  0.1115  0.8934
13599TIP3   OH262287   2.743   6.308  12.245 -0.1534 -0.5341 -0.6414
13599TIP3    H162288   2.678   6.376  12.262  0.4870 -0.4798  1.8553
13599TIP3    H262289   2.811   6.324  12.311  0.6989 -2.7038 -0.9768
13600TIP3   OH262290   1.258   4.121  15.252  0.1677 -0.3230  0.2471
13600TIP3    H162291   1.164   4.142  15.254  0.0539 -0.6755 -1.1620
13600TIP3    H262292   1.291   4.165  15.174  1.1094 -0.5067  0.5421
13601TIP3   OH262293   5.946   1.911  12.249  0.1652  0.5869  0.5376
13601TIP3    H162294   5.884   1.977  12.218  0.6852 -0.7745 -3.6981
13601TIP3    H262295   5.992   1.953  12.321 -2.9321  3.0303  1.1892
13602TIP3   OH262296   1.794   5.784   3.478  0.5153 -0.2654  0.4231
13602TIP3    H162297   1.865   5.723   3.459  0.2163 -1.3302  2.6217
13602TIP3    H262298   1.775   5.771   3.571 -0.9009  1.7635  0.4531
13603TIP3   OH262299   6.280   1.480   2.487 -0.1138  0.0198  0.0104
13603TIP3    H162300   6.279   1.523   2.401 -2.4937 -0.1239 -0.0767
13603TIP3    H262301   6.282   1.386   2.467 -0.8577 -0.0189  0.0865
13604TIP3   OH262302   2.295   2.277  14.198  0.3275  0.5956 -0.8292
13604TIP3    H162303   2.263   2.367  14.194  0.2647  0.5773 -0.7463
13604TIP3    H262304   2.356   2.276  14.272 -1.1315  0.1118  0.3867
13605TIP3   OH262305   1.902   4.722   0.057  0.0330  0.2981 -0.1648
13605TIP3    H162306   1.896   4.647   0.116  0.4694  0.4641  0.0854
13605TIP3    H262307   1.970   4.698  -0.006 -0.0279  0.3659 -0.2582
13606TIP3   OH262308   5.775   3.695  15.813  0.1752 -0.2450  0.0120
13606TIP3    H162309   5.856   3.700  15.763  0.4363 -0.9067  0.3508
13606TIP3    H262310   5.778   3.608  15.854  0.2551  0.5113  1.6519
13607TIP3   OH262311   1.370   6.107   1.100 -0.1632  0.3035  0.1679
13607TIP3    H162312   1.298   6.046   1.085  1.0389 -1.5961  1.8332
13607TIP3    H262313   1.438   6.054   1.140  0.7717  2.8170  2.0439
13608TIP3   OH262314   4.068   0.315   0.563 -0.3456  0.2733  0.2510
13608TIP3    H162315   4.026   0.287   0.481  0.5782 -0.8646  0.1563
13608TIP3    H262316   4.160   0.328   0.539 -0.0429 -0.2064  1.1392
13609TIP3   OH262317   4.999   0.374  15.729  0.2826  0.6535  0.1109
13609TIP3    H162318   4.921   0.329  15.762 -0.0408  3.0924  2.8531
13609TIP3    H262319   4.966   0.431  15.660 -0.0945  0.4253  0.1023
13610TIP3   OH262320   2.607   2.087   5.525 -0.3312 -0.0475 -0.1813
13610TIP3    H162321   2.568   2.000   5.517  0.1900 -0.4174  1.2026
13610TIP3    H262322   2.669   2.092   5.453 -1.1465 -0.3995 -0.9217
13611TIP3   OH262323   3.053   6.186  12.783  0.7448 -0.2817  0.3248
13611TIP3    H162324   3.124   6.207  12.723  0.0919 -0.2303 -0.4228
13611TIP3    H262325   3.072   6.238  12.861  1.1405  0.2724 -0.1381
13612TIP3   OH262326   3.879   1.470  16.673 -0.9501  0.4803 -0.6725
13612TIP3    H162327   3.872   1.565  16.676 -0.0622  0.5101  1.1627
13612TIP3    H262328   3.966   1.453  16.635 -0.5064  0.4319  0.3493
13613TIP3   OH262329   1.312   3.103  13.999 -0.0353  0.0099 -0.0158
13613TIP3    H162330   1.251   3.031  14.016 -3.9147  3.0175 -0.6916
13613TIP3    H262331   1.328   3.099  13.905  0.7994 -0.7215  0.1466
13614TIP3   OH262332   0.994   5.723   1.591 -0.7795  0.3423  0.4867
13614TIP3    H162333   0.939   5.653   1.556  0.3618 -1.0716  1.4543
13614TIP3    H262334   1.058   5.678   1.647  0.8040  2.0286  0.0893
13615TIP3   OH262335   2.030   2.632  12.836  0.4895  0.0919 -0.8541
13615TIP3    H162336   2.043   2.694  12.764  1.1752 -0.3420 -1.1176
13615TIP3    H262337   2.118   2.618  12.871  0.1350  0.4267  0.1762
13616TIP3   OH262338   5.349   0.235   4.776  0.3336 -0.3121  0.3341
13616TIP3    H162339   5.430   0.243   4.727 -0.0100  1.5604  0.0398
13616TIP3    H262340   5.361   0.291   4.853 -0.5102 -0.3497  0.5011
13617TIP3   OH262341   3.739   3.548   2.575  0.4200  0.2680 -0.0754
13617TIP3    H162342   3.830   3.565   2.548  0.4418  0.7888  0.3219
13617TIP3    H262343   3.731   3.592   2.659 -0.4245  0.8351 -0.4484
13618TIP3   OH262344   4.587   6.633  14.975 -0.1697  0.6815 -0.3972
13618TIP3    H162345   4.676   6.611  15.001 -0.2972 -2.6043 -2.4371
13618TIP3    H262346   4.596   6.711  14.919  1.3615  0.6703 -0.1737
13619TIP3   OH262347   1.388   0.256   2.129 -0.0042  0.2636  0.5718
13619TIP3    H162348   1.354   0.182   2.078  1.1079  0.2570 -0.1670
13619TIP3    H262349   1.346   0.247   2.215  0.5350 -1.5433  0.6682
13620TIP3   OH262350   3.588   3.542   5.564  0.0482  0.3113 -0.1084
13620TIP3    H162351   3.505   3.578   5.593 -0.1295 -0.1367 -0.0563
13620TIP3    H262352   3.573   3.515   5.474  0.1363  0.2338 -0.1010
13621TIP3   OH262353   6.707   2.114  13.866 -0.2393 -1.1754  0.2949
13621TIP3    H162354   6.802   2.111  13.875 -0.1771  1.1800  0.6861
13621TIP3    H262355   6.675   2.124  13.956 -0.6458  1.7822 -0.1378
13622TIP3   OH262356   4.429   2.510   1.875  0.0410 -0.0086 -0.1817
13622TIP3    H162357   4.367   2.575   1.908 -0.2630 -0.1962 -0.3869
13622TIP3    H262358   4.500   2.563   1.837  0.3582  0.2051  0.6928
13623TIP3   OH262359   4.868   2.989  12.710  0.7974  0.5861  0.1842
13623TIP3    H162360   4.863   3.072  12.663 -0.7635 -0.2654 -1.2293
13623TIP3    H262361   4.881   2.924  12.641  0.2439 -0.5042  1.0896
13624TIP3   OH262362   5.196   3.748  10.606  0.0292 -0.3966  0.4208
13624TIP3    H162363   5.162   3.826  10.650  0.8316 -0.3636  0.9906
13624TIP3    H262364   5.246   3.703  10.674  0.5731 -0.7817 -0.2390
13625TIP3   OH262365   0.525   6.513  12.432 -0.0760 -0.5926  0.5887
13625TIP3    H162366   0.601   6.477  12.478 -0.5703  0.1779  2.0340
13625TIP3    H262367   0.451   6.496  12.490 -0.7846 -0.0070 -0.1238
13626TIP3   OH262368   5.782   0.156  16.582  0.2102 -0.1605  0.3578
13626TIP3    H162369   5.764   0.226  16.519  0.7956 -1.1543 -0.9518
13626TIP3    H262370   5.826   0.200  16.655 -1.4672  1.1853  0.5831
13627TIP3   OH262371   3.367   5.410  12.165  0.1055 -0.7650  0.3066
13627TIP3    H162372   3.283   5.363  12.174  0.5109 -1.2512  1.6574
13627TIP3    H262373   3.354   5.491  12.212  0.6809 -1.2228  1.2582
13628TIP3   OH262374   4.999   4.952  16.842 -0.0733  0.2021 -1.1982
13628TIP3    H162375   5.029   4.989  16.760 -1.0285  1.6818 -0.9234
13628TIP3    H262376   5.046   4.870  16.852  1.4460  0.9359 -2.2917
13629TIP3   OH262377   4.360   2.823   1.663  0.5475 -0.1769 -0.0808
13629TIP3    H162378   4.332   2.872   1.586 -0.9129 -1.4763 -0.3999
13629TIP3    H262379   4.285   2.768   1.685 -0.0666  2.0730  3.8663
13630TIP3   OH262380   0.288   3.406  16.920  0.3738 -0.0258 -0.5856
13630TIP3    H162381   0.316   3.373  16.834  0.3948 -0.2906 -0.4794
13630TIP3    H262382   0.343   3.358  16.983  0.7105  0.5338 -0.4495
13631TIP3   OH262383   4.343   0.319  16.956  0.0394  0.3894 -0.4246
13631TIP3    H162384   4.262   0.279  16.989 -0.5912  1.2473 -0.9136
13631TIP3    H262385   4.413   0.274  17.004 -0.7160 -0.4120 -0.0502
13632TIP3   OH262386   0.538   0.884   0.099 -0.4431  0.2676 -0.7000
13632TIP3    H162387   0.602   0.835   0.151 -0.4432 -1.4105 -2.2154
13632TIP3    H262388   0.569   0.974   0.100 -0.0022  0.1266  1.5124
13633TIP3   OH262389   4.615   1.119  14.446  0.0970  1.1714  0.0528
13633TIP3    H162390   4.553   1.069  14.394 -0.1321  0.8617  0.6105
13633TIP3    H262391   4.573   1.127  14.532  2.1078 -1.6505  1.3820
13634TIP3   OH262392   0.285   1.503   5.303  0.4040 -0.1254  0.6978
13634TIP3    H162393   0.277   1.579   5.362  0.8417  0.7299 -0.3194
13634TIP3    H262394   0.375   1.472   5.316 -0.1445 -1.2043  1.9790
13635TIP3   OH262395   2.256   1.757  13.463  0.7859 -0.2865 -0.0595
13635TIP3    H162396   2.244   1.670  13.425 -2.1144 -0.8476  1.9768
13635TIP3    H262397   2.330   1.747  13.523  1.8239 -0.7784 -1.3891
13636TIP3   OH262398   2.744   4.378   1.219 -0.4412 -0.1169  0.3955
13636TIP3    H162399   2.650   4.395   1.218 -0.6153 -1.0792 -0.0619
13636TIP3    H262400   2.752   4.289   1.185  0.6758  0.1590 -0.0571
13637TIP3   OH262401   5.052   1.763  10.834 -0.2553  0.0791 -0.1688
13637TIP3    H162402   5.015   1.833  10.887  0.8291 -0.2300  1.0284
13637TIP3    H262403   4.999   1.762  10.754  0.5453  3.1081 -0.7892
13638TIP3   OH262404   2.445   2.318   3.596  1.1822 -0.2797 -0.1236
13638TIP3    H162405   2.424   2.401   3.638  0.3560  0.6723 -2.2993
13638TIP3    H262406   2.532   2.332   3.557  0.2522  0.2544 -2.0819
13639TIP3   OH262407   2.425   4.541   3.700 -0.4538  0.1002 -0.1796
13639TIP3    H162408   2.370   4.535   3.778 -0.8973 -2.9503 -0.6525
13639TIP3    H262409   2.365   4.526   3.627  0.1888  1.6024 -1.0541
13640TIP3   OH262410   6.167   3.802   0.024  0.2530 -0.6865 -0.7337
13640TIP3    H162411   6.164   3.809  -0.072  0.6434 -0.9194 -0.7636
13640TIP3    H262412   6.140   3.712   0.042  1.0406 -0.9212 -0.6779
13641TIP3   OH262413   2.770   4.021   2.317  0.1473  0.0722  0.1339
13641TIP3    H162414   2.815   3.952   2.367  0.2045 -0.0371 -0.0654
13641TIP3    H262415   2.759   4.093   2.379  0.6955  0.1394  0.1498
13642TIP3   OH262416   6.174   2.213  16.441 -0.0801  0.0738  0.1791
13642TIP3    H162417   6.117   2.188  16.513  0.2005  0.8864  0.6855
13642TIP3    H262418   6.114   2.238  16.371 -0.3465 -0.0354  0.3669
13643TIP3   OH262419   5.799   5.117   6.612  0.0358 -0.3838  0.3710
13643TIP3    H162420   5.830   5.048   6.671  0.3449 -1.7655 -1.3621
13643TIP3    H262421   5.724   5.078   6.568 -0.3998  0.7598  0.0933
13644TIP3   OH262422   3.341   3.728   0.647  0.0735  0.5070 -0.0799
13644TIP3    H162423   3.334   3.657   0.712  0.2382 -0.0599 -0.6741
13644TIP3    H262424   3.289   3.799   0.684 -0.2423  0.0132  0.4462
13645TIP3   OH262425   2.908   0.118   5.516 -0.0301 -0.0048  0.1162
13645TIP3    H162426   2.817   0.123   5.543  0.2362  1.2742  0.8262
13645TIP3    H262427   2.950   0.062   5.581 -0.5876 -1.8430 -1.0539
13646TIP3   OH262428   6.377   2.587   1.217 -0.0073  0.1263 -0.0210
13646TIP3    H162429   6.335   2.540   1.145 -0.4842  0.9660 -0.2943
13646TIP3    H262430   6.322   2.664   1.231  0.4922  0.3521  0.7568
13647TIP3   OH262431   0.638   5.366   2.121 -0.5701 -0.1980  0.3086
13647TIP3    H162432   0.640   5.457   2.153 -0.2574  0.9735 -2.9254
13647TIP3    H262433   0.683   5.316   2.189 -0.5372  2.0867  2.0316
13648TIP3   OH262434   2.330   2.970  17.087 -0.2227 -0.0987 -0.1161
13648TIP3    H162435   2.248   2.951  17.040  0.0170  2.1767 -1.5123
13648TIP3    H262436   2.304   3.027  17.159  0.1496  0.9501 -0.7892
13649TIP3   OH262437   2.064   1.135  15.420  0.0852 -0.3491  0.3646
13649TIP3    H162438   1.982   1.158  15.464  1.5931  0.8673  2.6409
13649TIP3    H262439   2.087   1.049  15.456 -0.9342 -1.3916 -1.4099
13650TIP3   OH262440   6.449   3.409  16.987 -0.6044 -0.2198 -0.1069
13650TIP3    H162441   6.391   3.333  16.991  0.1415 -0.7271  1.0944
13650TIP3    H262442   6.523   3.379  16.934  0.8267 -1.1160  2.3439
13651TIP3   OH262443   3.088   3.214  11.594  0.8901 -0.0868  0.4540
13651TIP3    H162444   3.153   3.249  11.533  0.4657  0.3406  0.2465
13651TIP3    H262445   3.088   3.275  11.668  0.2851  0.2561  0.1762
13652TIP3   OH262446   1.634   6.635  13.110  0.0713 -0.4515 -0.0504
13652TIP3    H162447   1.629   6.731  13.114 -0.7539 -0.5095  0.4388
13652TIP3    H262448   1.592   6.612  13.027 -0.1358 -0.4121  0.0430
13653TIP3   OH262449   0.994   5.402  11.364 -0.2028  0.0086  0.0622
13653TIP3    H162450   1.083   5.433  11.352 -0.4490  0.4864 -0.5507
13653TIP3    H262451   0.984   5.334  11.296  0.4960 -1.7854  1.7026
13654TIP3   OH262452   1.275   3.978   1.897 -0.2561  0.3435  0.4400
13654TIP3    H162453   1.186   4.008   1.913 -0.3694  0.6261 -0.6400
13654TIP3    H262454   1.267   3.886   1.873 -0.2598  0.3719  0.3313
13655TIP3   OH262455   5.045   5.590   0.018 -0.6642 -0.3893 -0.1807
13655TIP3    H162456   4.966   5.537   0.007 -1.1600  0.1077  0.9445
13655TIP3    H262457   5.017   5.680   0.003  0.2221 -0.4352 -2.3030
13656TIP3   OH262458   4.212   5.194   5.706  0.7759 -0.2078 -0.1963
13656TIP3    H162459   4.158   5.200   5.785  2.4940  0.0978  0.9877
13656TIP3    H262460   4.150   5.175   5.636 -0.7577 -0.7275  1.2619
13657TIP3   OH262461   5.737   5.595   5.472  0.1029 -0.6244  0.2632
13657TIP3    H162462   5.782   5.610   5.556  0.7268 -0.5568 -0.0762
13657TIP3    H262463   5.745   5.501   5.458  1.0708 -0.4673 -0.3057
13658TIP3   OH262464   5.795   0.596   2.277 -0.4975  0.5559 -0.1823
13658TIP3    H162465   5.811   0.689   2.292  0.6582  0.1204  1.4823
13658TIP3    H262466   5.807   0.584   2.183 -0.3740  2.0475 -0.3567
13659TIP3   OH262467   4.868   2.743   2.832 -0.0960 -0.3476  0.8026
13659TIP3    H162468   4.779   2.723   2.861 -0.0605 -0.3073  0.9363
13659TIP3    H262469   4.897   2.662   2.790 -0.7581  0.1313 -0.6252
13660TIP3   OH262470   0.314   2.156   0.743  0.0087  0.2397  0.0855
13660TIP3    H162471   0.324   2.245   0.709  1.6517 -1.3763 -3.9106
13660TIP3    H262472   0.403   2.121   0.746 -0.7391 -1.6942  0.4880
13661TIP3   OH262473   3.220   1.206   2.648  0.2687 -0.2773  0.6718
13661TIP3    H162474   3.312   1.223   2.626  0.1345 -1.0988 -0.5134
13661TIP3    H262475   3.218   1.115   2.678  0.0014  0.0426  1.6704
13662TIP3   OH262476   3.942   2.203  12.940  0.2302  0.7634 -0.2248
13662TIP3    H162477   3.881   2.149  12.990  0.3797  0.1201 -0.7282
13662TIP3    H262478   3.944   2.163  12.853  1.2552  0.8588 -0.2559
13663TIP3   OH262479   2.099   3.707   3.257 -0.6444  0.1917  0.1002
13663TIP3    H162480   2.118   3.765   3.331 -0.1451  0.4792 -0.2480
13663TIP3    H262481   2.100   3.764   3.180 -0.4526 -0.2193 -0.2073
13664TIP3   OH262482   3.793   6.693   4.040  0.1741  0.0253 -0.2351
13664TIP3    H162483   3.755   6.717   3.956  0.8213  0.9934 -0.2636
13664TIP3    H262484   3.838   6.611   4.024 -0.0377  0.0054 -0.7362
13665TIP3   OH262485   5.359   0.664   5.007  0.2697 -0.1153 -0.2917
13665TIP3    H162486   5.403   0.745   5.035 -1.1559  0.9842 -1.1635
13665TIP3    H262487   5.288   0.653   5.071 -0.7317  0.4064 -1.2881
13666TIP3   OH262488   4.279   6.536   3.794  0.4297 -0.0234  0.4067
13666TIP3    H162489   4.295   6.572   3.881 -0.2453  0.6795  0.2358
13666TIP3    H262490   4.300   6.443   3.803  1.1070  0.1894  1.1195
13667TIP3   OH262491   1.464   6.131   6.015 -0.0408  0.2233 -0.1715
13667TIP3    H162492   1.379   6.175   6.016 -0.5763 -0.7886  0.0031
13667TIP3    H262493   1.457   6.066   6.086  1.0222  0.4074  0.1055
13668TIP3   OH262494   1.268   0.783   1.402  0.0445 -0.6464 -0.1845
13668TIP3    H162495   1.239   0.849   1.339 -0.8923 -1.1283 -0.2684
13668TIP3    H262496   1.325   0.830   1.463 -0.8745  0.3082 -0.0581
13669TIP3   OH262497   2.190   2.210   3.679  0.2194  0.2300  0.6202
13669TIP3    H162498   2.206   2.124   3.718  0.0049 -0.9068 -1.6825
13669TIP3    H262499   2.268   2.261   3.699  0.8059 -0.8446  1.1103
13670TIP3   OH262500   5.908   2.151  15.037 -0.5820 -0.6364  0.1762
13670TIP3    H162501   5.963   2.088  14.992  1.3473  0.3540  1.0963
13670TIP3    H262502   5.867   2.102  15.108 -0.9768 -1.3916 -0.5608
13671TIP3   OH262503   1.705   3.063   5.456  0.7006  0.0835  0.0027
13671TIP3    H162504   1.659   3.021   5.529  2.6055 -0.6335  0.8071
13671TIP3    H262505   1.636   3.112   5.409 -1.2065 -2.3871  0.1411
13672TIP3   OH262506   6.571   2.516  15.541 -0.3917 -0.6626  0.2235
13672TIP3    H162507   6.640   2.506  15.474 -0.2305 -0.3550  0.3402
13672TIP3    H262508   6.568   2.610  15.556 -1.8818 -0.5223 -0.8654
13673TIP3   OH262509   1.821   4.274  13.810  0.0823  0.0395  0.4549
13673TIP3    H162510   1.763   4.345  13.839 -0.6087 -0.2501 -0.1770
13673TIP3    H262511   1.765   4.196  13.812  0.1047 -0.0346 -1.3241
13674TIP3   OH262512   6.109   0.739  16.369  0.3473 -0.3442 -0.4629
13674TIP3    H162513   6.120   0.803  16.440  3.7565 -1.8818  0.4984
13674TIP3    H262514   6.034   0.686  16.396  1.6251 -0.9395  2.0875
13675TIP3   OH262515   1.035   3.270   0.230  0.6996  0.0584  0.5697
13675TIP3    H162516   1.054   3.329   0.157 -1.5558 -0.4186 -0.4288
13675TIP3    H262517   1.102   3.291   0.296  0.8657  2.6478 -0.3800
13676TIP3   OH262518   6.733   1.976   2.615 -0.6565 -0.3874 -0.3347
13676TIP3    H162519   6.828   1.975   2.600 -0.4706 -0.9025  0.8730
13676TIP3    H262520   6.716   2.060   2.657 -0.3272 -1.4368  1.9801
13677TIP3   OH262521   2.695   5.600  15.023  0.1871  0.2724 -0.5863
13677TIP3    H162522   2.675   5.585  14.931 -2.3631 -1.1407  0.1327
13677TIP3    H262523   2.742   5.521  15.051  0.1850  0.3125 -0.4696
13678TIP3   OH262524   2.223   5.224  12.290  0.0581 -0.2607 -0.2562
13678TIP3    H162525   2.131   5.200  12.282  0.4436 -2.0791  0.3831
13678TIP3    H262526   2.235   5.243  12.383  0.5046 -0.8267 -0.1968
13679TIP3   OH262527   6.361   3.702   4.676 -0.3183 -0.3105 -0.0981
13679TIP3    H162528   6.320   3.784   4.703  1.0264  0.4722 -0.3660
13679TIP3    H262529   6.397   3.665   4.757 -1.3481 -0.9014  0.1049
13680TIP3   OH262530   6.204   5.825  12.199  0.0690  0.2696 -0.0062
13680TIP3    H162531   6.189   5.916  12.172  1.3769  0.7053  0.7105
13680TIP3    H262532   6.226   5.779  12.118  2.6703  1.2903  0.0935
13681TIP3   OH262533   2.629   0.050   5.869  0.1931  0.6537 -0.2678
13681TIP3    H162534   2.713   0.073   5.909  1.8645 -2.2090 -1.9397
13681TIP3    H262535   2.638   0.076   5.777  0.1597 -1.6760 -0.9658
13682TIP3   OH262536   0.728   4.367   1.458  0.2145  0.2487 -0.4407
13682TIP3    H162537   0.779   4.402   1.386 -1.2261  1.3141 -0.9485
13682TIP3    H262538   0.660   4.313   1.417 -0.0329  0.0896  0.1606
13683TIP3   OH262539   4.896   2.980   6.286 -0.5718 -0.0664  0.0814
13683TIP3    H162540   4.898   3.075   6.290  2.4829 -0.0809 -0.0920
13683TIP3    H262541   4.909   2.951   6.376  0.3052 -0.3140 -0.1197
13684TIP3   OH262542   4.087   6.019  10.375  0.5198 -0.1242 -0.4023
13684TIP3    H162543   4.145   6.027  10.299 -0.7835  2.3043 -1.2079
13684TIP3    H262544   4.134   6.063  10.446  1.1640 -1.2357 -0.1294
13685TIP3   OH262545   0.200   3.374  11.983 -0.4543  0.1588 -0.0093
13685TIP3    H162546   0.237   3.368  12.071 -3.0992 -0.3175  1.1240
13685TIP3    H262547   0.202   3.285  11.949 -0.0212  0.2359 -0.1912
13686TIP3   OH262548   0.651   0.368  16.900 -0.1114 -0.1596 -0.1536
13686TIP3    H162549   0.694   0.443  16.942 -0.1992 -0.4935  0.5574
13686TIP3    H262550   0.579   0.406  16.850 -1.3174  0.0759  1.7196
13687TIP3   OH262551   2.984   3.522  13.496  0.7069 -0.1258  0.2088
13687TIP3    H162552   2.889   3.534  13.503  0.9840  1.2400  1.8427
13687TIP3    H262553   3.001   3.523  13.402 -0.6092  2.0661 -0.0538
13688TIP3   OH262554   4.664   4.079  11.376 -0.1483 -0.2225  0.2301
13688TIP3    H162555   4.612   4.094  11.297  0.4504  0.4049 -0.0558
13688TIP3    H262556   4.610   4.114  11.447 -1.6322 -2.7275  0.3915
13689TIP3   OH262557   3.633   4.491  14.596  0.0592 -0.3081 -0.1019
13689TIP3    H162558   3.659   4.514  14.685  1.4269 -1.3277 -0.2293
13689TIP3    H262559   3.697   4.426  14.568 -0.9100 -0.6867 -1.4972
13690TIP3   OH262560   1.399   6.232  11.071  0.6140  0.0800 -0.6267
13690TIP3    H162561   1.333   6.227  11.003  0.0413 -3.0177  0.1012
13690TIP3    H262562   1.482   6.235  11.024  0.0837  2.8749 -1.5153
13691TIP3   OH262563   1.687   1.813  15.909  0.6459  0.2073  0.0243
13691TIP3    H162564   1.633   1.877  15.956  1.4464  0.8529  0.0741
13691TIP3    H262565   1.691   1.845  15.819  0.0613 -0.4169 -0.2277
13692TIP3   OH262566   0.248   4.467   4.321 -0.6562 -0.2915 -0.2494
13692TIP3    H162567   0.244   4.525   4.397  2.2423 -1.3009  0.7435
13692TIP3    H262568   0.184   4.398   4.341 -0.0372 -0.4680  1.2370
13693TIP3   OH262569   4.152   4.148  17.257 -0.4215 -0.0284 -0.8966
13693TIP3    H162570   4.154   4.111  17.346 -1.1477 -0.0395 -0.8849
13693TIP3    H262571   4.203   4.087  17.205  2.1421  1.2571 -0.0122
13694TIP3   OH262572   0.122   0.816   4.727  0.1296  0.1912  0.3398
13694TIP3    H162573   0.087   0.803   4.815  1.3243  2.2804  1.1625
13694TIP3    H262574   0.045   0.840   4.675 -0.4326 -0.0615  1.0435
13695TIP3   OH262575   4.646   6.687   5.617 -0.2427  0.5183 -0.6831
13695TIP3    H162576   4.715   6.653   5.673  0.4918  1.0763 -1.2469
13695TIP3    H262577   4.629   6.775   5.652 -0.2896  0.5883 -0.8820
13696TIP3   OH262578   1.774   1.756   1.769  0.7635 -0.2434 -0.4174
13696TIP3    H162579   1.720   1.830   1.739  1.3610 -0.7958 -2.9830
13696TIP3    H262580   1.777   1.766   1.864  0.1283  2.5598 -0.6363
13697TIP3   OH262581   0.443   2.376  16.473 -0.6428 -0.7950  0.5989
13697TIP3    H162582   0.469   2.464  16.501 -0.1047 -0.6364 -0.3764
13697TIP3    H262583   0.372   2.391  16.411 -0.6242 -1.0634  0.5157
13698TIP3   OH262584   4.552   4.694  10.551 -0.0171 -0.3920 -0.3766
13698TIP3    H162585   4.479   4.676  10.610  0.3795  0.1373  0.2848
13698TIP3    H262586   4.524   4.658  10.467 -1.6855  1.1599 -0.5298
13699TIP3   OH262587   4.574   2.185  15.264 -0.5706 -0.3292 -0.5288
13699TIP3    H162588   4.651   2.129  15.253  0.8698  1.6201 -0.4840
13699TIP3    H262589   4.579   2.248  15.192 -0.3911  1.7690  1.2583
13700TIP3   OH262590   2.118   3.940  16.567  0.3724 -0.0944 -0.9634
13700TIP3    H162591   2.068   4.022  16.569  0.2955 -0.1397  2.1553
13700TIP3    H262592   2.208   3.967  16.553  0.3719  0.5759  0.2314
13701TIP3   OH262593   1.786   0.837   3.307 -0.2322 -1.0437 -0.3187
13701TIP3    H162594   1.783   0.825   3.402 -0.8413 -0.3011 -0.2321
13701TIP3    H262595   1.879   0.843   3.286 -0.1151 -0.4774  0.3406
13702TIP3   OH262596   6.004   6.302   4.995  0.0949 -0.1369 -0.1694
13702TIP3    H162597   5.989   6.274   4.905 -2.6397 -1.4037  0.6205
13702TIP3    H262598   6.056   6.233   5.034  1.8363  0.7211 -0.9173
13703TIP3   OH262599   5.686   6.697   4.903  0.1230 -0.0580 -0.4110
13703TIP3    H162600   5.700   6.791   4.915  1.9354 -0.3262 -0.3084
13703TIP3    H262601   5.735   6.656   4.974 -1.5355 -1.0470  0.1806
13704TIP3   OH262602   5.855   0.448   3.279 -0.1519 -0.0568 -0.3457
13704TIP3    H162603   5.915   0.518   3.252  0.4384  0.6587  2.6624
13704TIP3    H262604   5.876   0.375   3.222  1.9577  0.9591 -0.9160
13705TIP3   OH262605   3.387   0.370   1.312  0.1192  0.0371 -0.5087
13705TIP3    H162606   3.331   0.293   1.307 -0.0154  0.1119 -0.1968
13705TIP3    H262607   3.439   0.368   1.231 -1.6982  1.0040 -1.7446
13706TIP3   OH262608   6.247   2.366   3.377  0.3452  0.3848  0.0375
13706TIP3    H162609   6.302   2.442   3.397  1.8283 -0.5421 -0.4382
13706TIP3    H262610   6.282   2.333   3.294 -1.5350  0.3272 -0.7428
13707TIP3   OH262611   0.220   1.560  13.589  0.6266  0.5166  0.2810
13707TIP3    H162612   0.142   1.554  13.645 -0.3675  1.0077 -1.0209
13707TIP3    H262613   0.238   1.654  13.583  3.3408  0.2502  3.2715
13708TIP3   OH262614   0.154   4.960  13.977  0.0844 -0.1496  0.2320
13708TIP3    H162615   0.182   5.039  14.024  0.2829 -1.0396  1.6406
13708TIP3    H262616   0.234   4.926  13.938  0.7681 -1.7960  2.9078
13709TIP3   OH262617   4.063   3.434  11.789 -0.2749 -0.3755 -0.8995
13709TIP3    H162618   4.019   3.489  11.853 -0.3482 -0.4407 -0.8938
13709TIP3    H262619   4.060   3.485  11.708 -0.1132 -0.2599 -0.8324
13710TIP3   OH262620   5.789   4.568   3.071  0.2721 -0.3886 -0.1781
13710TIP3    H162621   5.747   4.541   2.989  1.1393  0.3146 -0.8698
13710TIP3    H262622   5.837   4.648   3.048  1.7466 -1.0184  0.6584
13711TIP3   OH262623   3.782   1.300  11.952 -0.3754 -0.3219  0.3217
13711TIP3    H162624   3.830   1.381  11.934  0.1190 -0.3790  1.3930
13711TIP3    H262625   3.690   1.325  11.941 -0.2479  0.5126  1.1441
13712TIP3   OH262626   3.596   1.555  15.633  0.5483 -0.3623 -0.3409
13712TIP3    H162627   3.529   1.492  15.660  0.5872  0.1452  0.9502
13712TIP3    H262628   3.676   1.524  15.676  1.7470 -2.3691 -3.7670
13713TIP3   OH262629   4.151   5.374   2.825 -0.0451 -0.3896 -0.1198
13713TIP3    H162630   4.095   5.451   2.822  0.4260  0.0246  1.2695
13713TIP3    H262631   4.134   5.335   2.911  0.6055 -1.1522 -0.3281
13714TIP3   OH262632   2.759   3.214  15.507 -0.0552 -0.3602  0.0703
13714TIP3    H162633   2.756   3.160  15.586  0.2115  0.6481  0.7707
13714TIP3    H262634   2.828   3.277  15.524 -1.3370  1.1266 -0.1617
13715TIP3   OH262635   5.104   5.026  13.406  0.2637  0.3144 -0.4164
13715TIP3    H162636   5.023   4.981  13.430  0.5591  0.5676  1.0658
13715TIP3    H262637   5.085   5.119  13.421  0.7426  0.4002 -0.3309
13716TIP3   OH262638   6.537   0.506  14.361  0.2440  0.5969 -0.1461
13716TIP3    H162639   6.509   0.441  14.426  0.4653  0.5122 -0.1339
13716TIP3    H262640   6.513   0.590  14.400  1.6144  0.6218  0.6612
13717TIP3   OH262641   5.877   3.325  16.864 -0.1911  0.4685 -0.2689
13717TIP3    H162642   5.862   3.232  16.851 -0.6956  0.1758  2.2099
13717TIP3    H262643   5.789   3.363  16.869 -0.0044  0.8354  0.2690
13718TIP3   OH262644   4.488   2.588   5.127 -0.3447  0.2081 -0.1239
13718TIP3    H162645   4.504   2.496   5.106  0.5792  0.1926  0.6550
13718TIP3    H262646   4.562   2.614   5.181 -2.0489  0.5872  2.1235
13719TIP3   OH262647   5.663   6.207   0.448  0.6048  0.0898 -1.0017
13719TIP3    H162648   5.752   6.237   0.434  0.4178 -0.2046 -2.9066
13719TIP3    H262649   5.638   6.166   0.366 -1.7631  1.3785 -0.9830
13720TIP3   OH262650   3.062   1.843   3.901  0.3323 -0.0170 -0.0103
13720TIP3    H162651   3.139   1.839   3.843  0.6349 -1.2039  0.4448
13720TIP3    H262652   3.009   1.767   3.875  0.1159 -0.1335  0.7784
13721TIP3   OH262653   4.217   5.471   3.572 -0.2132  0.0566  0.3355
13721TIP3    H162654   4.193   5.381   3.551 -1.5508  0.5061 -0.2012
13721TIP3    H262655   4.263   5.466   3.655  0.6278 -1.2302 -0.2011
13722TIP3   OH262656   2.350   5.968  16.921  0.1916  0.5453 -0.1920
13722TIP3    H162657   2.395   5.928  16.995 -1.8013  1.4471  1.5433
13722TIP3    H262658   2.373   5.913  16.846  1.7325 -0.7334  1.1964
13723TIP3   OH262659   5.561   2.732   2.879  0.5111 -0.1406  0.1801
13723TIP3    H162660   5.638   2.682   2.853  0.9397 -0.0405  1.2437
13723TIP3    H262661   5.595   2.799   2.938 -0.2183  0.6869 -0.3274
13724TIP3   OH262662   4.720   1.634   5.367  0.1986  0.0357  0.0672
13724TIP3    H162663   4.725   1.672   5.279  1.1876  0.5304  0.3276
13724TIP3    H262664   4.809   1.642   5.402  0.0545 -1.0999  0.7241
13725TIP3   OH262665   3.123   3.408   2.239  0.1737 -0.0626 -0.2953
13725TIP3    H162666   3.199   3.354   2.260 -1.2812 -1.9844  0.0720
13725TIP3    H262667   3.050   3.366   2.284 -1.3386  1.0770 -1.6333
13726TIP3   OH262668   5.981   5.468  11.421 -0.3480 -0.0525  0.2854
13726TIP3    H162669   5.903   5.524  11.423 -0.8896 -0.8199  0.9255
13726TIP3    H262670   5.962   5.405  11.351 -0.1372 -0.0000  0.1828
13727TIP3   OH262671   0.062   6.274   2.617  0.1549 -0.3187 -0.0304
13727TIP3    H162672   0.028   6.267   2.706 -0.8716  2.5042 -0.1575
13727TIP3    H262673   0.096   6.187   2.598 -0.1270 -1.1394  2.9041
13728TIP3   OH262674   5.570   0.929   5.576  0.4540 -0.4679  0.6000
13728TIP3    H162675   5.510   0.880   5.632  0.5786  0.4654  1.5892
13728TIP3    H262676   5.600   0.866   5.511 -0.3030 -1.3782  1.1209
13729TIP3   OH262677   5.707   4.053   0.231  0.1317 -0.0333  0.3792
13729TIP3    H162678   5.746   3.987   0.289  0.5149 -0.2326 -0.1019
13729TIP3    H262679   5.770   4.124   0.230 -0.2646  0.3292  0.8667
13730TIP3   OH262680   5.749   5.082   2.449  0.0457 -0.2413  0.2090
13730TIP3    H162681   5.831   5.074   2.497 -0.0221 -0.2829  0.3186
13730TIP3    H262682   5.753   5.015   2.382  0.6811  0.6389 -0.6383
13731TIP3   OH262683   1.315   3.553   2.213 -0.0386 -0.0450  0.1429
13731TIP3    H162684   1.225   3.585   2.206  0.4651  1.6283  1.0995
13731TIP3    H262685   1.347   3.587   2.296  1.7137 -0.0110 -0.5143
13732TIP3   OH262686   0.449   3.347   3.691 -0.1262  0.2346  0.1293
13732TIP3    H162687   0.491   3.262   3.705 -0.6973  0.1904  1.7202
13732TIP3    H262688   0.485   3.378   3.609  1.4263 -0.7565  0.4038
13733TIP3   OH262689   4.613   5.453  12.383  0.3965  0.1399  0.2570
13733TIP3    H162690   4.627   5.529  12.439 -2.4461 -1.6323  3.5519
13733TIP3    H262691   4.563   5.392  12.437 -0.1241 -2.7986 -3.3423
13734TIP3   OH262692   0.302   3.496   5.901  0.2927 -0.2744 -0.0291
13734TIP3    H162693   0.358   3.418   5.893  1.0671  0.2563  0.1516
13734TIP3    H262694   0.352   3.555   5.957  0.5152  1.0778 -1.6238
13735TIP3   OH262695   0.102   3.695   1.598  0.3857 -0.2717  0.2097
13735TIP3    H162696   0.177   3.638   1.614  1.0419 -0.5363 -3.2552
13735TIP3    H262697   0.134   3.783   1.616  1.5572 -0.3894 -1.1604
13736TIP3   OH262698   4.093   4.259  16.092  0.7701 -0.4921 -0.2447
13736TIP3    H162699   4.039   4.222  16.162 -1.2775  1.4779 -0.7367
13736TIP3    H262700   4.148   4.324  16.136 -0.4350  0.6651 -0.4435
13737TIP3   OH262701   6.672   1.626  15.500  0.2802 -0.6249 -0.3287
13737TIP3    H162702   6.650   1.585  15.583 -1.2195  0.0892 -0.3542
13737TIP3    H262703   6.737   1.693  15.523 -2.1808  1.4752  0.7163
13738TIP3   OH262704   2.413   3.206   2.527  0.5491 -0.2076  0.1396
13738TIP3    H162705   2.424   3.162   2.443  0.0687 -0.2927  0.1178
13738TIP3    H262706   2.449   3.146   2.591 -0.0528 -0.6033  0.1046
13739TIP3   OH262707   5.810   3.361   4.742  0.1502  0.3271 -0.2541
13739TIP3    H162708   5.824   3.267   4.747 -1.0902 -0.0309 -2.8998
13739TIP3    H262709   5.884   3.394   4.692 -0.4879  0.4689 -1.1154
13740TIP3   OH262710   6.582   3.542  11.597 -0.0874 -0.3217 -0.1907
13740TIP3    H162711   6.619   3.473  11.652 -1.2355 -1.4959 -0.8571
13740TIP3    H262712   6.634   3.539  11.517  0.1885 -0.0962 -0.0149
13741TIP3   OH262713   5.555   4.159   6.574  0.4850  0.1387  0.0685
13741TIP3    H162714   5.486   4.220   6.600  0.1858  0.5444 -1.6260
13741TIP3    H262715   5.508   4.080   6.546  0.8975 -1.2658  3.1215
13742TIP3   OH262716   5.190   5.076   0.173 -0.2967  0.0770  0.4086
13742TIP3    H162717   5.246   5.049   0.246  0.4968  0.9056  0.1214
13742TIP3    H262718   5.224   5.162   0.148 -0.5494 -0.2115 -0.9508
13743TIP3   OH262719   5.046   5.051   0.549  0.2622  0.3477  1.0122
13743TIP3    H162720   5.074   5.141   0.531  0.2732  0.4592  1.5558
13743TIP3    H262721   5.126   4.999   0.539  0.4022  0.4934  1.3379
13744TIP3   OH262722   1.075   5.012   1.259 -0.2998  0.3011  0.0542
13744TIP3    H162723   1.025   5.094   1.257 -1.0120 -0.1501 -1.1721
13744TIP3    H262724   1.112   5.008   1.347 -1.0299  1.4867  0.4173
13745TIP3   OH262725   4.077   1.939  11.149 -0.6331  0.1451 -0.4053
13745TIP3    H162726   4.053   1.937  11.057 -1.5840  0.5610 -0.1666
13745TIP3    H262727   4.006   1.986  11.192 -1.6928 -2.6470  0.9909
13746TIP3   OH262728   2.124   0.094   2.747  0.2750 -0.2610 -0.4993
13746TIP3    H162729   2.039   0.132   2.726  0.8851  1.1598 -0.5379
13746TIP3    H262730   2.109   0.039   2.824 -0.7921 -0.5358 -0.9029
13747TIP3   OH262731   4.473   2.279  12.090  0.7023  0.3052 -0.0421
13747TIP3    H162732   4.401   2.298  12.029  1.1653  0.3936 -0.5652
13747TIP3    H262733   4.469   2.184  12.102  0.3499  0.3378  0.1183
13748TIP3   OH262734   0.212   0.377  13.007 -0.3340 -0.1312 -0.4875
13748TIP3    H162735   0.251   0.305  13.057 -1.1469  1.0163  1.8289
13748TIP3    H262736   0.146   0.334  12.952 -0.6366 -1.1959  0.6839
13749TIP3   OH262737   3.193   4.130  10.741  0.8621  0.7185  0.7372
13749TIP3    H162738   3.107   4.147  10.780 -0.4617 -1.6403 -0.9702
13749TIP3    H262739   3.190   4.176  10.656  1.2427  0.5378  0.6263
13750TIP3   OH262740   0.640   6.629  14.335  0.0710 -0.1243 -0.6038
13750TIP3    H162741   0.614   6.554  14.388 -0.3714 -0.9636 -1.9561
13750TIP3    H262742   0.558   6.661  14.296  0.4357  0.1908 -1.1256
13751TIP3   OH262743   6.774   3.051  15.125  0.7750  0.4241  0.1992
13751TIP3    H162744   6.701   3.073  15.067  0.5895  1.0432  0.6651
13751TIP3    H262745   6.793   3.132  15.173  0.1558 -0.3860  1.8566
13752TIP3   OH262746   1.530   1.445  14.850 -0.5558 -0.2993  0.0316
13752TIP3    H162747   1.558   1.477  14.936  1.5097  0.1290 -0.7716
13752TIP3    H262748   1.608   1.404  14.813 -2.0498 -2.5197 -0.7087
13753TIP3   OH262749   5.998   5.633  12.001  0.5201  0.2820 -0.1108
13753TIP3    H162750   5.968   5.568  12.065  0.8852  1.9980  1.8755
13753TIP3    H262751   6.094   5.625  12.002  0.5346  0.4313 -0.3000
13754TIP3   OH262752   3.031   1.359  13.600  0.2722 -0.0034  0.2717
13754TIP3    H162753   3.043   1.454  13.591 -1.0552  0.1180 -0.3792
13754TIP3    H262754   3.022   1.328  13.510  0.5534 -0.7235  0.4924
13755TIP3   OH262755   3.872   1.237   1.391 -0.3425 -0.0030 -0.0948
13755TIP3    H162756   3.930   1.183   1.337 -0.5641  0.9076 -1.2574
13755TIP3    H262757   3.913   1.237   1.477 -1.4768 -3.8703  0.5866
13756TIP3   OH262758   3.652   5.532   2.309  0.0874  0.0424 -0.2865
13756TIP3    H162759   3.633   5.560   2.399  0.4844 -1.5229  0.2916
13756TIP3    H262760   3.716   5.597   2.278  1.5806 -0.5993  1.3054
13757TIP3   OH262761   2.127   4.375   4.755 -0.2383 -0.2337 -0.1721
13757TIP3    H162762   2.154   4.455   4.711  0.3893 -1.2934 -1.7572
13757TIP3    H262763   2.183   4.307   4.718 -1.2708 -1.5360  0.6040
13758TIP3   OH262764   6.369   4.042   3.892 -0.4239 -0.1505 -0.1503
13758TIP3    H162765   6.413   3.961   3.865  0.7156 -0.0203  1.2441
13758TIP3    H262766   6.404   4.109   3.833 -1.0440 -0.5929 -1.0238
13759TIP3   OH262767   1.562   0.289   4.429  0.4087 -0.0041 -0.2856
13759TIP3    H162768   1.571   0.200   4.395 -1.0422  0.0401 -0.7949
13759TIP3    H262769   1.501   0.280   4.502  2.3800  0.1427  1.4374
13760TIP3   OH262770   1.613   1.969   1.698 -0.0142  0.7243 -0.0346
13760TIP3    H162771   1.641   2.003   1.613 -0.1101 -1.5317 -1.0139
13760TIP3    H262772   1.518   1.965   1.692 -0.0143  0.4688  0.1370
13761TIP3   OH262773   5.582   1.112  14.185  0.1546  0.0021  0.3010
13761TIP3    H162774   5.531   1.037  14.216  0.8111 -0.2198  0.8622
13761TIP3    H262775   5.580   1.174  14.258  0.6993 -0.0107  0.3259
13762TIP3   OH262776   0.498   1.891   3.551  0.0479 -0.6968  0.2575
13762TIP3    H162777   0.523   1.831   3.621 -0.9501 -0.0658  1.1824
13762TIP3    H262778   0.511   1.978   3.589 -1.0476 -0.3511 -0.1461
13763TIP3   OH262779   5.238   5.776   5.193 -0.2530  0.1226 -0.1635
13763TIP3    H162780   5.201   5.798   5.278  0.3180  1.2516 -0.1949
13763TIP3    H262781   5.328   5.749   5.213  0.3300  1.7365 -0.5369
13764TIP3   OH262782   1.732   1.273   1.475  0.5630  0.2623  0.0562
13764TIP3    H162783   1.725   1.214   1.400 -2.5951 -0.6479  0.9922
13764TIP3    H262784   1.761   1.356   1.437 -3.2981  0.5205 -2.5680
13765TIP3   OH262785   1.440   2.721   2.342  0.1077  0.2599  0.1289
13765TIP3    H162786   1.485   2.743   2.423  1.3545  1.0871 -0.7553
13765TIP3    H262787   1.413   2.806   2.307  1.6620  0.1274 -1.4721
13766TIP3   OH262788   5.352   2.301  16.111 -0.2301 -0.0238  0.5565
13766TIP3    H162789   5.291   2.360  16.066 -0.7323  0.2214  1.5290
13766TIP3    H262790   5.427   2.356  16.134 -0.5079  0.1392  1.0818
13767TIP3   OH262791   0.003   6.309   0.220 -0.3289  0.1981  0.2488
13767TIP3    H162792   0.050   6.387   0.191  0.7111  0.1533  1.7349
13767TIP3    H262793  -0.054   6.286   0.146  0.8590  1.1537 -0.9916
13768TIP3   OH262794   1.912   6.624   2.571  0.1172  0.1342  0.3470
13768TIP3    H162795   1.839   6.577   2.529 -1.3411  2.6902 -0.0659
13768TIP3    H262796   1.986   6.611   2.511 -0.6746 -0.2988 -0.5633
13769TIP3   OH262797   1.296   2.994   5.102  0.6262  0.1029  0.0490
13769TIP3    H162798   1.218   2.959   5.060  1.1370  0.9693 -1.6845
13769TIP3    H262799   1.325   3.065   5.044  1.0737  1.6797  2.1463
13770TIP3   OH262800   0.596   3.856  14.108 -0.1242  0.3428  0.7622
13770TIP3    H162801   0.532   3.802  14.155  0.5934 -0.6264  0.6540
13770TIP3    H262802   0.564   3.945  14.118 -2.1419 -0.2411 -0.3406
13771TIP3   OH262803   5.389   2.578  14.732 -0.6063  1.1418 -0.3088
13771TIP3    H162804   5.364   2.548  14.645 -0.3562  1.6051 -0.5452
13771TIP3    H262805   5.484   2.585  14.728 -0.3019 -1.9029  1.0061
13772TIP3   OH262806   3.372   3.803   0.911 -0.3171 -0.0107 -0.2054
13772TIP3    H162807   3.288   3.770   0.942 -1.0120  0.9865 -0.9900
13772TIP3    H262808   3.407   3.852   0.986  0.1242 -1.3786  0.5183
13773TIP3   OH262809   0.463   2.096  13.444 -0.0659 -0.2977  0.3609
13773TIP3    H162810   0.534   2.158  13.461 -0.5745 -0.1353  1.9419
13773TIP3    H262811   0.498   2.011  13.471 -0.2789 -0.3025  0.6238
13774TIP3   OH262812   0.513   2.614   3.865  0.0455  0.0185  0.1556
13774TIP3    H162813   0.586   2.635   3.808 -0.4916  0.7207 -0.2821
13774TIP3    H262814   0.508   2.688   3.926  1.6548 -1.4758  2.2081
13775TIP3   OH262815   5.136   0.992   5.498  0.7993 -0.5173  0.0377
13775TIP3    H162816   5.199   1.046   5.451  0.3178  1.2855  1.4141
13775TIP3    H262817   5.153   0.903   5.467  1.5159  0.4147 -2.3649
13776TIP3   OH262818   0.457   5.493  11.935  0.2499 -0.4249  0.0705
13776TIP3    H162819   0.435   5.520  11.846 -0.8262 -0.8231  0.2144
13776TIP3    H262820   0.373   5.491  11.981  0.6824 -1.1575  0.8424
13777TIP3   OH262821   6.673   2.565   2.546  0.6453 -0.7342 -0.2349
13777TIP3    H162822   6.660   2.536   2.636 -0.3447  0.6632  0.0876
13777TIP3    H262823   6.637   2.494   2.493  0.9377 -1.4202  0.4770
13778TIP3   OH262824   6.303   2.966   3.750  0.2794 -0.4250 -0.7296
13778TIP3    H162825   6.322   3.046   3.799  0.0224 -1.6275  1.4193
13778TIP3    H262826   6.209   2.969   3.734  0.2629 -0.3062 -0.6132
13779TIP3   OH262827   2.775   5.034  16.968 -0.0498  0.0578 -0.8413
13779TIP3    H162828   2.786   5.128  16.981 -0.3983 -0.2851  2.3761
13779TIP3    H262829   2.852   5.007  16.918  1.5555  1.5661  0.7676
13780TIP3   OH262830   0.871   5.876   3.680  0.5785 -0.0116  0.0243
13780TIP3    H162831   0.886   5.952   3.736 -2.0886  0.2305  0.4663
13780TIP3    H262832   0.932   5.810   3.712  0.1623  0.6434  2.2370
13781TIP3   OH262833   4.067   5.457  13.460 -0.4837 -0.0665  0.0273
13781TIP3    H162834   4.086   5.442  13.368 -1.0029 -2.1392  0.2306
13781TIP3    H262835   3.985   5.506  13.459  1.7152  3.7588 -0.6852
13782TIP3   OH262836   1.721   3.636  13.949 -0.6236  0.5950  0.1011
13782TIP3    H162837   1.724   3.581  13.871 -0.4447 -1.9313  1.8546
13782TIP3    H262838   1.813   3.658  13.967 -0.6070  0.5812  0.0321
13783TIP3   OH262839   5.879   0.299   3.032 -0.3299  0.0615  0.4664
13783TIP3    H162840   5.966   0.260   3.025 -0.2693  0.0628  1.2342
13783TIP3    H262841   5.881   0.371   2.968 -0.2829 -0.8711 -0.5904
13784TIP3   OH262842   4.772   1.542   4.539 -0.5042  0.2013 -0.1164
13784TIP3    H162843   4.798   1.453   4.517  0.0838 -0.3799  2.7922
13784TIP3    H262844   4.684   1.534   4.574  0.0301  0.5594  1.3630
13785TIP3   OH262845   6.483   4.812  12.446  0.0423  0.1631 -0.0204
13785TIP3    H162846   6.529   4.825  12.363 -0.3462  1.3243 -0.0579
13785TIP3    H262847   6.547   4.769  12.502 -0.6375 -3.5798 -1.8911
13786TIP3   OH262848   4.467   0.120   3.858 -0.0547  0.4735 -0.1228
13786TIP3    H162849   4.553   0.140   3.894 -0.0320  0.9625 -0.4335
13786TIP3    H262850   4.484   0.101   3.765 -0.4786  2.1943 -0.5661
13787TIP3   OH262851   5.619   0.976  12.235 -0.4951 -0.3674 -0.0600
13787TIP3    H162852   5.655   0.889  12.247 -0.7754 -0.1852  2.3608
13787TIP3    H262853   5.525   0.963  12.226 -0.5511 -0.3293  0.4231
13788TIP3   OH262854   3.429   3.234   1.470  0.5577 -0.3455 -0.0193
13788TIP3    H162855   3.494   3.302   1.489 -0.0377 -0.1458  1.3339
13788TIP3    H262856   3.401   3.203   1.556 -1.9135  0.3213 -0.5533
13789TIP3   OH262857   6.224   5.557  11.571  0.0987  0.4882  0.0771
13789TIP3    H162858   6.217   5.629  11.508  0.3842 -0.8992 -1.5897
13789TIP3    H262859   6.144   5.507  11.560  0.4096 -0.0890  0.4007
13790TIP3   OH262860   6.287   6.161  13.430  0.0520  0.7272 -0.1374
13790TIP3    H162861   6.350   6.233  13.440 -0.6775  1.0846  1.9953
13790TIP3    H262862   6.211   6.187  13.482 -0.7474 -0.9883 -0.4115
13791TIP3   OH262863   6.486   4.723   5.001 -0.5645 -0.6326  0.1235
13791TIP3    H162864   6.513   4.800   5.051 -0.0156 -0.5644 -0.2751
13791TIP3    H262865   6.392   4.734   4.991 -0.7621 -0.9047  1.5814
13792TIP3   OH262866   1.574   0.447   6.315 -0.0548 -0.3609  0.3575
13792TIP3    H162867   1.614   0.435   6.401 -0.6296 -1.8491  0.4233
13792TIP3    H262868   1.508   0.378   6.309 -0.0240 -0.2668 -1.2766
13793TIP3   OH262869   3.468   3.587  10.933  0.3678  0.8450  0.0290
13793TIP3    H162870   3.549   3.567  10.886 -0.7975  0.0972 -1.7034
13793TIP3    H262871   3.409   3.516  10.910 -0.9708  1.6688  0.8475
13794TIP3   OH262872   6.019   0.156  16.928  0.5709 -0.1587  0.0141
13794TIP3    H162873   5.989   0.081  16.979  0.3361  0.5170  0.8932
13794TIP3    H262874   6.086   0.121  16.869  1.6489 -0.7457  1.5602
13795TIP3   OH262875   1.969   3.899  16.328 -0.1548  0.0495 -0.5544
13795TIP3    H162876   2.000   3.819  16.370 -1.3474 -0.2967 -0.3182
13795TIP3    H262877   1.878   3.880  16.303 -1.3466  2.1883  1.8655
13796TIP3   OH262878   3.302   3.380  10.934  0.0792  0.3698  0.5802
13796TIP3    H162879   3.266   3.345  10.852 -0.9564  2.2187  0.2041
13796TIP3    H262880   3.226   3.416  10.980  0.6170 -0.9010  2.5037
13797TIP3   OH262881   3.262   0.732   2.802  0.3521  0.6133 -0.1623
13797TIP3    H162882   3.339   0.730   2.858  0.3949  2.0492 -0.1549
13797TIP3    H262883   3.239   0.825   2.796 -1.3969  0.1992 -0.1329
13798TIP3   OH262884   1.424   4.260   3.642 -0.1810  0.4284 -0.0890
13798TIP3    H162885   1.439   4.340   3.592  1.4722  0.7729  0.9107
13798TIP3    H262886   1.441   4.189   3.579 -0.8474  0.8608 -0.7587
13799TIP3   OH262887   6.470   0.129   3.306 -0.6168  0.3681 -0.6509
13799TIP3    H162888   6.551   0.142   3.256 -0.8224 -0.3415 -1.1765
13799TIP3    H262889   6.498   0.121   3.397  0.0212 -1.0922 -0.9668
13800TIP3   OH262890   2.545   0.186   0.580 -0.0049  0.5521  0.4220
13800TIP3    H162891   2.483   0.253   0.553 -0.0299  0.6320  0.6800
13800TIP3    H262892   2.627   0.233   0.594  0.4830  0.2451 -1.2656
13801TIP3   OH262893   2.659   6.563  13.556  0.4292  0.2514  0.4777
13801TIP3    H162894   2.646   6.635  13.617  3.9533 -0.0698  1.7353
13801TIP3    H262895   2.702   6.603  13.480  1.5179 -0.3266  0.7779
13802TIP3   OH262896   3.252   4.732   3.670  0.2032  0.0569  0.6813
13802TIP3    H162897   3.324   4.786   3.704 -0.5191  0.9476  0.8237
13802TIP3    H262898   3.267   4.730   3.576  0.6188 -0.0564  0.7482
13803TIP3   OH262899   5.218   0.995  13.961 -0.3436  0.6623 -0.0079
13803TIP3    H162900   5.239   0.902  13.965  0.9612  0.9541 -0.0162
13803TIP3    H262901   5.203   1.020  14.052  1.6288  0.9662  0.2515
13804TIP3   OH262902   6.720   2.458   0.497  0.0566 -0.0522 -0.0488
13804TIP3    H162903   6.750   2.373   0.464 -0.9216 -1.1352  1.8033
13804TIP3    H262904   6.666   2.437   0.573  1.4145  2.3624  1.6227
13805TIP3   OH262905   1.042   1.744   6.415  0.1498 -0.4730 -0.4840
13805TIP3    H162906   0.993   1.734   6.333  0.0986 -0.4462 -0.4567
13805TIP3    H262907   1.029   1.661   6.461  2.0254 -1.3751 -1.4899
13806TIP3   OH262908   0.085   3.962  12.907 -0.1747  0.3161 -0.0905
13806TIP3    H162909   0.066   4.005  12.990 -2.0163  0.0845 -0.3732
13806TIP3    H262910   0.115   4.033  12.850  1.0069  0.4871  0.7466
13807TIP3   OH262911   2.605   4.633   0.698 -0.3116  1.0865  0.4235
13807TIP3    H162912   2.554   4.574   0.642  0.3903  2.1092 -1.3396
13807TIP3    H262913   2.579   4.720   0.669  1.1804  1.6201  0.6697
13808TIP3   OH262914   0.502   5.624  13.342  0.0556  0.1992 -0.5641
13808TIP3    H162915   0.434   5.630  13.408 -0.7964 -0.5212 -1.3684
13808TIP3    H262916   0.510   5.530  13.324  0.8303  0.3290 -0.9124
13809TIP3   OH262917   2.416   6.377  15.364 -0.3494 -0.2656 -0.2121
13809TIP3    H162918   2.419   6.471  15.346  0.3103 -0.3478 -0.5910
13809TIP3    H262919   2.477   6.339  15.300  0.8929 -0.7477  1.2129
13810TIP3   OH262920   4.250   5.919   0.411 -0.1730 -0.9322 -0.6906
13810TIP3    H162921   4.268   5.883   0.324  2.7681 -2.0276  0.3073
13810TIP3    H262922   4.206   5.848   0.458 -1.7569 -0.3424 -1.2602
13811TIP3   OH262923   5.806   4.487   6.282  0.1169  0.1825 -0.0128
13811TIP3    H162924   5.825   4.404   6.326  0.0610  0.8207  1.2204
13811TIP3    H262925   5.719   4.473   6.243 -1.0113  0.5054  2.3043
13812TIP3   OH262926   5.447   4.325   5.755 -0.2392 -0.2482  0.2191
13812TIP3    H162927   5.407   4.304   5.671 -0.0282 -0.5651  0.1969
13812TIP3    H262928   5.533   4.284   5.751  0.4010  1.0821 -0.0497
13813TIP3   OH262929   6.501   5.564  15.520 -0.2685 -0.0820  0.2131
13813TIP3    H162930   6.406   5.577  15.525 -0.2602  0.5635 -1.0425
13813TIP3    H262931   6.529   5.623  15.451  1.1714  0.3023  1.1091
13814TIP3   OH262932   3.434   1.120   6.425  0.2517  0.1873  0.1956
13814TIP3    H162933   3.476   1.034   6.423 -0.1083 -0.0561  1.8855
13814TIP3    H262934   3.433   1.144   6.518 -1.5452  1.0752 -0.0212
13815TIP3   OH262935   4.522   5.168  15.132  0.2045 -0.3099 -1.1319
13815TIP3    H162936   4.571   5.245  15.104 -0.9819  1.7428  2.1560
13815TIP3    H262937   4.445   5.166  15.075 -0.2648  1.5947 -0.6037
13816TIP3   OH262938   1.673   3.806  11.328 -0.0195  0.0169  0.6847
13816TIP3    H162939   1.613   3.743  11.289 -1.8727  0.8384  2.1304
13816TIP3    H262940   1.751   3.755  11.348 -1.2639 -1.7038  1.3049
13817TIP3   OH262941   0.702   6.276  13.099  0.7733 -0.0057 -0.2289
13817TIP3    H162942   0.621   6.244  13.058  0.8268  1.4334 -1.4833
13817TIP3    H262943   0.704   6.232  13.184 -0.9826 -0.5789 -0.4550
13818TIP3   OH262944   1.961   4.933  15.804 -0.4369  0.0407  0.1487
13818TIP3    H162945   2.009   5.002  15.849  0.4085  0.2040 -0.9945
13818TIP3    H262946   1.905   4.979  15.742  1.9922 -0.3466 -2.4579
13819TIP3   OH262947   6.531   3.789  13.941 -0.5595 -0.3966  0.3550
13819TIP3    H162948   6.551   3.696  13.931 -2.8625 -1.2283  2.6952
13819TIP3    H262949   6.501   3.816  13.854 -0.2935 -1.9545 -0.2482
13820TIP3   OH262950   3.785   0.244   4.013  0.7321  0.0433 -0.3785
13820TIP3    H162951   3.722   0.316   4.017  1.1175  0.3344  0.8470
13820TIP3    H262952   3.736   0.168   4.045 -0.0077 -0.5152 -2.7305
13821TIP3   OH262953   0.078   5.990   2.627  0.0019 -0.2383  0.1650
13821TIP3    H162954   0.080   5.927   2.555 -1.3917 -0.8928  0.6843
13821TIP3    H262955  -0.014   6.000   2.648  0.2782  1.2820  0.7153
13822TIP3   OH262956   1.787   5.980  15.947 -0.0209  0.6513  0.4881
13822TIP3    H162957   1.740   6.032  16.012 -0.4402 -0.5655  1.1650
13822TIP3    H262958   1.835   5.915  15.997 -1.3930 -1.1531 -0.4492
13823TIP3   OH262959   3.637   4.699   2.333  0.0898  0.1777  0.0555
13823TIP3    H162960   3.564   4.640   2.313  1.1194 -1.3865  0.7623
13823TIP3    H262961   3.682   4.657   2.407  1.7184  1.0819 -0.3921
13824TIP3   OH262962   5.766   1.182  12.153  0.1727  0.0856 -0.7264
13824TIP3    H162963   5.729   1.095  12.171  0.8742  0.2737  1.9388
13824TIP3    H262964   5.820   1.201  12.231 -0.1038  2.9703 -1.1972
13825TIP3   OH262965   3.400   2.340   5.078  0.1446  0.5427 -0.0117
13825TIP3    H162966   3.472   2.392   5.041  0.5148 -0.0442 -0.1305
13825TIP3    H262967   3.393   2.264   5.020  0.1375  0.0631  0.6059
13826TIP3   OH262968   5.072   1.044  14.540  0.4691 -0.0255  0.2767
13826TIP3    H162969   5.016   1.114  14.574  0.6052  0.6861 -0.9217
13826TIP3    H262970   5.147   1.043  14.599 -0.4976 -0.5456  1.5092
13827TIP3   OH262971   6.734   1.168  17.144 -0.2814 -0.4512 -0.0509
13827TIP3    H162972   6.770   1.151  17.056  1.2962 -0.1627  0.5302
13827TIP3    H262973   6.729   1.263  17.149  1.1290 -0.4059  0.7486
13828TIP3   OH262974   2.325   1.401   1.789  0.5040 -0.3035  0.2727
13828TIP3    H162975   2.386   1.413   1.862  0.9019 -0.1050 -0.0895
13828TIP3    H262976   2.240   1.387   1.831  0.4487  1.3917  0.7474
13829TIP3   OH262977   6.578   4.723  13.391 -0.4513  0.1277  0.4197
13829TIP3    H162978   6.534   4.651  13.436  0.1971  0.1066  1.0269
13829TIP3    H262979   6.510   4.763  13.337 -0.9844 -0.4943  0.6243
13830TIP3   OH262980   6.465   5.875  12.519  0.4416 -0.3465 -0.2850
13830TIP3    H162981   6.503   5.914  12.598  0.7828 -1.7270  0.2390
13830TIP3    H262982   6.541   5.852  12.466  0.2386 -0.2526 -0.6139
13831TIP3   OH262983   3.720   5.556  14.844  0.2790  0.4521  0.0030
13831TIP3    H162984   3.677   5.534  14.926  0.8068  1.0666  0.4514
13831TIP3    H262985   3.813   5.555  14.865  0.4386  0.1052 -0.7154
13832TIP3   OH262986   3.858   0.723   3.280  0.0102 -0.4617 -0.3002
13832TIP3    H162987   3.885   0.688   3.364 -4.2514  3.5468  2.9965
13832TIP3    H262988   3.931   0.780   3.253 -0.1222  1.1683  2.6298
13833TIP3   OH262989   3.497   4.187   3.538  0.0531 -0.5415 -0.3957
13833TIP3    H162990   3.532   4.163   3.453 -1.1705 -1.9899 -0.5130
13833TIP3    H262991   3.454   4.272   3.524  0.8265 -0.2414 -0.9498
13834TIP3   OH262992   6.701   0.695  11.329 -0.2193 -0.0672  0.2153
13834TIP3    H162993   6.781   0.673  11.376 -0.0645  1.4384  0.6651
13834TIP3    H262994   6.700   0.635  11.255  0.6087 -1.0371  0.9752
13835TIP3   OH262995   4.245   4.983   4.926 -0.0545  0.2561  0.0082
13835TIP3    H162996   4.276   4.895   4.903 -0.4223 -0.2342  1.3205
13835TIP3    H262997   4.239   5.029   4.843  2.5297 -0.1828 -0.4669
13836TIP3   OH262998   2.438   6.214  15.849 -0.2345 -0.0276  0.2386
13836TIP3    H162999   2.401   6.290  15.894 -0.9553 -0.0364 -0.3235
13836TIP3    H263000   2.421   6.231  15.756  3.7999  1.3629 -0.3215
13837TIP3   OH263001   2.744   5.723   1.175 -0.1020  0.3945  0.0351
13837TIP3    H163002   2.652   5.734   1.195 -0.3991 -2.4846  0.5300
13837TIP3    H263003   2.755   5.763   1.089 -1.6723  1.2096  0.1930
13838TIP3   OH263004   6.318   4.274   0.499  0.0449  0.7252  0.1094
13838TIP3    H163005   6.392   4.264   0.439  0.3511 -1.2211  0.7516
13838TIP3    H263006   6.293   4.366   0.492  2.0988  1.2583 -0.6204
13839TIP3   OH263007   6.512   2.287   2.162 -0.4407 -0.1055 -0.0036
13839TIP3    H163008   6.431   2.320   2.202  0.9083  2.0696  1.0118
13839TIP3    H263009   6.486   2.266   2.072 -1.4441  3.8960 -0.7777
13840TIP3   OH263010   3.522   2.612   0.297 -0.3700 -0.3273  0.2350
13840TIP3    H163011   3.595   2.649   0.347  0.4717 -0.8071 -0.6305
13840TIP3    H263012   3.536   2.518   0.301 -0.3790 -0.3762 -0.7769
13841TIP3   OH263013   0.565   5.728   5.685 -0.0053  0.3761  0.2937
13841TIP3    H163014   0.508   5.651   5.695 -0.7135  1.0202  1.3153
13841TIP3    H263015   0.649   5.701   5.722 -0.4213  0.2781  1.1772
13842TIP3   OH263016   4.476   4.235   1.440 -0.3868  0.3194 -0.1465
13842TIP3    H163017   4.454   4.274   1.525 -0.1004  1.7404 -0.7008
13842TIP3    H263018   4.394   4.236   1.391 -0.1738  1.1286 -0.4980
13843TIP3   OH263019   4.101   6.344   4.042 -0.3726 -0.3028 -0.5360
13843TIP3    H163020   4.088   6.438   4.032  1.7260 -0.0282 -1.0931
13843TIP3    H263021   4.048   6.305   3.973 -0.6935  0.5197 -0.7643
13844TIP3   OH263022   0.280   4.097   4.207 -0.5740  0.0995  0.1641
13844TIP3    H163023   0.350   4.097   4.141 -0.8249  0.6026 -0.0975
13844TIP3    H263024   0.305   4.167   4.268  0.3010 -1.1561  1.2898
13845TIP3   OH263025   6.071   4.691  11.860 -0.4080 -0.3984  0.3150
13845TIP3    H163026   6.103   4.728  11.778  3.5024 -2.0561  1.0169
13845TIP3    H263027   6.004   4.627  11.833 -2.1080  1.9695 -1.2638
13846TIP3   OH263028   1.890   0.044  11.987 -0.1374  0.0624  0.2063
13846TIP3    H163029   1.972   0.064  12.033 -0.6481 -0.0104  1.1542
13846TIP3    H263030   1.917  -0.011  11.913  0.7756  0.7878 -0.0015
13847TIP3   OH263031   1.990   1.174   3.824 -0.9194 -0.1832 -0.6370
13847TIP3    H163032   2.066   1.116   3.821 -0.0511  0.8642  0.7626
13847TIP3    H263033   1.924   1.123   3.870 -0.1027 -0.0270  0.7363
13848TIP3   OH263034   4.380   6.010   4.754  0.0442 -0.5632  0.0771
13848TIP3    H163035   4.431   6.089   4.769 -0.1250 -0.4904  0.2743
13848TIP3    H263036   4.307   6.038   4.700 -0.2453 -0.5014  0.5003
13849TIP3   OH263037   2.440   1.075  12.074  0.0051  0.2595  0.4346
13849TIP3    H163038   2.363   1.062  12.018 -0.7693  0.4481  1.4334
13849TIP3    H263039   2.499   1.004  12.050 -1.7525 -1.7272  1.7609
13850TIP3   OH263040   1.613   1.159   4.610  0.1608  0.3044 -0.1773
13850TIP3    H163041   1.523   1.183   4.589 -0.1587  0.9523  1.7719
13850TIP3    H263042   1.613   1.150   4.706  1.6444 -1.8330 -0.3444
13851TIP3   OH263043   3.925   3.574   0.226  0.2620 -0.2704 -0.4338
13851TIP3    H163044   3.889   3.655   0.190 -1.4428 -0.4215  0.8919
13851TIP3    H263045   3.984   3.603   0.296 -1.2420 -0.2057  0.8186
13852TIP3   OH263046   5.678   0.144  16.833  0.0796 -0.8628 -0.3463
13852TIP3    H163047   5.671   0.201  16.909  1.3913  0.3929 -1.1445
13852TIP3    H263048   5.593   0.150  16.790 -0.4014 -0.9646  0.5892
13853TIP3   OH263049   1.696   4.966  12.693 -0.1477  0.1032  0.3618
13853TIP3    H163050   1.682   4.950  12.786  0.6193 -1.3037  0.2553
13853TIP3    H263051   1.781   5.012  12.689  0.0923 -0.3429  0.3203
13854TIP3   OH263052   2.940   1.938  14.542 -0.5507 -0.4478 -0.3961
13854TIP3    H163053   3.020   1.910  14.497  1.0863  1.6724  1.0581
13854TIP3    H263054   2.952   1.911  14.632 -1.7607 -0.6462 -0.2868
13855TIP3   OH263055   0.355   1.029  16.544 -0.0836  0.1339 -0.3409
13855TIP3    H163056   0.278   1.046  16.598  0.7726 -0.3429  1.0681
13855TIP3    H263057   0.356   1.100  16.480 -1.6841  0.1348 -0.3918
13856TIP3   OH263058   4.892   2.432   3.191  0.0542  0.0427 -0.2852
13856TIP3    H163059   4.909   2.379   3.269 -0.4414  0.1697 -0.0895
13856TIP3    H263060   4.894   2.522   3.223  1.5364  0.1907 -0.7336
13857TIP3   OH263061   2.107   0.858   0.705 -0.4117 -0.0400  0.3401
13857TIP3    H163062   2.076   0.944   0.678 -0.1039  0.5443  1.8037
13857TIP3    H263063   2.186   0.843   0.653  0.0486  0.9584  0.7585
13858TIP3   OH263064   1.032   1.309   5.177 -0.7270  0.5398  0.0621
13858TIP3    H163065   0.990   1.266   5.251 -0.7356  2.2211  1.0698
13858TIP3    H263066   0.991   1.395   5.173  1.0028  1.3648 -0.3589
13859TIP3   OH263067   2.505   2.592  14.538 -0.4247  0.2161  0.2053
13859TIP3    H163068   2.481   2.581  14.630  1.8659 -2.9525  0.5190
13859TIP3    H263069   2.590   2.550  14.530  0.0689  1.6578 -3.1014
13860TIP3   OH263070   0.227   5.246  17.062  0.0054  0.1925  0.4049
13860TIP3    H163071   0.308   5.209  17.098 -0.5448 -2.8315 -1.2743
13860TIP3    H263072   0.256   5.313  17.000  1.1973 -0.2255  0.5005
13861TIP3   OH263073   1.689   5.908   4.827  0.0003 -0.3365 -0.1378
13861TIP3    H163074   1.709   5.996   4.859 -1.1662  0.2929 -1.1140
13861TIP3    H263075   1.768   5.881   4.781 -0.5130  1.2217 -1.9988
13862TIP3   OH263076   5.444   5.654  16.765 -0.2594  0.3865  0.6377
13862TIP3    H163077   5.400   5.569  16.770  0.4732  0.0592  1.6131
13862TIP3    H263078   5.417   5.690  16.680 -1.1711 -0.4854  0.5467
13863TIP3   OH263079   2.032   2.654   5.318 -0.0670  0.4099  0.2028
13863TIP3    H163080   2.060   2.607   5.397  0.1683 -0.8719 -0.6266
13863TIP3    H263081   1.989   2.733   5.351  1.1274  0.5067  1.5829
13864TIP3   OH263082   1.874   6.355   3.437 -0.5513  0.2313  0.9239
13864TIP3    H163083   1.892   6.414   3.364  1.3273  0.8175  1.8392
13864TIP3    H263084   1.799   6.303   3.408  0.9017 -0.3610 -1.8809
13865TIP3   OH263085   1.896   3.044  12.579  0.2850  0.0223 -0.0124
13865TIP3    H163086   1.852   2.978  12.526 -0.5368 -0.4259  1.2053
13865TIP3    H263087   1.837   3.120  12.576  0.0152 -0.1540  0.5944
13866TIP3   OH263088   4.325   6.254   3.714 -0.7394 -0.3055  1.0200
13866TIP3    H163089   4.345   6.171   3.758  0.5850 -0.3025  0.4544
13866TIP3    H263090   4.410   6.285   3.683 -1.3170  0.9647  0.6929
13867TIP3   OH263091   2.651   0.646  17.143 -0.8302 -0.3985 -0.5359
13867TIP3    H163092   2.732   0.664  17.191 -0.5241 -0.8638 -0.8677
13867TIP3    H263093   2.657   0.553  17.121 -1.0653 -0.2373 -1.3015
13868TIP3   OH263094   3.584   0.035  12.448 -0.5258  0.5235  0.4294
13868TIP3    H163095   3.597   0.088  12.369 -0.4934 -1.5011 -0.9628
13868TIP3    H263096   3.490   0.018  12.450 -0.0928 -2.5434 -1.3177
13869TIP3   OH263097   3.653   3.525  16.911  0.5157 -0.1791  0.1310
13869TIP3    H163098   3.616   3.609  16.885  0.7305 -0.1072  0.0545
13869TIP3    H263099   3.583   3.461  16.894  0.2158  0.0335  0.5619
13870TIP3   OH263100   1.129   0.938   2.926 -0.0382  0.2411  0.3742
13870TIP3    H163101   1.081   0.973   3.001 -2.8471 -2.6463  0.0523
13870TIP3    H263102   1.077   0.963   2.850 -0.4316 -1.8348 -0.0915
13871TIP3   OH263103   1.015   5.191  11.160 -0.4464 -0.0210  0.3645
13871TIP3    H163104   0.970   5.139  11.092 -0.7056  0.9663 -0.2274
13871TIP3    H263105   1.065   5.126  11.210 -1.3560 -0.9443  0.1010
13872TIP3   OH263106   2.438   6.225   5.935  0.2847 -0.2641  1.2153
13872TIP3    H163107   2.534   6.228   5.944  0.4238  2.4896 -0.6358
13872TIP3    H263108   2.405   6.249   6.021  1.2980  1.2825  1.1886
13873TIP3   OH263109   6.796   6.114  15.196 -0.6988 -0.2888 -0.3914
13873TIP3    H163110   6.792   6.150  15.108 -1.1219  1.1224  0.1839
13873TIP3    H263111   6.747   6.177  15.250  1.0866 -0.1626  1.1452
13874TIP3   OH263112   2.328   3.797  11.433  0.8480  1.1578  0.5651
13874TIP3    H163113   2.325   3.719  11.377 -0.7323  1.6550 -0.0676
13874TIP3    H263114   2.378   3.769  11.510 -0.8743 -0.9161  0.9898
13875TIP3   OH263115   1.087   6.522  12.196  0.0014 -0.1429  0.1706
13875TIP3    H163116   1.027   6.572  12.250 -0.4271  1.2906 -1.5972
13875TIP3    H263117   1.157   6.583  12.174 -0.2062 -0.4823 -1.5005
13876TIP3   OH263118   0.682   0.811   1.834  0.1915  0.3216 -0.2229
13876TIP3    H163119   0.607   0.868   1.821  0.9081  1.5016  0.6409
13876TIP3    H263120   0.648   0.737   1.884 -0.0236  1.8269  1.9595
13877TIP3   OH263121   0.136   6.057  16.836  0.6815 -0.0998 -0.3372
13877TIP3    H163122   0.215   6.085  16.882 -0.3178 -1.8943  2.6587
13877TIP3    H263123   0.146   5.963  16.825 -0.5367 -0.1732 -0.9748
13878TIP3   OH263124   1.872   6.515   5.788  0.9020 -0.3319  0.2670
13878TIP3    H163125   1.808   6.583   5.769  1.9887  0.2155 -1.5632
13878TIP3    H263126   1.892   6.526   5.881  0.5214  1.3673  0.1595
13879TIP3   OH263127   3.075   1.547   5.595  0.0765 -0.3903 -0.6023
13879TIP3    H163128   2.982   1.524   5.588 -0.0643 -0.0358  0.0709
13879TIP3    H263129   3.113   1.476   5.647 -0.3886  0.9555  1.6119
13880TIP3   OH263130   1.011   4.143   4.105  0.2183  0.3581  0.0998
13880TIP3    H163131   0.990   4.065   4.053 -2.1153  2.3603 -2.1188
13880TIP3    H263132   0.978   4.123   4.193 -1.5507 -0.6818 -0.7663
13881TIP3   OH263133   1.500   3.364  14.507 -0.3483 -0.5536  0.3888
13881TIP3    H163134   1.549   3.350  14.426  1.9885 -1.4218  1.9109
13881TIP3    H263135   1.529   3.449  14.539  0.1179 -1.0334  1.2559
13882TIP3   OH263136   2.067   0.645   3.258 -0.2421 -0.3688 -0.2161
13882TIP3    H163137   1.991   0.587   3.245 -0.2373 -0.0837 -1.6753
13882TIP3    H263138   2.032   0.719   3.308 -0.2812 -1.5436  1.5376
13883TIP3   OH263139   3.199   2.237  16.475 -0.5194 -0.2838 -0.5523
13883TIP3    H163140   3.134   2.215  16.542 -0.3842  3.3672  0.9161
13883TIP3    H263141   3.149   2.247  16.394 -1.3927 -0.0781  0.0134
13884TIP3   OH263142   0.712   5.779   2.905 -0.1329 -0.9419 -0.5105
13884TIP3    H163143   0.768   5.758   2.980  0.0353  1.8764  0.1741
13884TIP3    H263144   0.623   5.781   2.941  0.0266  1.1974 -0.1907
13885TIP3   OH263145   5.844   1.287  12.469  0.3065  0.2363 -0.4114
13885TIP3    H163146   5.871   1.261  12.557 -1.3017  1.0006  0.3270
13885TIP3    H263147   5.752   1.261  12.463  0.1577  0.9655 -1.5640
13886TIP3   OH263148   0.651   5.876   0.371 -0.8030 -0.0102  0.0018
13886TIP3    H163149   0.606   5.945   0.322  0.8736  0.6443 -0.6582
13886TIP3    H263150   0.679   5.814   0.303  0.8191  0.4880  0.2038
13887TIP3   OH263151   0.655   5.322  11.005 -0.2100 -0.3971 -0.0786
13887TIP3    H163152   0.646   5.401  10.952 -1.4965  0.3457  1.2378
13887TIP3    H263153   0.737   5.282  10.974  0.4828  1.4701 -0.7172
13888TIP3   OH263154   0.982   5.344  12.693 -0.1608  0.2821  0.4774
13888TIP3    H163155   0.913   5.408  12.675  1.1004  0.8594 -2.7189
13888TIP3    H263156   1.060   5.380  12.649  1.0405 -2.5618  0.1756
13889TIP3   OH263157   2.743   6.699   2.700  0.3532 -0.1553  0.0169
13889TIP3    H163158   2.738   6.752   2.621  2.9015 -2.0407 -1.5004
13889TIP3    H263159   2.837   6.686   2.714 -0.0556  0.0328  3.3021
13890TIP3   OH263160   6.710   0.211   0.032  0.0051  0.2362 -0.0652
13890TIP3    H163161   6.712   0.247   0.121 -2.7553 -1.9923  0.9535
13890TIP3    H263162   6.649   0.267  -0.015  2.2034  2.0174 -0.8990
13891TIP3   OH263163   2.486   1.131  16.359  0.2241  0.1524  0.2519
13891TIP3    H163164   2.459   1.221  16.378 -1.2272 -0.5856  1.8332
13891TIP3    H263165   2.418   1.077  16.399  0.5727 -1.6381 -1.5196
13892TIP3   OH263166   1.546   5.163   2.730 -0.3026  0.6058  0.0731
13892TIP3    H163167   1.481   5.125   2.671 -0.4648  1.4605 -0.3123
13892TIP3    H263168   1.502   5.166   2.815 -0.7751  1.1720 -0.1850
13893TIP3   OH263169   4.710   6.323   4.178 -0.0186  0.1178  0.1439
13893TIP3    H163170   4.648   6.253   4.155 -1.3591  2.4391 -3.6705
13893TIP3    H263171   4.654   6.399   4.196  1.5875  1.4238 -0.3115
13894TIP3   OH263172   3.812   0.413   4.603  0.4013  0.5155 -0.1675
13894TIP3    H163173   3.812   0.507   4.588 -0.1391  0.7588  1.2744
13894TIP3    H263174   3.850   0.376   4.523  1.0947  1.9784 -0.5329
13895TIP3   OH263175   2.286   4.302  11.463 -0.2921 -0.2574 -0.0713
13895TIP3    H163176   2.221   4.260  11.519 -0.8131  2.0355  1.1389
13895TIP3    H263177   2.235   4.343  11.392 -0.1830  1.2427  0.6835
13896TIP3   OH263178   3.672   1.907   4.326  0.5748 -0.1232 -1.1025
13896TIP3    H163179   3.620   1.847   4.379  0.7599  1.5035  0.9782
13896TIP3    H263180   3.681   1.862   4.242 -2.3772 -1.3773 -0.8278
13897TIP3   OH263181   1.925   0.437  13.550  0.2622 -0.5100 -0.1494
13897TIP3    H163182   1.830   0.444  13.552  0.2868 -0.1742 -0.1225
13897TIP3    H263183   1.942   0.346  13.525 -0.0647 -0.3569 -0.9530
13898TIP3   OH263184   1.972   1.371  14.253 -0.4510  0.3060  0.4680
13898TIP3    H163185   2.045   1.325  14.296 -1.1723 -0.6958  0.6314
13898TIP3    H263186   1.921   1.407  14.326 -0.2585  0.8089  0.3581
13899TIP3   OH263187   1.371   3.246  12.583 -0.3329  0.0530  0.2967
13899TIP3    H163188   1.409   3.171  12.628  0.3019  0.3941  0.3438
13899TIP3    H263189   1.447   3.295  12.550 -0.6948  1.2330  1.1752
13900TIP3   OH263190   1.447   2.504  16.024 -0.1799  0.1226 -0.9747
13900TIP3    H163191   1.538   2.488  15.998  0.1864  1.3117 -0.5006
13900TIP3    H263192   1.399   2.429  15.991  1.2315 -1.2985  0.1408
13901TIP3   OH263193   3.709   4.946  14.321 -0.0240  0.0465  0.1769
13901TIP3    H163194   3.656   5.005  14.268  0.6301  2.0438  1.6753
13901TIP3    H263195   3.760   5.004  14.378  0.6689 -1.9628  1.6704
13902TIP3   OH263196   2.059   5.229  14.896 -0.5901 -0.2972  0.6701
13902TIP3    H163197   2.149   5.242  14.926 -0.5843 -1.1227  1.0165
13902TIP3    H263198   2.067   5.210  14.803 -0.6139  2.4022  0.0649
13903TIP3   OH263199   5.004   5.955   2.271  0.1914 -0.0721 -0.6538
13903TIP3    H163200   5.021   6.030   2.328 -0.4366  1.0805 -1.9657
13903TIP3    H263201   4.913   5.932   2.287  1.1637 -2.4870  1.9502
13904TIP3   OH263202   5.447   2.792  11.628 -0.1169  0.5909  0.2060
13904TIP3    H163203   5.486   2.866  11.675  1.2282  1.1174 -1.6573
13904TIP3    H263204   5.443   2.822  11.537 -1.1909 -0.9781 -0.2765
13905TIP3   OH263205   3.981   1.234   6.617 -0.0056  0.0092  0.3636
13905TIP3    H163206   4.024   1.206   6.697 -0.4818 -0.0664  0.5909
13905TIP3    H263207   3.895   1.193   6.619  1.3418 -3.1681 -2.0417
13906TIP3   OH263208   1.414   3.113  14.999 -0.0443  0.0928  0.2267
13906TIP3    H163209   1.466   3.151  14.928  0.1674 -0.3384  0.1477
13906TIP3    H263210   1.426   3.173  15.073  1.4031 -0.5412  0.5196
13907TIP3   OH263211   3.010   3.554  11.551  0.1287 -0.1114 -0.3164
13907TIP3    H163212   2.947   3.499  11.504 -1.9000  1.6883  0.2564
13907TIP3    H263213   3.032   3.503  11.629 -0.8137 -0.6480 -0.3938
13908TIP3   OH263214   6.716   2.937   5.507 -0.7155  0.9204  0.4033
13908TIP3    H163215   6.635   2.967   5.465 -1.1075  3.6991  2.9671
13908TIP3    H263216   6.760   3.018   5.535  0.8847 -0.6899  2.7438
13909TIP3   OH263217   5.326   0.628   0.013 -0.1741  0.2754 -0.2085
13909TIP3    H163218   5.333   0.578  -0.069 -0.9783 -0.0696 -0.0638
13909TIP3    H263219   5.297   0.715  -0.014 -0.9003  0.0223 -0.2457
13910TIP3   OH263220   0.401   6.794  17.127 -0.2111 -0.3869  0.6483
13910TIP3    H163221   0.424   6.877  17.169  1.3671  0.6226 -2.0788
13910TIP3    H263222   0.348   6.819  17.052  3.1455 -1.5078 -2.2083
13911TIP3   OH263223   6.241   0.140   1.142 -0.1394 -0.3886 -0.0368
13911TIP3    H163224   6.211   0.110   1.228 -1.5170 -1.1366 -0.7429
13911TIP3    H263225   6.299   0.071   1.111  1.0736  0.3128  0.6740
13912TIP3   OH263226   2.920   0.604   1.101 -0.2518 -0.2143 -0.0559
13912TIP3    H163227   2.951   0.672   1.162 -1.4062 -0.4219  0.7635
13912TIP3    H263228   2.862   0.651   1.042  2.1548  0.3292 -2.0699
13913TIP3   OH263229   4.263   1.660  15.623 -0.5577 -0.3430 -0.1574
13913TIP3    H163230   4.244   1.687  15.713 -2.7250 -0.6477 -0.4973
13913TIP3    H263231   4.309   1.735  15.585 -0.4877  0.1761  0.9329
13914TIP3   OH263232   5.468   0.644   0.279 -1.0179 -0.1396 -0.6732
13914TIP3    H163233   5.410   0.630   0.204 -3.0100 -0.5370  0.9015
13914TIP3    H263234   5.470   0.739   0.290 -0.4182 -0.0529 -1.4303
13915TIP3   OH263235   1.715   2.799   6.379 -0.5897 -0.2170 -0.6151
13915TIP3    H163236   1.700   2.707   6.401 -1.0169 -0.0996 -0.4093
13915TIP3    H263237   1.802   2.818   6.414 -1.5987  0.2001  1.7379
13916TIP3   OH263238   0.890   0.059   3.223 -0.3781 -0.1323  0.4810
13916TIP3    H163239   0.836  -0.019   3.211  1.8979 -1.7500  0.4024
13916TIP3    H263240   0.959   0.050   3.158 -0.6594  2.5138 -0.2540
13917TIP3   OH263241   6.286   1.432  14.764 -0.0875  0.0059  0.1206
13917TIP3    H163242   6.341   1.465  14.692  2.1338 -1.8927  0.8834
13917TIP3    H263243   6.213   1.493  14.768 -0.1455  0.2941 -3.6022
13918TIP3   OH263244   5.269   0.003   3.255 -0.3505  0.1584 -0.2685
13918TIP3    H163245   5.217  -0.000   3.335 -0.6386  1.9605 -0.3629
13918TIP3    H263246   5.359   0.017   3.286 -0.1226 -1.4753 -0.1693
13919TIP3   OH263247   5.340   0.670  16.495  0.3678  0.1794  0.1283
13919TIP3    H163248   5.300   0.584  16.480  0.5011  0.4798 -2.2320
13919TIP3    H263249   5.268   0.726  16.524 -0.0201 -0.3824  0.2405
13920TIP3   OH263250   2.131   1.407   3.435 -0.7432 -0.4181 -0.0897
13920TIP3    H163251   2.185   1.479   3.402 -0.2920  0.6137  2.8066
13920TIP3    H263252   2.190   1.331   3.435 -0.1530  0.0366  0.2743
13921TIP3   OH263253   0.735   2.887   0.868  0.2435 -0.1569  0.1897
13921TIP3    H163254   0.827   2.914   0.865  0.4712 -1.0663 -1.7460
13921TIP3    H263255   0.703   2.903   0.779 -1.7818  1.1657  1.1217
13922TIP3   OH263256   4.393   5.560   0.354 -0.3867 -0.1484 -0.1913
13922TIP3    H163257   4.379   5.472   0.390  0.2681 -0.1704  0.0105
13922TIP3    H263258   4.323   5.613   0.394  0.7562 -0.0124  1.7003
13923TIP3   OH263259   5.566   5.091   6.239  0.0581  0.4751 -0.1101
13923TIP3    H163260   5.604   5.072   6.154 -1.0243  1.6923 -0.8924
13923TIP3    H263261   5.624   5.157   6.277 -0.6721  1.5988 -0.8849
13924TIP3   OH263262   3.230   2.525  12.247  0.1938 -0.0402  0.3812
13924TIP3    H163263   3.235   2.450  12.188 -0.6429  1.2181 -1.3144
13924TIP3    H263264   3.137   2.541  12.257  0.3520  0.2565  1.4268
13925TIP3   OH263265   3.820   0.677  11.561 -0.0904 -0.2318  0.6000
13925TIP3    H163266   3.856   0.760  11.529  0.1915 -0.7315 -0.4073
13925TIP3    H263267   3.737   0.701  11.603 -0.8862  0.3375 -1.2611
13926TIP3   OH263268   1.971   0.271  11.798  0.2422 -0.1614 -0.8274
13926TIP3    H163269   1.970   0.226  11.713 -0.8481  0.8090 -1.3369
13926TIP3    H263270   1.913   0.219  11.853 -1.5962  0.9853 -1.6285
13927TIP3   OH263271   5.425   0.751  15.930  0.1837 -0.9103 -0.0909
13927TIP3    H163272   5.358   0.818  15.946  0.8849 -0.0890 -0.5512
13927TIP3    H263273   5.507   0.791  15.959  0.3944 -2.1511  1.0828
13928TIP3   OH263274   6.559   0.493   5.518 -0.1319 -0.1795 -0.2633
13928TIP3    H163275   6.649   0.521   5.529  0.1113 -1.7500  2.0299
13928TIP3    H263276   6.507   0.558   5.566 -0.3032  1.0223 -2.0227
13929TIP3   OH263277   6.557   1.684   1.878  0.1583  0.1748  0.4569
13929TIP3    H163278   6.520   1.747   1.940  0.7076  1.1875 -0.2230
13929TIP3    H263279   6.583   1.738   1.803 -0.3974 -1.0145 -0.6106
13930TIP3   OH263280   3.808   2.322   3.284  0.7793  0.6878 -0.4664
13930TIP3    H163281   3.817   2.234   3.319 -0.6239  0.7687  0.1217
13930TIP3    H263282   3.730   2.318   3.228  0.4257  1.6525 -0.0686
13931TIP3   OH263283   2.902   5.736   2.766 -0.5304  0.9381 -0.2255
13931TIP3    H163284   2.878   5.752   2.675  2.4183  0.4801 -1.1290
13931TIP3    H263285   2.983   5.684   2.762  0.5704  2.2730  2.6165
13932TIP3   OH263286   0.953   5.015   5.088 -0.0500  0.4084 -0.3848
13932TIP3    H163287   0.874   4.967   5.114  0.3724  0.1660  0.4570
13932TIP3    H263288   1.022   4.981   5.145  0.5723  0.9418 -0.8124
13933TIP3   OH263289   3.211   4.466   1.434  0.4702 -0.8999 -0.0027
13933TIP3    H163290   3.120   4.466   1.462  1.0355  0.7539  1.9478
13933TIP3    H263291   3.211   4.416   1.352 -2.0220 -1.6708  0.4313
13934TIP3   OH263292   2.685   6.787  10.703  0.6342 -0.4333 -0.1435
13934TIP3    H163293   2.763   6.839  10.721 -0.9530  1.0304  2.9068
13934TIP3    H263294   2.650   6.822  10.621  1.0656  1.4948  0.4835
13935TIP3   OH263295   6.662   6.322   0.475  0.0218  0.1697 -0.1046
13935TIP3    H163296   6.715   6.385   0.524 -0.4666 -0.7000  1.5746
13935TIP3    H263297   6.714   6.242   0.475  0.3082  0.3528 -1.5901
13936TIP3   OH263298   5.612   6.595   3.806 -0.0499  0.1500 -0.3094
13936TIP3    H163299   5.525   6.596   3.846 -0.3645 -1.9315 -0.9026
13936TIP3    H263300   5.600   6.548   3.724  1.3192  1.2609 -1.1554
13937TIP3   OH263301   4.913   5.377   4.371  0.5032  0.2183 -0.5373
13937TIP3    H163302   4.897   5.330   4.453  0.4345  0.0012 -0.6747
13937TIP3    H263303   4.854   5.335   4.307  1.0894 -0.1117 -0.8729
13938TIP3   OH263304   2.076   2.363  12.468  0.1841  0.6219 -0.2116
13938TIP3    H163305   2.020   2.347  12.544  1.1066 -0.2496  0.2960
13938TIP3    H263306   2.115   2.278  12.449 -0.2374  0.7744 -1.8351
13939TIP3   OH263307   5.818   5.775  12.871 -0.3085  0.3703  0.8539
13939TIP3    H163308   5.851   5.807  12.955  0.2204  1.7928  0.1233
13939TIP3    H263309   5.823   5.851  12.813  0.1719 -0.8295 -0.7019
13940TIP3   OH263310   5.780   0.894   1.165 -0.3900 -0.1632 -0.1241
13940TIP3    H163311   5.854   0.844   1.200  0.0878  0.5734 -0.0733
13940TIP3    H263312   5.766   0.964   1.228 -1.9479 -1.0111  0.5130
13941TIP3   OH263313   6.244   0.792   3.736  0.5755  0.2334  0.1637
13941TIP3    H163314   6.189   0.838   3.673  1.4284  2.2685  0.8497
13941TIP3    H263315   6.333   0.825   3.718  1.5528 -2.6499 -0.6494
13942TIP3   OH263316   5.763   5.447  16.656  0.1849 -0.6610 -0.1160
13942TIP3    H163317   5.835   5.416  16.711 -0.4865 -0.4101  0.9209
13942TIP3    H263318   5.760   5.542  16.669  0.7209 -0.4414 -1.4533
13943TIP3   OH263319   4.729   0.334   3.881 -0.2238 -0.3265 -0.2049
13943TIP3    H163320   4.767   0.253   3.847 -1.6496 -1.6751  1.3013
13943TIP3    H263321   4.797   0.369   3.940  0.1215 -0.7795 -0.3288
13944TIP3   OH263322   1.971   5.601   3.403  0.0374 -0.3316  0.4952
13944TIP3    H163323   1.983   5.682   3.355  1.2537 -0.7838  0.0105
13944TIP3    H263324   2.054   5.589   3.450 -0.2939 -1.0608  0.8928
13945TIP3   OH263325   2.426   1.857   5.135  0.6935  0.1533 -0.2300
13945TIP3    H163326   2.421   1.779   5.080  1.9901  0.3427 -0.6278
13945TIP3    H263327   2.406   1.826   5.223  0.5688 -0.5104 -0.4882
13946TIP3   OH263328   1.525   5.289  16.200 -0.4967 -0.5457 -0.0686
13946TIP3    H163329   1.573   5.350  16.255  0.5911 -1.8364  0.4699
13946TIP3    H263330   1.452   5.339  16.165  0.7939  1.2551 -0.2444
13947TIP3   OH263331   0.773   3.829  11.483  0.0022 -0.6674 -0.2939
13947TIP3    H163332   0.735   3.773  11.415 -0.3188 -0.3941 -0.3390
13947TIP3    H263333   0.837   3.772  11.527  0.5873 -0.6828 -1.1570
13948TIP3   OH263334   2.023   2.998   3.701 -0.2241  0.5206 -0.1497
13948TIP3    H163335   2.084   2.936   3.741 -1.3616 -0.4908  0.0474
13948TIP3    H263336   2.066   3.083   3.708  2.5746 -0.6111 -2.8673
13949TIP3   OH263337   1.937   4.413   5.005 -0.0212 -0.0697 -0.0655
13949TIP3    H163338   1.977   4.454   5.081 -1.3877 -1.8849  1.6892
13949TIP3    H263339   2.008   4.407   4.941  2.0220 -1.3987  2.2419
13950TIP3   OH263340   5.255   1.785  16.585  0.9049 -0.3242  0.6820
13950TIP3    H163341   5.325   1.726  16.611  0.7510 -0.7106  0.2144
13950TIP3    H263342   5.245   1.772  16.491  0.5580  0.1059  0.6530
13951TIP3   OH263343   1.052   1.090   5.626  0.6109 -0.5792  0.0656
13951TIP3    H163344   0.991   1.151   5.666 -0.3676 -2.2627  1.2242
13951TIP3    H263345   1.129   1.091   5.683  0.6537 -0.3144  0.0013
13952TIP3   OH263346   4.239   2.224  12.994 -0.2368 -0.4719  0.5869
13952TIP3    H163347   4.165   2.194  12.941  0.0100 -1.2502  0.6817
13952TIP3    H263348   4.314   2.175  12.960  0.2042  0.1719  0.6221
13953TIP3   OH263349   5.011   2.261  11.276 -0.1812  0.1227 -0.1036
13953TIP3    H163350   5.016   2.165  11.273  0.9492  0.1658  0.0940
13953TIP3    H263351   5.005   2.288  11.185  0.1836 -0.1093 -0.1966
13954TIP3   OH263352   3.800   2.414   2.177  0.4025 -0.2689 -0.0860
13954TIP3    H163353   3.843   2.350   2.233  0.4558 -0.2198 -0.0712
13954TIP3    H263354   3.871   2.452   2.126  0.2070 -1.2117 -1.0857
13955TIP3   OH263355   4.200   4.259  12.317  0.2344  0.3169 -0.1679
13955TIP3    H163356   4.265   4.189  12.327  0.6877  0.4741 -1.8176
13955TIP3    H263357   4.194   4.298  12.404  1.6372 -0.3394  0.2486
13956TIP3   OH263358   3.327   0.487   5.178  0.2167  0.0862 -0.1740
13956TIP3    H163359   3.282   0.458   5.099  2.2543 -1.7181 -0.7102
13956TIP3    H263360   3.317   0.414   5.239  0.3628  0.6615  0.5471
13957TIP3   OH263361   5.703   1.568   2.866 -0.5667  0.1734 -0.4349
13957TIP3    H163362   5.793   1.597   2.883 -1.0914  1.0732  0.9739
13957TIP3    H263363   5.655   1.592   2.946 -2.0558 -0.2910 -1.1668
13958TIP3   OH263364   0.426   6.691  13.087 -0.2344  0.1768  0.0801
13958TIP3    H163365   0.334   6.698  13.060 -0.2661  1.6917  0.5177
13958TIP3    H263366   0.425   6.712  13.180  0.7713  1.9841 -0.2887
13959TIP3   OH263367   6.471   6.394  14.852 -0.0469 -0.3610  0.0131
13959TIP3    H163368   6.463   6.384  14.947 -1.7149 -0.2852 -0.1145
13959TIP3    H263369   6.418   6.323  14.816  0.3357 -0.2045 -0.8698
13960TIP3   OH263370   2.508   1.811   2.153  0.0730 -0.4046  0.2411
13960TIP3    H163371   2.594   1.775   2.130 -0.2494  0.0639 -1.7666
13960TIP3    H263372   2.450   1.783   2.082 -0.6357  2.2814 -0.3255
13961TIP3   OH263373   5.652   5.172   3.539  0.2222 -0.2637  0.6703
13961TIP3    H163374   5.567   5.136   3.561 -0.2137  0.5342  0.3186
13961TIP3    H263375   5.703   5.166   3.620 -0.0169 -1.1679  0.7531
13962TIP3   OH263376   0.258   1.384  12.441 -0.4258 -0.3100  0.1343
13962TIP3    H163377   0.319   1.313  12.460 -1.8077 -1.5484 -0.0063
13962TIP3    H263378   0.206   1.394  12.520  0.2490  1.0631  0.4217
13963TIP3   OH263379   1.216   5.839   6.393 -0.0226 -0.2439 -0.1802
13963TIP3    H163380   1.246   5.748   6.403 -0.0521 -0.0993  1.3289
13963TIP3    H263381   1.234   5.879   6.478 -1.8540  0.6219 -0.1925
13964TIP3   OH263382   5.884   4.105   0.998 -0.0166  0.1774  0.1171
13964TIP3    H163383   5.934   4.179   0.963  0.1696 -0.0368 -0.0684
13964TIP3    H263384   5.947   4.033   1.003 -0.0661  0.1810  0.8196
13965TIP3   OH263385   3.725   5.209   4.800 -0.1359 -0.2814 -0.1229
13965TIP3    H163386   3.636   5.196   4.765 -0.7897  0.1889  1.3155
13965TIP3    H263387   3.739   5.304   4.796 -0.3223 -0.1915  1.0972
13966TIP3   OH263388   5.687   2.246   2.419  0.2791 -0.3680  0.2643
13966TIP3    H163389   5.732   2.259   2.335  1.8802  1.2902  1.3252
13966TIP3    H263390   5.594   2.260   2.399  0.6743  0.3132 -1.1728
13967TIP3   OH263391   1.520   6.422  12.106 -0.3980  0.5919 -0.3040
13967TIP3    H163392   1.517   6.516  12.124  0.7549  0.2086  2.1689
13967TIP3    H263393   1.596   6.390  12.156 -1.4081 -1.8280 -0.2258
13968TIP3   OH263394   6.098   1.101  12.592 -0.2989  0.2754  0.4010
13968TIP3    H163395   6.071   1.098  12.683 -0.4655 -0.5768  0.3275
13968TIP3    H263396   6.098   1.009  12.563  1.0174  0.4114 -0.0795
13969TIP3   OH263397   4.171   2.889  11.511  0.4561 -0.0446  0.0164
13969TIP3    H163398   4.184   2.950  11.584  0.7917 -1.7569  1.4310
13969TIP3    H263399   4.230   2.920  11.443  1.9180  0.2000  1.3558
13970TIP3   OH263400   4.829   1.766  11.060  0.6128  0.8063  0.4305
13970TIP3    H163401   4.889   1.747  11.131 -1.3174  1.5788  2.3526
13970TIP3    H263402   4.852   1.855  11.032  2.3723 -0.0730 -0.9845
13971TIP3   OH263403   2.201   3.432  12.443  0.2585  0.1086  0.3540
13971TIP3    H163404   2.240   3.392  12.365 -1.7982  0.5984 -0.9750
13971TIP3    H263405   2.250   3.513  12.455  0.9246 -0.2163 -0.1400
13972TIP3   OH263406   0.802   4.356   5.211 -0.0628 -0.0462 -0.2314
13972TIP3    H163407   0.803   4.414   5.287 -0.8432 -1.1413  0.6261
13972TIP3    H263408   0.893   4.355   5.181 -0.1748  2.1734 -0.6851
13973TIP3   OH263409   1.906   2.641   6.120 -0.2509  0.1266 -0.8904
13973TIP3    H163410   1.991   2.649   6.162 -0.9806 -1.5762  0.9834
13973TIP3    H263411   1.925   2.610   6.032  1.1440  1.1982 -0.9716
13974TIP3   OH263412   3.859   6.668   1.285  0.5857 -0.2859 -0.1067
13974TIP3    H163413   3.837   6.581   1.254 -3.8649  0.7912 -0.3327
13974TIP3    H263414   3.875   6.719   1.206  2.0753 -0.5631 -0.0112
13975TIP3   OH263415   0.595   3.402  15.509  0.3595  0.4452  0.0978
13975TIP3    H163416   0.674   3.362  15.546  0.3830 -0.6864 -1.1333
13975TIP3    H263417   0.627   3.461  15.441  0.1284 -0.9638 -1.2848
13976TIP3   OH263418   3.632   2.891   3.302  0.5093  0.2157  0.1879
13976TIP3    H163419   3.545   2.850   3.304  0.7978 -0.4014  0.3446
13976TIP3    H263420   3.686   2.835   3.358  1.0138  0.5867  0.0792
13977TIP3   OH263421   5.953   0.826   4.129 -0.1523  0.1190  0.1857
13977TIP3    H163422   5.966   0.901   4.071 -0.0997 -0.0753 -0.0558
13977TIP3    H263423   5.991   0.752   4.081  1.8800  0.3323  1.4006
13978TIP3   OH263424   1.506   0.782   2.247 -0.6993  0.7082  0.2578
13978TIP3    H163425   1.530   0.819   2.162  1.9466 -0.9934  0.2083
13978TIP3    H263426   1.492   0.858   2.303 -0.8987  1.8367 -1.3067
13979TIP3   OH263427   0.165   0.560  11.260  0.2048  0.2638  0.1865
13979TIP3    H163428   0.161   0.649  11.226 -0.4536  0.3315  0.4535
13979TIP3    H263429   0.256   0.534  11.246  0.1018  0.5336 -1.0220
13980TIP3   OH263430   1.250   0.275  11.808  0.0485  0.3324 -0.9509
13980TIP3    H163431   1.164   0.234  11.807 -0.1259  0.7054 -1.4456
13980TIP3    H263432   1.232   0.367  11.831  0.6980 -0.4523  3.1129
13981TIP3   OH263433   1.890   4.839  16.435 -0.2538 -0.0089  0.0161
13981TIP3    H163434   1.845   4.922  16.425 -0.0660  0.2643  1.2785
13981TIP3    H263435   1.828   4.773  16.404 -1.0549  0.4663  0.5949
13982TIP3   OH263436   3.881   2.434   0.017 -0.6635 -0.3462  0.0073
13982TIP3    H163437   3.880   2.509  -0.042 -0.8298  0.1682  0.6590
13982TIP3    H263438   3.789   2.414   0.032 -0.6244 -0.3094  0.3018
13983TIP3   OH263439   4.498   4.577  16.354  0.0526 -0.0368  0.3548
13983TIP3    H163440   4.578   4.525  16.344  0.7040  0.7052  1.4377
13983TIP3    H263441   4.510   4.621  16.439 -0.3882  1.9809 -0.5941
13984TIP3   OH263442   4.013   4.926  15.279  1.0848  0.2752 -0.2964
13984TIP3    H163443   3.926   4.914  15.241  0.5442  0.6608  0.7966
13984TIP3    H263444   4.073   4.890  15.214 -0.0251 -1.8219 -0.1982
13985TIP3   OH263445   0.062   4.918  15.614  0.5400 -0.2730 -0.7976
13985TIP3    H163446   0.133   4.878  15.565  1.2506  0.2969 -0.2403
13985TIP3    H263447   0.089   4.913  15.706 -0.3703 -0.5245 -0.5297
13986TIP3   OH263448   5.886   3.117  14.516 -0.5567 -0.3071  0.0342
13986TIP3    H163449   5.865   3.148  14.428 -0.2241  0.6361  0.2811
13986TIP3    H263450   5.814   3.149  14.571 -0.1982  0.0647  0.2953
13987TIP3   OH263451   1.621   6.014   2.132 -0.1031  0.5225  0.1067
13987TIP3    H163452   1.645   5.957   2.205  0.2693 -0.8358 -1.0518
13987TIP3    H263453   1.645   6.102   2.161  0.2330 -0.0363  1.5362
13988TIP3   OH263454   2.455   4.514   4.539  0.7560  0.2702 -0.0204
13988TIP3    H163455   2.463   4.428   4.497  1.3983  0.0297  0.5770
13988TIP3    H263456   2.364   4.518   4.568 -0.1777  1.1379 -2.9032
13989TIP3   OH263457   1.515   3.401  11.866  0.1692  0.7696 -0.3596
13989TIP3    H163458   1.511   3.307  11.882 -0.4510  0.8975  0.2757
13989TIP3    H263459   1.466   3.413  11.784 -0.6915  0.6642  0.1323
13990TIP3   OH263460   6.222   4.398  14.900  0.6378 -0.7190  0.0495
13990TIP3    H163461   6.277   4.472  14.872 -2.1275  1.1915 -0.4887
13990TIP3    H263462   6.183   4.366  14.819 -0.1488 -1.1698  0.6077
13991TIP3   OH263463   2.189   4.783  14.404 -0.1421  0.2316  0.1119
13991TIP3    H163464   2.183   4.878  14.397  0.1684  0.2181 -0.4272
13991TIP3    H263465   2.177   4.764  14.497 -0.8091  0.7491  0.1311
13992TIP3   OH263466   3.936   5.174  10.874 -0.6687  0.2706 -0.3789
13992TIP3    H163467   3.997   5.205  10.807 -0.9807  0.8635 -0.3938
13992TIP3    H263468   3.891   5.253  10.904  2.3076  0.6706  3.4197
13993TIP3   OH263469   5.634   0.641  11.721  0.4450 -0.5383 -0.4906
13993TIP3    H163470   5.704   0.707  11.721  0.7362 -0.8282  1.0428
13993TIP3    H263471   5.660   0.580  11.789 -0.2676 -1.7842 -1.3267
13994TIP3   OH263472   4.748   6.749  10.809 -0.0592  0.0177  0.4605
13994TIP3    H163473   4.668   6.768  10.759 -0.7387 -2.2844  0.6321
13994TIP3    H263474   4.754   6.821  10.872 -2.8786 -0.5987  1.5011
13995TIP3   OH263475   6.776   1.693   1.051  0.7003 -0.4682  0.3379
13995TIP3    H163476   6.820   1.639   0.984  2.3974 -0.0805  1.1213
13995TIP3    H263477   6.813   1.780   1.039 -1.0653  0.2520 -0.0383
13996TIP3   OH263478   5.580   3.650   4.264 -0.5879 -0.3977 -0.4867
13996TIP3    H163479   5.571   3.723   4.326  0.2358 -0.0071 -0.8221
13996TIP3    H263480   5.490   3.621   4.249 -0.7528 -1.0345  1.5191
13997TIP3   OH263481   4.610   4.558  14.817 -0.3747  0.0772  0.7903
13997TIP3    H163482   4.681   4.620  14.801  0.9962 -1.6289  0.0551
13997TIP3    H263483   4.557   4.599  14.885  1.3268  1.3947  1.3553
13998TIP3   OH263484   6.116   3.778   6.417  0.4622  0.4323  0.2422
13998TIP3    H163485   6.135   3.686   6.398  0.6738 -0.0612  2.7440
13998TIP3    H263486   6.174   3.800   6.489 -0.4800  2.1857  0.4802
13999TIP3   OH263487   3.087   1.866  12.135  0.1194  0.4486 -0.6575
13999TIP3    H163488   3.173   1.907  12.128  1.2657 -1.8966 -0.6684
13999TIP3    H263489   3.041   1.891  12.055  1.6917 -0.2663 -1.8038
14000TIP3   OH263490   1.125   3.523  15.123  0.2701  0.3464  0.0558
14000TIP3    H163491   1.155   3.444  15.077  0.2110  0.4366 -0.1349
14000TIP3    H263492   1.193   3.538  15.190  1.1234  1.0779 -0.9600
14001TIP3   OH263493   0.594   6.695  12.844 -0.1003 -0.7929  0.1583
14001TIP3    H163494   0.536   6.730  12.911 -0.3380 -0.6517 -0.1148
14001TIP3    H263495   0.539   6.635  12.793  0.4194 -1.8922  0.8830
14002TIP3   OH263496   6.780   1.926  16.318  0.2650 -0.0056  0.4476
14002TIP3    H163497   6.726   1.945  16.241  0.9003  1.2612  0.2928
14002TIP3    H263498   6.787   1.831  16.320  0.9385 -0.0208 -1.5739
14003TIP3   OH263499   0.481   2.769  15.995  0.1938 -0.5078  0.3452
14003TIP3    H163500   0.545   2.828  16.034 -0.7655  0.3621  0.6305
14003TIP3    H263501   0.415   2.756  16.063 -1.5389  1.0751 -0.9379
14004TIP3   OH263502   2.580   1.325  10.978 -0.1448 -0.0957 -0.4198
14004TIP3    H163503   2.660   1.349  10.932  0.7437 -0.0761  1.0972
14004TIP3    H263504   2.513   1.323  10.910  0.6686  2.2017 -1.3224
14005TIP3   OH263505   3.636   1.768   5.539  0.1943  0.5599  0.4669
14005TIP3    H163506   3.693   1.696   5.511 -0.8638  0.0791 -0.5174
14005TIP3    H263507   3.647   1.772   5.634  1.6867  0.3248  0.3200
14006TIP3   OH263508   0.488   3.182   3.123  0.8617  0.6360 -0.0541
14006TIP3    H163509   0.439   3.234   3.186  0.9452  1.0454 -0.3231
14006TIP3    H263510   0.517   3.245   3.057  1.6024  0.3666  0.0109
14007TIP3   OH263511   4.108   5.164   0.429 -0.0106 -0.1335  0.5798
14007TIP3    H163512   4.144   5.098   0.370  1.5548  1.2618 -0.0813
14007TIP3    H263513   4.022   5.185   0.392 -0.8072 -2.2855  1.1959
14008TIP3   OH263514   4.072   3.208   2.787 -0.1302  0.5065 -0.2322
14008TIP3    H163515   3.992   3.172   2.749  0.1787 -0.1447 -0.2630
14008TIP3    H263516   4.098   3.277   2.726  0.8898 -1.1534 -1.7103
14009TIP3   OH263517   0.098   6.037   4.877  0.6700  0.2796  0.0667
14009TIP3    H163518   0.183   5.994   4.888  0.7678  0.6626  0.8082
14009TIP3    H263519   0.086   6.041   4.782  0.2326 -2.2302 -0.0256
14010TIP3   OH263520   2.207   6.658   0.345 -0.5743  0.3586 -0.4390
14010TIP3    H163521   2.120   6.619   0.338 -0.3421 -0.5493  1.4537
14010TIP3    H263522   2.192   6.749   0.369 -1.0418  0.7518 -2.1614
14011TIP3   OH263523   1.971   6.705  17.161  0.9841 -0.3784  0.7738
14011TIP3    H163524   2.060   6.692  17.193  0.9728 -0.2489  0.8575
14011TIP3    H263525   1.956   6.632  17.100  1.1638 -0.3744  0.7233
14012TIP3   OH263526   1.590   4.969   1.628 -0.6740 -0.1746 -0.0934
14012TIP3    H163527   1.576   4.992   1.719 -4.1086  0.3781 -0.6949
14012TIP3    H263528   1.579   5.052   1.580  0.3802 -0.5826 -1.0749
14013TIP3   OH263529   2.785   6.533  16.666  0.0643  0.0242 -0.5456
14013TIP3    H163530   2.759   6.593  16.595  2.3535  1.8955  0.1378
14013TIP3    H263531   2.811   6.591  16.738 -2.2227 -1.8396  1.9021
14014TIP3   OH263532   2.556   3.191   4.334 -0.4271  0.6594  0.1559
14014TIP3    H163533   2.644   3.200   4.298 -0.4176  1.7600  0.4253
14014TIP3    H263534   2.538   3.097   4.332  0.5008  0.4901 -0.4933
14015TIP3   OH263535   2.091   3.859   4.596 -0.0316 -0.6110 -0.3262
14015TIP3    H163536   2.013   3.859   4.541 -0.5376  0.7548  0.3747
14015TIP3    H263537   2.164   3.868   4.535 -0.4384 -1.5713 -0.9601
14016TIP3   OH263538   0.831   2.674  12.041 -0.2739  0.4881 -0.1773
14016TIP3    H163539   0.750   2.704  12.082 -0.2773 -0.0018  0.1824
14016TIP3    H263540   0.853   2.593  12.088 -0.7315 -0.5496 -1.7381
14017TIP3   OH263541   0.801   3.722   4.636  0.4822  0.7697  0.0301
14017TIP3    H163542   0.867   3.667   4.594  0.4938  0.5595  0.3200
14017TIP3    H263543   0.719   3.698   4.593  0.6084  1.0923 -0.3877
14018TIP3   OH263544   0.825   2.288  16.986  0.0958 -0.2598 -0.4365
14018TIP3    H163545   0.811   2.201  17.023  0.8925 -0.5977 -0.9369
14018TIP3    H263546   0.806   2.278  16.893 -3.3762  0.9242  0.0457
14019TIP3   OH263547   3.561   6.457   4.437 -0.0840 -0.1460  0.4340
14019TIP3    H163548   3.562   6.373   4.392 -0.7643 -0.8226  1.6476
14019TIP3    H263549   3.511   6.515   4.380 -1.3022 -1.1038  0.5092
14020TIP3   OH263550   0.316   1.830  14.736  0.2540 -0.6092 -0.2162
14020TIP3    H163551   0.362   1.750  14.764  2.1614  0.6379  0.3231
14020TIP3    H263552   0.292   1.873  14.818  1.9908  0.8842 -0.4550
14021TIP3   OH263553   3.211   6.700  12.184 -0.5896 -0.4885 -0.0260
14021TIP3    H163554   3.216   6.757  12.260  0.6138  0.7802 -1.0331
14021TIP3    H263555   3.177   6.756  12.114  1.5939 -0.6956 -1.2926
14022TIP3   OH263556   6.761   3.242  15.362  0.3686 -0.2856  0.1557
14022TIP3    H163557   6.851   3.266  15.342  0.3708 -0.2038  0.2640
14022TIP3    H263558   6.721   3.322  15.395  0.6197 -0.6480  1.3522
14023TIP3   OH263559   6.395   6.624   0.633 -0.3944  0.2826  0.4181
14023TIP3    H163560   6.422   6.660   0.548  2.0998  1.0996  1.5117
14023TIP3    H263561   6.307   6.589   0.617  1.1316 -2.2208 -3.2758
14024TIP3   OH263562   4.509   4.763  14.996 -0.7370  0.2342  0.0892
14024TIP3    H163563   4.574   4.834  14.995 -0.2272 -0.2224 -1.9601
14024TIP3    H263564   4.425   4.808  14.998 -0.4005  0.8297  2.9697
14025TIP3   OH263565   1.889   4.930   3.397  0.5441 -0.0596  0.1187
14025TIP3    H163566   1.950   4.981   3.451 -1.4629  2.2149  0.3019
14025TIP3    H263567   1.870   4.986   3.322 -1.6591 -0.5139  0.2961
14026TIP3   OH263568   0.411   2.849  15.605 -0.2362 -0.3618  1.2315
14026TIP3    H163569   0.332   2.898  15.582  1.6906  1.8259 -1.0418
14026TIP3    H263570   0.461   2.909  15.660  1.6353 -0.1264 -0.6451
14027TIP3   OH263571   2.179   3.150   0.739  0.4378 -0.3766 -0.1564
14027TIP3    H163572   2.260   3.201   0.743  1.2618 -1.7079  0.2945
14027TIP3    H263573   2.133   3.171   0.820 -0.2107  1.2304 -0.9051
14028TIP3   OH263574   1.387   3.876  15.271 -0.0293 -0.2835  0.0587
14028TIP3    H163575   1.354   3.960  15.239  1.1250  0.3335  0.4880
14028TIP3    H263576   1.479   3.874  15.245 -0.1697 -1.6490 -0.4091
14029TIP3   OH263577   4.819   5.095  13.697  0.1127 -0.4351 -0.5568
14029TIP3    H163578   4.743   5.038  13.688  0.0491 -0.7477  1.5850
14029TIP3    H263579   4.875   5.050  13.760  0.2341  1.6699  0.8971
14030TIP3   OH263580   2.542   3.135   2.923  1.1872  0.2175 -0.3892
14030TIP3    H163581   2.527   3.105   2.833 -0.3453  1.9841 -0.7613
14030TIP3    H263582   2.456   3.166   2.952  1.4862 -1.0911  1.9934
14031TIP3   OH263583   0.219   2.571  15.391 -0.0577  0.3962 -0.4005
14031TIP3    H163584   0.139   2.531  15.357 -0.5796  0.5570  0.6201
14031TIP3    H263585   0.218   2.550  15.484  0.9354  0.6632 -0.3301
14032TIP3   OH263586   4.599   4.681   0.514 -0.0344 -0.1680 -0.0389
14032TIP3    H163587   4.576   4.614   0.449 -3.2349 -1.8167  2.5817
14032TIP3    H263588   4.669   4.641   0.565  0.7102  0.0592 -0.8866
14033TIP3   OH263589   0.373   0.038   6.056  0.1910 -0.1488  0.0369
14033TIP3    H163590   0.373   0.132   6.076  1.6574 -0.2240  0.4506
14033TIP3    H263591   0.305   0.002   6.113  1.6222  0.2439  2.0522
14034TIP3   OH263592   4.480   6.656  16.834 -0.5198  0.0261  0.2491
14034TIP3    H163593   4.461   6.636  16.926  1.3304 -0.2871  0.5836
14034TIP3    H263594   4.573   6.681  16.833 -1.0697  2.1412 -1.2188
14035TIP3   OH263595   1.270   6.259  15.692  0.4907 -0.0362 -0.2868
14035TIP3    H163596   1.287   6.351  15.672 -0.0544  0.1783  0.1939
14035TIP3    H263597   1.175   6.250  15.683  0.6737 -0.8219 -1.4033
14036TIP3   OH263598   2.188   2.448  15.055  0.4357 -0.4597 -0.0173
14036TIP3    H163599   2.182   2.543  15.045 -0.6582 -0.4299  0.8343
14036TIP3    H263600   2.099   2.420  15.075  0.5728 -1.7882 -1.1961
14037TIP3   OH263601   2.556   6.163   1.562 -0.0583  0.1244 -0.1695
14037TIP3    H163602   2.484   6.221   1.537  0.1617  0.6637  0.4337
14037TIP3    H263603   2.595   6.135   1.479  0.0035  1.0515 -0.4587
14038TIP3   OH263604   6.297   3.763   1.861 -0.3921 -0.3139 -0.1401
14038TIP3    H163605   6.229   3.820   1.897 -0.8389  0.1251 -1.6214
14038TIP3    H263606   6.261   3.674   1.870 -1.3238 -0.0608 -1.2076
14039TIP3   OH263607   0.323   4.193  12.320 -0.2049 -0.5072 -0.3039
14039TIP3    H163608   0.335   4.101  12.300 -1.6647 -1.2202  1.8260
14039TIP3    H263609   0.316   4.236  12.235  0.8721 -2.2943 -1.3204
14040TIP3   OH263610   4.518   2.564  15.164 -0.4258 -0.5928  0.6240
14040TIP3    H163611   4.515   2.473  15.133 -0.3371 -0.5650  0.5333
14040TIP3    H263612   4.588   2.604  15.113 -0.5406 -0.4429  0.5829
14041TIP3   OH263613   4.688   5.688   6.472  0.0494  0.3104 -0.3918
14041TIP3    H163614   4.694   5.638   6.391 -0.9708  0.2842 -0.4556
14041TIP3    H263615   4.767   5.665   6.520  1.1135  1.0287 -1.7680
14042TIP3   OH263616   6.231   0.264  13.523  0.4040  0.1045  0.0680
14042TIP3    H163617   6.232   0.185  13.576  1.0238 -0.4074 -0.6896
14042TIP3    H263618   6.229   0.336  13.586  0.1598 -0.5033  0.7612
14043TIP3   OH263619   1.000   4.686   2.012  0.2649 -0.1847 -0.3615
14043TIP3    H163620   1.077   4.735   1.984  0.7119 -0.2029  0.8151
14043TIP3    H263621   0.926   4.733   1.974  0.7656  0.6690 -0.2826
14044TIP3   OH263622   0.365   4.940   5.532 -0.2935  0.7470  0.8328
14044TIP3    H163623   0.356   5.024   5.578  2.6931  1.5117  0.1678
14044TIP3    H263624   0.291   4.938   5.472 -1.7754  1.7742  2.5576
14045TIP3   OH263625   3.949   2.071  12.708  0.0260 -0.4451  0.2517
14045TIP3    H163626   3.860   2.037  12.700 -0.5382  0.6318  1.6005
14045TIP3    H263627   3.967   2.111  12.623 -0.6044 -1.0499 -0.1763
14046TIP3   OH263628   5.606   4.287  13.949  0.7274  0.2171  0.2913
14046TIP3    H163629   5.524   4.297  13.998 -0.4472 -0.1052 -1.5872
14046TIP3    H263630   5.675   4.306  14.014 -0.8371  1.1435  1.7124
14047TIP3   OH263631   1.231   0.889   3.928  0.0085 -0.4208  0.5361
14047TIP3    H163632   1.296   0.909   3.996 -1.2453  2.0636  1.0476
14047TIP3    H263633   1.205   0.799   3.946  1.4869 -0.6216  1.8304
14048TIP3   OH263634   0.051   3.998  14.422  0.1137 -0.4189 -0.2334
14048TIP3    H163635   0.136   3.993  14.467  0.0556 -0.2315 -0.1017
14048TIP3    H263636   0.073   4.025  14.333 -0.0424  2.5844  0.5838
14049TIP3   OH263637   1.859   5.138   3.968 -0.7350  0.0555 -0.3184
14049TIP3    H163638   1.866   5.105   3.878  3.2029  1.0563 -0.5005
14049TIP3    H263639   1.867   5.059   4.023  0.4951 -0.2061 -0.8447
14050TIP3   OH263640   5.021   5.611  16.239 -0.1541 -0.0534  0.2689
14050TIP3    H163641   5.098   5.595  16.185 -0.3510  1.1741 -0.3929
14050TIP3    H263642   4.952   5.558  16.200 -0.0446  0.0805 -0.1079
14051TIP3   OH263643   0.369   2.552   2.537 -0.0304  0.0614  0.0784
14051TIP3    H163644   0.286   2.600   2.533  0.8883  1.8400  1.5218
14051TIP3    H263645   0.413   2.574   2.455 -0.0239  0.9550  0.3134
14052TIP3   OH263646   5.980   0.616   0.472  0.5204  0.1699  0.1750
14052TIP3    H163647   6.001   0.663   0.553  0.1981 -1.3119  1.1534
14052TIP3    H263648   5.894   0.578   0.488 -0.7695  2.1109 -1.9318
14053TIP3   OH263649   4.625   5.739  16.630  0.1647 -0.0488 -0.3939
14053TIP3    H163650   4.601   5.794  16.705  0.5828 -0.5095  0.0831
14053TIP3    H263651   4.708   5.777  16.600  0.1680 -0.0725 -0.4134
14054TIP3   OH263652   4.246   3.560   0.066 -0.0496 -0.2102 -0.1920
14054TIP3    H163653   4.287   3.646   0.074 -1.1908  0.3382 -0.1546
14054TIP3    H263654   4.261   3.518   0.150  0.5737 -0.0712 -0.2365
14055TIP3   OH263655   3.761   3.465   4.270  0.0598  0.0646 -0.3831
14055TIP3    H163656   3.773   3.492   4.361 -1.7364  2.2652 -0.7509
14055TIP3    H263657   3.677   3.421   4.269 -0.7601  1.6030 -1.2723
14056TIP3   OH263658   4.411   1.578   5.984  0.9705 -0.0698  0.1365
14056TIP3    H163659   4.432   1.588   6.077 -0.8082 -0.0530  0.5654
14056TIP3    H263660   4.355   1.500   5.981 -0.6228  1.0976 -0.6421
14057TIP3   OH263661   4.329   3.130   4.709 -0.6263  0.4104  0.0779
14057TIP3    H163662   4.300   3.106   4.621 -0.5705  1.6361 -0.2828
14057TIP3    H263663   4.425   3.131   4.704 -0.6275  0.6746  0.0961
14058TIP3   OH263664   6.039   3.426  17.162 -0.3221 -0.5209 -0.3093
14058TIP3    H163665   6.061   3.338  17.130 -3.0397 -1.0739 -0.7721
14058TIP3    H263666   6.012   3.474  17.084 -1.8860 -0.2419  0.3906
14059TIP3   OH263667   5.661   4.731   4.775  0.7567 -0.3924  0.3800
14059TIP3    H163668   5.744   4.730   4.823  0.4321 -0.7106  0.9456
14059TIP3    H263669   5.662   4.815   4.728  2.0096 -1.0184 -0.7213
14060TIP3   OH263670   0.528   1.388   0.164 -0.1004  0.2195  0.1946
14060TIP3    H163671   0.434   1.375   0.169  0.0164 -0.4712  0.7365
14060TIP3    H263672   0.539   1.471   0.119 -0.9654  0.2316  0.0017
14061TIP3   OH263673   3.663   2.345   3.667  0.0806  0.3814 -0.3509
14061TIP3    H163674   3.666   2.273   3.730 -1.3850  1.4691  0.9832
14061TIP3    H263675   3.731   2.323   3.603 -0.2384 -2.1111  0.1088
14062TIP3   OH263676   1.054   2.163   3.445 -0.3440 -0.0052 -0.3586
14062TIP3    H163677   1.052   2.201   3.357  0.7818  0.5695 -0.1480
14062TIP3    H263678   1.009   2.227   3.500  0.4083  0.4230 -0.2330
14063TIP3   OH263679   0.284   2.941   2.410 -0.2069 -0.0800 -0.0312
14063TIP3    H163680   0.297   2.869   2.348 -0.2685 -0.4987  0.4377
14063TIP3    H263681   0.301   2.902   2.496  1.0235  0.7834  0.1348
14064TIP3   OH263682   1.571   2.912  12.486  0.0794  0.4873 -0.0290
14064TIP3    H163683   1.638   2.959  12.437  0.7667 -1.0677 -0.6108
14064TIP3    H263684   1.616   2.835  12.521 -1.5263 -0.9051 -0.9395
14065TIP3   OH263685   5.663   0.945  16.700  0.6568 -0.2292  0.6579
14065TIP3    H163686   5.704   1.011  16.644  0.9338 -0.4375  0.6108
14065TIP3    H263687   5.735   0.913  16.755  0.6074 -0.7649  0.4169
14066TIP3   OH263688   1.225   6.539  12.566 -0.3700  0.4683  0.0220
14066TIP3    H163689   1.308   6.528  12.519 -0.7160 -0.4413 -0.3984
14066TIP3    H263690   1.174   6.461  12.542 -0.6247  0.0869  1.7352
14067TIP3   OH263691   6.036   4.509  12.235 -0.2298 -0.4503 -0.2949
14067TIP3    H163692   6.035   4.583  12.295  1.1581 -0.0376 -0.7723
14067TIP3    H263693   6.049   4.548  12.149  2.9396 -1.4052 -0.2827
14068TIP3   OH263694   2.906   5.249  17.163  0.1200 -0.8296 -0.4838
14068TIP3    H163695   3.001   5.247  17.172  0.0501 -1.4706  0.1564
14068TIP3    H263696   2.882   5.341  17.176  0.5406 -0.8557  0.5188
14069TIP3   OH263697   4.624   3.994  14.305  0.3020 -0.0327 -0.3371
14069TIP3    H163698   4.683   3.990  14.230 -0.7586 -2.9494 -1.0642
14069TIP3    H263699   4.578   4.078  14.293  2.8865  1.3772 -0.7725
14070TIP3   OH263700   0.969   1.602   4.340  0.3239 -0.0908  0.1867
14070TIP3    H163701   0.950   1.543   4.267 -0.4008  0.6777 -0.2567
14070TIP3    H263702   1.061   1.586   4.361  0.3907 -0.6957 -0.5456
14071TIP3   OH263703   3.720   4.551   0.734  0.2646  0.1153  0.0817
14071TIP3    H163704   3.746   4.469   0.775 -1.0149 -0.6547 -0.6310
14071TIP3    H263705   3.637   4.574   0.777  1.0331  1.4867  0.8780
14072TIP3   OH263706   5.941   6.188   0.555 -0.0144 -0.0822  0.1983
14072TIP3    H163707   6.018   6.193   0.498 -0.0767  0.3636  0.1542
14072TIP3    H263708   5.948   6.265   0.611 -0.2977 -0.1768  0.3644
14073TIP3   OH263709   1.430   2.162   1.236 -0.4135  0.3220  0.4549
14073TIP3    H163710   1.392   2.239   1.193  0.4351  0.9265  0.7743
14073TIP3    H263711   1.513   2.149   1.191 -0.1181  0.1636  1.0479
14074TIP3   OH263712   6.747   6.764   0.070 -0.2890 -0.1908 -0.2749
14074TIP3    H163713   6.661   6.771   0.111 -1.2108 -0.4244 -2.1467
14074TIP3    H263714   6.754   6.841   0.014  1.3991  0.6687  1.0547
14075TIP3   OH263715   2.875   6.022  11.739 -0.6521  0.4475 -0.7018
14075TIP3    H163716   2.803   6.068  11.696 -1.0766 -0.1366 -0.6220
14075TIP3    H263717   2.920   5.976  11.668  0.2727  1.6464 -0.8986
14076TIP3   OH263718   1.950   1.750   2.861 -0.0063  0.1281  0.5577
14076TIP3    H163719   2.028   1.708   2.823 -1.3290 -1.6922 -0.2284
14076TIP3    H263720   1.881   1.685   2.850 -1.0540  0.6339  3.6863
14077TIP3   OH263721   4.855   1.823   5.198 -0.0679  0.0902 -0.5267
14077TIP3    H163722   4.947   1.838   5.177  0.1889 -0.1849  0.4144
14077TIP3    H263723   4.809   1.836   5.114  0.8728 -0.2424 -1.0966
14078TIP3   OH263724   3.189   5.248   0.262 -0.6340  0.6789 -0.5906
14078TIP3    H163725   3.184   5.172   0.204 -0.7787  1.1900 -1.2536
14078TIP3    H263726   3.186   5.211   0.351 -1.1753 -0.0525 -0.9106
14079TIP3   OH263727   2.817   6.319   2.045  0.3526 -0.1688 -0.1644
14079TIP3    H163728   2.812   6.235   2.090 -1.6772 -0.5251 -0.9678
14079TIP3    H263729   2.773   6.381   2.104 -1.4767 -0.4510 -1.1871
14080TIP3   OH263730   2.124   5.867  15.802  0.1751  0.0794  0.0236
14080TIP3    H163731   2.219   5.859  15.807  0.3551  1.3238 -1.1064
14080TIP3    H263732   2.097   5.800  15.740  0.2805 -0.4122  0.5002
14081TIP3   OH263733   0.320   3.370  12.233  0.0864  0.6271  0.4794
14081TIP3    H163734   0.404   3.416  12.234 -0.2898  1.2999  1.3727
14081TIP3    H263735   0.283   3.385  12.320  0.1218 -1.6799  0.9036
14082TIP3   OH263736   2.029   3.154   1.581  0.3038 -0.6237 -0.2743
14082TIP3    H163737   2.004   3.061   1.578  1.1731 -0.9065  0.8396
14082TIP3    H263738   2.096   3.158   1.649  0.0102  0.8945 -0.0669
14083TIP3   OH263739   5.808   4.606   4.193 -0.1141  0.7483 -0.6193
14083TIP3    H163740   5.891   4.575   4.157  0.7455  1.3624  0.7946
14083TIP3    H263741   5.765   4.528   4.228  0.8682  0.7532  0.6165
14084TIP3   OH263742   0.393   0.484  13.451  0.3847  0.0653 -0.4290
14084TIP3    H163743   0.304   0.457  13.476 -0.0677  1.1680 -0.7978
14084TIP3    H263744   0.444   0.476  13.531 -0.0786 -0.4368 -0.1785
14085TIP3   OH263745   3.611   5.851   5.465 -0.3512  0.2304 -0.5032
14085TIP3    H163746   3.661   5.933   5.468 -0.1705  0.0866  0.4866
14085TIP3    H263747   3.545   5.860   5.534 -0.6014 -0.2917 -0.6660
14086TIP3   OH263748   3.693   5.019   0.503  0.8219 -0.3642  0.2297
14086TIP3    H163749   3.658   5.026   0.592  0.6867  0.7889  0.0899
14086TIP3    H263750   3.664   4.933   0.473  2.0167 -1.3706  1.7895
14087TIP3   OH263751   0.814   6.623  17.234 -0.1624  0.4043  0.6773
14087TIP3    H163752   0.763   6.661  17.163  0.7053 -0.1130 -0.2521
14087TIP3    H263753   0.768   6.542  17.256  0.6070 -0.4365 -0.6599
14088TIP3   OH263754   6.698   3.413  16.762 -0.2481 -0.3094  0.1586
14088TIP3    H163755   6.719   3.457  16.680 -2.5746  1.2337  0.3276
14088TIP3    H263756   6.653   3.333  16.735 -0.3326 -0.1797 -0.0896
14089TIP3   OH263757   2.618   2.963  15.598 -0.0463 -0.3778 -0.3363
14089TIP3    H163758   2.698   2.979  15.648 -0.9769 -0.5783  1.2242
14089TIP3    H263759   2.561   3.037  15.620  0.3153  0.6784 -2.7551
14090TIP3   OH263760   6.339   1.467  15.826 -0.2140  0.3895 -0.3784
14090TIP3    H163761   6.321   1.558  15.848 -0.6140 -0.0663  1.1879
14090TIP3    H263762   6.253   1.424  15.826  0.1304 -0.3287  0.4898
14091TIP3   OH263763   5.170   4.188   1.559 -0.1067  0.4937  0.0221
14091TIP3    H163764   5.223   4.169   1.637  2.7626 -0.6135 -2.1094
14091TIP3    H263765   5.144   4.279   1.571  2.4045  1.1383  1.1388
14092TIP3   OH263766   4.562   4.379   3.027 -0.1762 -0.1058 -0.2123
14092TIP3    H163767   4.515   4.428   2.960 -1.7213 -1.6238 -0.2821
14092TIP3    H263768   4.518   4.293   3.029 -0.0729 -0.1410  2.6229
14093TIP3   OH263769   2.854   1.599   0.085  1.1232  0.6148  0.0570
14093TIP3    H163770   2.879   1.524   0.139  0.2647  0.6442  0.4909
14093TIP3    H263771   2.784   1.566   0.029  0.2336  1.2890  0.7581
14094TIP3   OH263772   5.639   4.610   2.321 -0.7394 -0.3514 -0.4642
14094TIP3    H163773   5.653   4.585   2.229  2.7390  1.8342 -0.5857
14094TIP3    H263774   5.690   4.546   2.371 -0.8045 -0.1750 -0.1718
14095TIP3   OH263775   4.838   1.172  13.512  0.1568  0.2315  0.3346
14095TIP3    H163776   4.902   1.149  13.445  0.3269 -0.3777  0.6994
14095TIP3    H263777   4.853   1.108  13.582 -1.0138 -0.0630  0.3237
14096TIP3   OH263778   0.785   5.617   2.708  0.2447 -0.4073  0.6374
14096TIP3    H163779   0.764   5.683   2.774 -0.1138  0.0245  0.1004
14096TIP3    H263780   0.836   5.551   2.755 -3.5380 -2.2418  2.3407
14097TIP3   OH263781   0.669   3.594  16.292 -0.4120 -0.0247 -0.1522
14097TIP3    H163782   0.716   3.559  16.367 -0.6297 -0.0522 -0.0289
14097TIP3    H263783   0.578   3.598  16.320 -0.2440  1.5674  0.1646
14098TIP3   OH263784   3.022   3.126   5.768 -0.0556  0.3137 -0.0716
14098TIP3    H163785   2.939   3.107   5.811 -0.1777  0.8602 -0.0602
14098TIP3    H263786   3.058   3.200   5.817  0.7051 -0.2808  0.2750
14099TIP3   OH263787   2.106   0.425   2.246  0.6514  0.4829 -0.3440
14099TIP3    H163788   2.104   0.494   2.179  2.0592  2.2858  1.4426
14099TIP3    H263789   2.030   0.444   2.302  1.1002  0.6240  0.2127
14100TIP3   OH263790   1.477   2.722   6.233 -0.0239 -0.3696 -1.0098
14100TIP3    H163791   1.485   2.704   6.139 -0.5978 -3.3806 -0.5451
14100TIP3    H263792   1.543   2.788   6.251 -0.3321  0.7023 -3.6513
14101TIP3   OH263793   1.774   5.254   0.539 -0.0197 -0.9471 -0.1211
14101TIP3    H163794   1.693   5.262   0.488 -0.3822  0.2070  0.6166
14101TIP3    H263795   1.781   5.161   0.558 -0.3893 -1.2527 -1.4566
14102TIP3   OH263796   5.130   3.442   2.605  0.4348 -0.0653  0.3437
14102TIP3    H163797   5.095   3.528   2.584  0.9537  0.3517  1.1718
14102TIP3    H263798   5.117   3.433   2.699  0.4496 -0.8614  0.2711
14103TIP3   OH263799   3.416   5.011   0.395 -0.1158 -0.1185 -0.0051
14103TIP3    H163800   3.398   4.917   0.390  0.7035 -0.2888  0.1559
14103TIP3    H263801   3.500   5.022   0.351  0.0610  0.4608  0.4649
14104TIP3   OH263802   5.545   3.680  13.652  0.2687 -0.2663 -0.2057
14104TIP3    H163803   5.631   3.644  13.633  1.1467  1.4047  0.5212
14104TIP3    H263804   5.517   3.721  13.571  0.0668 -0.9435 -0.4865
14105TIP3   OH263805   1.225   3.480  15.740 -0.7281  0.6319  0.2915
14105TIP3    H163806   1.171   3.462  15.817 -0.1629  0.2822  0.6091
14105TIP3    H263807   1.304   3.427  15.753  0.6099  2.7079  0.8387
14106TIP3   OH263808   5.185   0.589   1.275 -0.3750  0.3827  0.3177
14106TIP3    H163809   5.207   0.590   1.182 -1.5635  1.5997  0.0248
14106TIP3    H263810   5.269   0.594   1.320  0.0981  2.3234 -0.7346
14107TIP3   OH263811   5.627   1.887   0.288 -0.3952  0.2611  0.0270
14107TIP3    H163812   5.534   1.866   0.295  0.0534 -1.6891  0.2780
14107TIP3    H263813   5.646   1.936   0.368 -1.0768  0.2088  0.2299
14108TIP3   OH263814   3.908   4.247  15.281 -0.5725 -0.1501  0.0711
14108TIP3    H163815   4.003   4.240  15.289 -0.2613  1.0425 -2.2861
14108TIP3    H263816   3.883   4.168  15.232 -0.8779 -0.7026  1.0952
14109TIP3   OH263817   0.856   2.802   3.258  0.2711  0.0857  0.8101
14109TIP3    H163818   0.881   2.806   3.166  1.8745  0.1193  1.2290
14109TIP3    H263819   0.899   2.724   3.292 -0.2524  0.1100  1.5492
14110TIP3   OH263820   3.618   5.151  14.121  0.3920  0.2360 -0.0524
14110TIP3    H163821   3.649   5.098  14.048 -0.3905 -0.3414  0.0273
14110TIP3    H263822   3.633   5.241  14.094 -1.4559  0.0946 -1.6430
14111TIP3   OH263823   0.706   0.091   0.072  0.0344  0.0831 -0.1252
14111TIP3    H163824   0.639   0.024   0.082 -2.1285  2.0234 -1.1521
14111TIP3    H263825   0.704   0.114  -0.021  0.4033  1.8880  0.2924
14112TIP3   OH263826   3.952   1.520   2.205  0.1549 -0.3223 -0.1752
14112TIP3    H163827   4.006   1.537   2.282  0.2035  0.2397 -0.3315
14112TIP3    H263828   3.998   1.564   2.133 -1.3762  1.6291 -0.0165
14113TIP3   OH263829   3.168   5.233  11.476 -0.2793  0.1342  0.1090
14113TIP3    H163830   3.107   5.161  11.488  0.2110 -0.2793  0.1560
14113TIP3    H263831   3.154   5.290  11.551 -0.9761  0.3128 -0.1568
14114TIP3   OH263832   3.583   1.877   1.385 -0.1677  0.2835  0.0042
14114TIP3    H163833   3.594   1.782   1.390 -1.4193  0.2186  1.9170
14114TIP3    H263834   3.654   1.912   1.439 -0.5603  0.3868  0.4521
14115TIP3   OH263835   1.362   2.475   3.894 -0.0795  0.9266 -0.0029
14115TIP3    H163836   1.330   2.478   3.984 -0.5315  1.3349 -0.1763
14115TIP3    H263837   1.286   2.496   3.840 -0.0551 -0.3222 -0.5407
14116TIP3   OH263838   1.410   6.530  16.168  0.0156 -0.2514  0.9876
14116TIP3    H163839   1.366   6.479  16.100 -0.8218 -0.1376  1.4351
14116TIP3    H263840   1.502   6.530  16.142 -0.5103  1.0640 -0.9322
14117TIP3   OH263841   4.147   1.423   1.872 -0.1248  0.0401  0.3642
14117TIP3    H163842   4.097   1.343   1.891  1.2703 -0.5639  1.5854
14117TIP3    H263843   4.237   1.392   1.859  0.6853  1.5665  2.2137
14118TIP3   OH263844   0.813   3.904   1.075 -0.6445 -0.1541 -0.4507
14118TIP3    H163845   0.800   3.864   0.989 -0.5804  0.0825 -0.5723
14118TIP3    H263846   0.890   3.860   1.110 -1.2732 -0.9629 -0.0833
14119TIP3   OH263847   6.801   2.583  17.197  0.0952 -0.1705  0.2370
14119TIP3    H163848   6.790   2.661  17.144  1.5900 -0.2631 -0.2183
14119TIP3    H263849   6.751   2.601  17.277 -0.7697  0.6389 -0.4769
14120TIP3   OH263850   5.060   3.046   4.075 -0.2567 -0.7449 -0.3054
14120TIP3    H163851   5.078   2.952   4.082  0.7648 -0.5359 -0.0069
14120TIP3    H263852   5.016   3.056   3.991 -0.4597 -1.4987 -0.2978
14121TIP3   OH263853   4.746   4.310   2.379  0.1266 -0.5540  0.1647
14121TIP3    H163854   4.754   4.344   2.468  0.4875 -1.9911  0.6913
14121TIP3    H263855   4.682   4.367   2.337  2.2667  2.1211  0.3501
14122TIP3   OH263856   2.310   2.295  16.703  0.1485  0.0489 -0.3950
14122TIP3    H163857   2.322   2.292  16.798 -3.6285 -1.5981  0.1288
14122TIP3    H263858   2.320   2.387  16.680  0.7257  0.5175  1.6447
14123TIP3   OH263859   2.291   6.528  12.472 -0.0620  0.2599  0.0016
14123TIP3    H163860   2.310   6.510  12.380 -0.2748  0.3792 -0.0643
14123TIP3    H263861   2.232   6.603  12.471 -0.0103  0.3051  0.2395
14124TIP3   OH263862   3.268   5.188   0.538  0.3046 -0.1848  0.0228
14124TIP3    H163863   3.261   5.148   0.624 -0.2702  1.1155  0.5943
14124TIP3    H263864   3.314   5.123   0.485  1.8134 -0.4796  1.6449
14125TIP3   OH263865   2.648   3.500  11.060  0.7885  0.1256  0.4394
14125TIP3    H163866   2.626   3.537  10.975 -0.3931  0.8512  1.0438
14125TIP3    H263867   2.654   3.576  11.119 -2.5361 -0.6002  1.8835
14126TIP3   OH263868   3.889   2.467  15.570  0.7234 -0.2768  0.3395
14126TIP3    H163869   3.875   2.439  15.479 -1.1180 -1.2390  0.8842
14126TIP3    H263870   3.975   2.508  15.570  0.4397  0.4106 -2.0085
14127TIP3   OH263871   5.824   5.333  15.518  0.9154  0.2330  0.2608
14127TIP3    H163872   5.873   5.251  15.526 -0.0677 -0.4689 -0.8226
14127TIP3    H263873   5.890   5.399  15.498  1.7919 -0.1803  1.7155
14128TIP3   OH263874   2.450   3.829  13.844 -0.3423 -0.6064 -0.5233
14128TIP3    H163875   2.511   3.776  13.793 -0.0432 -0.8760  0.1154
14128TIP3    H263876   2.451   3.915  13.800 -0.6738 -1.0590 -1.4283
14129TIP3   OH263877   4.405   0.890  12.696 -0.1559 -0.1848 -0.8971
14129TIP3    H163878   4.390   0.800  12.724  1.9356 -0.4244 -0.4472
14129TIP3    H263879   4.417   0.939  12.777 -1.8594  0.6215 -1.1170
14130TIP3   OH263880   0.894   1.279  12.982  0.2073 -0.3440 -0.5658
14130TIP3    H163881   0.866   1.215  13.047 -0.0992  0.8606  0.5103
14130TIP3    H263882   0.989   1.269  12.978  0.2868 -0.0640  0.4651
14131TIP3   OH263883   1.995   3.188   3.023  0.2167  0.3000 -0.0684
14131TIP3    H163884   1.919   3.136   2.999  0.9489 -1.0096  0.4333
14131TIP3    H263885   1.959   3.275   3.042 -0.8762  0.2500 -1.8380
14132TIP3   OH263886   3.844   3.477  15.074 -0.0002  0.5320  0.5505
14132TIP3    H163887   3.913   3.424  15.035  1.0963  0.5845  2.3716
14132TIP3    H263888   3.838   3.554  15.016  0.9161  0.1546 -0.0587
14133TIP3   OH263889   0.829   4.955   3.752  0.2008  0.1818 -0.0784
14133TIP3    H163890   0.878   4.925   3.676  0.2736  0.2347 -0.0527
14133TIP3    H263891   0.884   5.024   3.790  1.0781 -1.1522  1.1316
14134TIP3   OH263892   4.562   0.837  11.944 -0.3026  0.3701 -0.0466
14134TIP3    H163893   4.648   0.841  11.902 -0.2338 -1.8614 -0.1761
14134TIP3    H263894   4.521   0.921  11.924  1.5281  1.1338 -0.6699
14135TIP3   OH263895   5.360   5.694   2.465 -0.3765 -0.0696  0.2947
14135TIP3    H163896   5.403   5.614   2.434  0.1508  0.0716  0.6335
14135TIP3    H263897   5.359   5.752   2.389  0.2493  0.0097  0.3427
14136TIP3   OH263898   4.395   4.145   0.550 -0.6595  0.4352  0.6015
14136TIP3    H163899   4.356   4.061   0.573 -1.9439  0.8660  0.0251
14136TIP3    H263900   4.434   4.176   0.632 -0.8432 -0.3634  0.9991
14137TIP3   OH263901   6.589   3.407   4.686  0.1376  0.4749 -0.0523
14137TIP3    H163902   6.503   3.416   4.728  0.0301  2.4572 -0.6638
14137TIP3    H263903   6.635   3.344   4.741 -1.7663 -0.7616  0.1894
14138TIP3   OH263904   4.240   5.257  11.387  0.4034 -0.3650 -0.4760
14138TIP3    H163905   4.259   5.349  11.368 -0.1211  0.1369  1.3576
14138TIP3    H263906   4.147   5.247  11.368  0.4273 -0.4928 -0.5341
14139TIP3   OH263907   1.188   3.911  13.062  0.4637  0.2927  0.0806
14139TIP3    H163908   1.169   4.004  13.076  1.1919  0.5683 -0.7557
14139TIP3    H263909   1.103   3.869  13.067  0.0039  1.1334 -0.5637
14140TIP3   OH263910   3.360   3.757  15.821 -0.1053 -0.3923 -0.1523
14140TIP3    H163911   3.289   3.808  15.782 -0.1695 -0.7229 -0.4692
14140TIP3    H263912   3.408   3.721  15.747 -0.0928 -0.8392  0.0722
14141TIP3   OH263913   0.817   4.689  16.564  0.0631  0.0689  0.5003
14141TIP3    H163914   0.810   4.701  16.659  0.0136  2.8742  0.1630
14141TIP3    H263915   0.731   4.713  16.530  0.4847  0.3311 -0.3921
14142TIP3   OH263916   5.865   4.910   5.598  0.2292 -0.4444 -0.6850
14142TIP3    H163917   5.897   4.953   5.677 -0.6778  0.5050 -0.8193
14142TIP3    H263918   5.924   4.940   5.529 -0.4052  0.6213 -0.7796
14143TIP3   OH263919   1.728   3.406   0.594 -0.2194 -0.0017  0.1520
14143TIP3    H163920   1.699   3.421   0.504 -0.4279  1.6079  0.4755
14143TIP3    H263921   1.741   3.311   0.599  0.9668  0.0161 -1.9263
14144TIP3   OH263922   6.530   6.298   2.403 -0.4627  0.5007  0.0570
14144TIP3    H163923   6.465   6.326   2.467  0.2801  0.1403  0.9899
14144TIP3    H263924   6.483   6.295   2.320 -1.4193  1.0529  0.5735
14145TIP3   OH263925   6.375   2.515  16.796  0.2747 -0.1917 -0.1727
14145TIP3    H163926   6.319   2.491  16.870  0.4119  1.1694  0.3892
14145TIP3    H263927   6.361   2.446  16.731 -2.5588  0.4855 -0.3160
14146TIP3   OH263928   1.698   6.217   2.323 -0.1435  0.2271 -0.8665
14146TIP3    H163929   1.689   6.310   2.346  3.2682  0.1598  1.0631
14146TIP3    H263930   1.704   6.172   2.407 -2.2025 -1.8710 -1.7701
14147TIP3   OH263931   5.119   0.727   5.408  0.1202 -0.1184  0.1290
14147TIP3    H163932   5.214   0.730   5.420  0.4379  4.0265 -2.3941
14147TIP3    H263933   5.105   0.651   5.351  2.1089  0.0851 -0.6923
14148TIP3   OH263934   2.326   3.859  12.816  0.3510  0.2371  0.2507
14148TIP3    H163935   2.413   3.837  12.782 -0.0383  0.4457 -0.9028
14148TIP3    H263936   2.292   3.776  12.850 -0.1904 -0.5050 -2.0263
14149TIP3   OH263937   3.082   2.436   4.086  0.2419 -0.1112 -0.0750
14149TIP3    H163938   3.135   2.357   4.080 -1.1853 -1.0691 -0.3292
14149TIP3    H263939   2.993   2.405   4.105 -0.0338  1.5147  1.5196
14150TIP3   OH263940   3.885   4.511   3.276 -0.0695 -0.3022  0.1135
14150TIP3    H163941   3.979   4.524   3.288  0.1784 -0.4052 -1.5687
14150TIP3    H263942   3.844   4.575   3.333  1.0402  0.6293 -0.1262
14151TIP3   OH263943   2.674   0.912  13.336  0.0556 -0.1535 -0.0192
14151TIP3    H163944   2.591   0.953  13.311 -0.5551 -1.1341  0.3385
14151TIP3    H263945   2.655   0.818  13.333  0.3792 -0.3324  2.6699
14152TIP3   OH263946   2.562   2.640  12.068  0.2151  0.7850 -0.1278
14152TIP3    H163947   2.606   2.690  12.138 -2.0454  0.6545  1.4498
14152TIP3    H263948   2.600   2.553  12.074 -0.2040  0.6764  1.1937
14153TIP3   OH263949   3.105   2.385  12.670  0.2833  0.7339  0.2224
14153TIP3    H163950   3.145   2.303  12.641 -0.1521  0.9529 -1.0493
14153TIP3    H263951   3.164   2.453  12.636  1.2172  0.9242  2.1873
14154TIP3   OH263952   0.085   1.565   6.158  0.4043  0.7008  0.3794
14154TIP3    H163953   0.140   1.545   6.234  1.1387  0.4673 -0.1999
14154TIP3    H263954   0.011   1.505   6.165  1.4023 -0.6002 -0.0725
14155TIP3   OH263955   3.113   4.233   5.614 -0.4177 -0.1139  0.5618
14155TIP3    H163956   3.199   4.236   5.655 -0.5758 -0.6895  0.9470
14155TIP3    H263957   3.101   4.320   5.576  0.8558 -0.4148 -0.5712
14156TIP3   OH263958   1.441   5.362  13.042  0.2625  0.1758  0.1607
14156TIP3    H163959   1.519   5.405  13.078 -0.4882  0.1023  1.8956
14156TIP3    H263960   1.402   5.427  12.984  1.1329  0.5229 -0.0435
14157TIP3   OH263961   6.386   2.705   2.121  0.3643 -0.0212  0.0080
14157TIP3    H163962   6.455   2.717   2.186 -0.4221  0.5163  0.7539
14157TIP3    H263963   6.428   2.726   2.037 -0.2440  5.7576  0.9762
14158TIP3   OH263964   1.132   2.443  12.072  0.4229  0.1484  0.3631
14158TIP3    H163965   1.056   2.445  12.129 -1.9896 -0.5421 -2.7063
14158TIP3    H263966   1.155   2.535  12.059 -1.1352  0.4732 -0.2345
14159TIP3   OH263967   0.343   3.713  14.357 -0.3162 -0.2232  0.0994
14159TIP3    H163968   0.263   3.765  14.347 -0.6191 -0.6851  0.1247
14159TIP3    H263969   0.343   3.655  14.281 -1.5469 -2.2979  1.6655
14160TIP3   OH263970   5.276   5.762   5.735  0.2097 -0.0114  0.6717
14160TIP3    H163971   5.199   5.729   5.781 -0.3067  0.2730  0.0135
14160TIP3    H263972   5.347   5.754   5.798  0.5057 -4.1314 -0.0529
14161TIP3   OH263973   1.845   1.826  11.229 -0.0616 -0.4192 -0.0301
14161TIP3    H163974   1.851   1.792  11.140  0.2816 -1.3280  0.3349
14161TIP3    H263975   1.768   1.782  11.266  2.0997 -3.1096  1.4182
14162TIP3   OH263976   2.567   2.526  16.396 -0.2984 -0.2441  0.1624
14162TIP3    H163977   2.572   2.431  16.411 -0.8634 -0.1728  0.8310
14162TIP3    H263978   2.624   2.564  16.462 -0.6747 -0.0772  0.3941
14163TIP3   OH263979   1.706   2.648  14.856  0.5283  0.3789 -0.1498
14163TIP3    H163980   1.737   2.559  14.873 -0.7572  0.5863  3.7413
14163TIP3    H263981   1.613   2.637  14.835  0.6699  0.7117 -0.9758
14164TIP3   OH263982   3.607   2.708  15.115 -0.4632 -0.4601  0.1493
14164TIP3    H163983   3.689   2.664  15.136 -0.2512  0.7400  2.0306
14164TIP3    H263984   3.545   2.676  15.181 -0.5721  1.2412  0.9043
14165TIP3   OH263985   2.716   1.612   3.125 -0.4248 -0.2881  0.5040
14165TIP3    H163986   2.652   1.662   3.177  2.2699  0.5951  3.0959
14165TIP3    H263987   2.794   1.608   3.180  1.2678 -2.6945 -1.9473
14166TIP3   OH263988   1.659   5.541   5.343  0.5448 -0.2101 -0.2317
14166TIP3    H163989   1.722   5.586   5.286  0.1638  0.1250 -0.3923
14166TIP3    H263990   1.654   5.596   5.421  1.0589 -0.6658  0.1188
14167TIP3   OH263991   6.083   0.914  12.004  0.1821 -0.3177  0.7481
14167TIP3    H163992   6.020   0.858  11.958 -0.9159  0.3096  1.4472
14167TIP3    H263993   6.117   0.972  11.936 -1.5931  0.7489  0.7446
14168TIP3   OH263994   5.440   2.624  17.281 -0.2046  0.2086 -0.2830
14168TIP3    H163995   5.422   2.582  17.365 -0.9184 -1.7133 -1.3802
14168TIP3    H263996   5.353   2.636  17.241  0.1672  0.5737 -0.9983
14169TIP3   OH263997   3.523   0.192  17.139 -0.2190 -0.4580  0.4946
14169TIP3    H163998   3.496   0.139  17.214  2.1704  1.8524  3.1074
14169TIP3    H263999   3.569   0.267  17.177  0.0231  1.4343 -3.2398
14170TIP3   OH264000   2.804   6.341   4.151 -0.5572  0.0250 -0.1932
14170TIP3    H164001   2.900   6.346   4.149 -0.5179  0.1623  1.1857
14170TIP3    H264002   2.787   6.258   4.197 -1.0873  0.9965  1.3812
14171TIP3   OH264003   5.479   1.681   4.299  0.1045  0.5011  0.2110
14171TIP3    H164004   5.556   1.629   4.274 -0.1881  0.7191 -1.1994
14171TIP3    H264005   5.514   1.770   4.312  0.1014  0.5954 -0.4058
14172TIP3   OH264006   5.925   2.969  11.624 -0.5734 -0.6136  0.0939
14172TIP3    H164007   5.847   2.982  11.677  0.6455 -1.7182  2.2035
14172TIP3    H264008   5.892   2.938  11.539 -2.5382  1.2587  0.1327
14173TIP3   OH264009   5.120   3.670   6.156  0.6568 -0.6757 -0.2812
14173TIP3    H164010   5.125   3.739   6.222 -1.0221 -2.1206  1.3925
14173TIP3    H264011   5.195   3.614   6.173 -0.0893 -1.3661  0.7994
14174TIP3   OH264012   3.976   3.680  13.153  0.2291 -0.1219 -0.3250
14174TIP3    H164013   3.959   3.771  13.127 -1.7448 -0.3803 -0.0445
14174TIP3    H264014   4.062   3.660  13.116  1.4534  2.4008  1.0753
14175TIP3   OH264015   6.161   6.641   0.979  0.0709  0.3281  0.1024
14175TIP3    H164016   6.238   6.676   1.024 -0.4429  1.4562  0.1354
14175TIP3    H264017   6.114   6.719   0.950 -0.4903 -0.3693 -0.8793
14176TIP3   OH264018   2.321   5.214  13.032 -0.3993 -0.1880  0.2094
14176TIP3    H164019   2.263   5.196  13.106 -0.2486 -0.6725  0.2149
14176TIP3    H264020   2.362   5.129  13.012  0.0055  0.0611 -0.0493
14177TIP3   OH264021   4.344   3.366   2.116 -0.2469 -0.7226  0.1073
14177TIP3    H164022   4.358   3.360   2.211  0.5781 -2.2948 -0.1115
14177TIP3    H264023   4.420   3.414   2.083  0.1303 -1.3437  0.0723
14178TIP3   OH264024   1.804   5.103   2.107 -0.5683 -0.0229 -0.6895
14178TIP3    H164025   1.717   5.137   2.131 -0.8500  0.4008 -2.2571
14178TIP3    H264026   1.851   5.180   2.075 -0.1903 -0.5663 -1.4388
14179TIP3   OH264027   0.530   3.245  12.063  1.0362 -0.0077 -0.2286
14179TIP3    H164028   0.447   3.267  12.104  0.6671 -0.1127 -0.9166
14179TIP3    H264029   0.596   3.286  12.119  0.4493  1.4124 -0.5659
14180TIP3   OH264030   3.006   0.326  13.255  0.6839 -0.7180  0.0865
14180TIP3    H164031   3.000   0.296  13.164  1.0562  2.0398 -0.8958
14180TIP3    H264032   2.920   0.309  13.292  0.8183 -2.7385 -0.4876
14181TIP3   OH264033   0.778   4.657  13.307  0.8164 -0.3568  0.0721
14181TIP3    H164034   0.730   4.575  13.321 -1.2240  0.5040 -1.6190
14181TIP3    H264035   0.853   4.651  13.366  0.4136 -3.1972  0.3796
14182TIP3   OH264036   2.554   3.253  10.486 -0.1643  0.7964 -0.5357
14182TIP3    H164037   2.463   3.257  10.516 -0.0988 -0.4777 -0.1561
14182TIP3    H264038   2.576   3.344  10.468 -1.3145  1.1956 -0.0174
14183TIP3   OH264039   3.994   5.889   6.121 -0.6651  0.0476  0.6172
14183TIP3    H164040   4.001   5.979   6.154  1.0235 -0.1019  0.7433
14183TIP3    H264041   4.069   5.844   6.160 -0.5106 -0.9688 -0.8161
14184TIP3   OH264042   2.484   2.105   2.204  0.7358  0.2521 -0.4076
14184TIP3    H164043   2.558   2.114   2.264 -1.2238 -0.4506  2.1560
14184TIP3    H264044   2.491   2.016   2.169  0.5722 -0.1262  0.5340
14185TIP3   OH264045   0.444   5.609  11.284  0.2245 -0.3398 -0.7060
14185TIP3    H164046   0.447   5.704  11.273 -2.2267 -0.1715 -0.3689
14185TIP3    H264047   0.370   5.581  11.230  0.9346 -2.0648 -0.8129
14186TIP3   OH264048   5.150   1.775  13.101 -0.3692 -0.2076  0.1528
14186TIP3    H164049   5.190   1.861  13.117  0.4076 -0.5616  0.1185
14186TIP3    H264050   5.202   1.714  13.153 -1.3530 -0.5683  0.7252
14187TIP3   OH264051   3.561   6.631  11.194 -0.7230 -0.0229 -0.0022
14187TIP3    H164052   3.585   6.684  11.270  0.0555 -0.3673  0.0047
14187TIP3    H264053   3.487   6.676  11.155 -0.6924  0.5284  0.5706
14188TIP3   OH264054   0.998   2.994   2.788  0.2247  0.1417  0.1873
14188TIP3    H164055   0.974   3.076   2.745 -0.2403  0.7885  1.6270
14188TIP3    H264056   1.006   2.930   2.717 -1.4254  0.9505 -0.7548
14189TIP3   OH264057   1.062   3.337   2.437 -0.3883  0.2667 -0.2698
14189TIP3    H164058   1.023   3.303   2.356 -0.1570  0.7719 -0.5962
14189TIP3    H264059   1.151   3.300   2.437 -0.3158  0.4412 -0.3551
14190TIP3   OH264060   4.665   1.449   4.052 -0.4159 -0.2542 -0.2522
14190TIP3    H164061   4.700   1.393   4.121 -1.2171 -0.6948 -0.1942
14190TIP3    H264062   4.628   1.388   3.988 -2.2576  0.2125  0.3294
14191TIP3   OH264063   5.413   1.971   4.302 -0.2142 -0.0417  0.1112
14191TIP3    H164064   5.341   2.033   4.291 -0.0375  0.1367 -0.0165
14191TIP3    H264065   5.491   2.025   4.309 -0.1773 -0.1950  1.0310
14192TIP3   OH264066   6.416   6.762   5.612 -0.3798  0.6067  0.9018
14192TIP3    H164067   6.330   6.733   5.583  0.1032  0.9518 -0.9116
14192TIP3    H264068   6.434   6.840   5.560  2.0297 -0.7867 -0.4624
14193TIP3   OH264069   2.300   3.838  13.272  0.3261 -0.1084  0.3320
14193TIP3    H164070   2.258   3.820  13.188 -0.9387 -1.0156  1.1219
14193TIP3    H264071   2.227   3.857  13.331  0.9214 -2.4014  1.9070
14194TIP3   OH264072   0.221   3.085  11.228 -0.6528  0.5234 -0.9854
14194TIP3    H164073   0.288   3.080  11.295  0.1114  0.1971 -1.7582
14194TIP3    H264074   0.156   3.020  11.253 -1.4167  1.8604  0.5558
14195TIP3   OH264075   6.675   3.777   5.441 -0.1839  0.1046  0.6112
14195TIP3    H164076   6.632   3.781   5.527 -1.3471  0.3742  0.0321
14195TIP3    H264077   6.768   3.776   5.461 -0.4369  0.3626  1.8747
14196TIP3   OH264078   4.777   3.994   2.153 -0.4616  0.5872  0.4948
14196TIP3    H164079   4.699   3.940   2.142 -0.1545  0.2172  0.1289
14196TIP3    H264080   4.745   4.084   2.141 -0.3065  0.2896 -2.7974
14197TIP3   OH264081   1.615   0.653   3.694 -0.5881  0.3643 -0.0492
14197TIP3    H164082   1.591   0.609   3.775 -0.6506  1.0544  0.3094
14197TIP3    H264083   1.621   0.583   3.629  1.0066 -0.3872  0.8862
14198TIP3   OH264084   5.668   3.927  15.706 -0.3101 -0.9105 -0.0702
14198TIP3    H164085   5.731   3.997  15.719 -3.6849  1.7276  3.1748
14198TIP3    H264086   5.696   3.858  15.766 -0.2257  0.0693  1.0437
14199TIP3   OH264087   4.780   1.451  13.956 -0.1271 -0.2099 -0.0338
14199TIP3    H164088   4.759   1.390  13.885  1.2207 -0.8935  0.1233
14199TIP3    H264089   4.695   1.482  13.988 -0.7592 -0.3395 -1.5559
14200TIP3   OH264090   0.172   6.050  16.556  0.8069 -0.5633 -0.0317
14200TIP3    H164091   0.094   6.024  16.507  1.6521 -0.1676 -1.6034
14200TIP3    H264092   0.146   6.040  16.648 -0.9810 -0.7619 -0.5283
14201TIP3   OH264093   2.129   0.159  15.877  0.6904  0.6742  0.1536
14201TIP3    H164094   2.037   0.178  15.895  0.1774 -1.9308  0.4898
14201TIP3    H264095   2.177   0.204  15.946 -0.6488 -1.5905  2.6474
14202TIP3   OH264096   5.257   5.842  11.786  0.1095  0.3834  0.1077
14202TIP3    H164097   5.229   5.794  11.708 -0.7631  1.1195 -0.0424
14202TIP3    H264098   5.352   5.848  11.777 -0.0399  0.9576 -1.2068
14203TIP3   OH264099   1.143   2.833  16.308  0.2948 -0.0688 -0.3052
14203TIP3    H164100   1.091   2.896  16.259  2.8485  0.9545 -1.8334
14203TIP3    H264101   1.184   2.779  16.241 -0.6545 -2.3872  0.9508
14204TIP3   OH264102   6.538   2.372  16.110  0.5450 -0.3484  0.2121
14204TIP3    H164103   6.552   2.321  16.190  2.0837 -1.4637 -0.7242
14204TIP3    H264104   6.460   2.333  16.070  0.9520 -1.1314  0.1662
14205TIP3   OH264105   2.603   3.541   2.532  0.3175 -0.3385  0.2452
14205TIP3    H164106   2.643   3.609   2.585  0.0989  0.7807 -0.9935
14205TIP3    H264107   2.646   3.548   2.446 -0.9179 -0.5992 -0.4161
14206TIP3   OH264108   0.395   0.474  11.956  0.4036  0.5557  0.7059
14206TIP3    H164109   0.449   0.548  11.983  1.6725  0.5263 -1.6716
14206TIP3    H264110   0.427   0.401  12.008  1.4132  0.9467  0.6412
14207TIP3   OH264111   0.027   2.625  15.812 -0.3354 -0.3002  0.3951
14207TIP3    H164112   0.075   2.658  15.888 -0.6876  0.2710  0.3711
14207TIP3    H264113   0.089   2.565  15.769  0.0106 -0.3134  0.8979
14208TIP3   OH264114   3.150   1.661  16.937 -1.4767 -0.1923 -0.6808
14208TIP3    H164115   3.076   1.659  16.876 -1.7369  2.5048 -0.5155
14208TIP3    H264116   3.109   1.672  17.023 -0.9436 -0.4397 -0.3948
14209TIP3   OH264117   1.189   2.530   4.990 -0.3941  0.4243  0.5683
14209TIP3    H164118   1.169   2.476   5.066  0.4535  0.2475  0.6687
14209TIP3    H264119   1.103   2.552   4.953 -0.8266  0.7942  1.7615
14210TIP3   OH264120   1.852   1.090   1.636  0.1920  0.0596  0.0580
14210TIP3    H164121   1.811   1.168   1.598  2.3359  1.1949 -0.0307
14210TIP3    H264122   1.800   1.017   1.604 -2.3759  1.5024  0.8085
14211TIP3   OH264123   1.363   5.221  14.183  0.0780 -0.6717  0.1150
14211TIP3    H164124   1.456   5.231  14.204  0.0538 -0.6173  0.1985
14211TIP3    H264125   1.328   5.168  14.254  0.0465 -0.6936  0.0827
14212TIP3   OH264126   1.552   5.216   1.495  0.8480  0.6786 -0.2703
14212TIP3    H164127   1.603   5.297   1.490 -0.2568  1.5078  1.3406
14212TIP3    H264128   1.463   5.242   1.470  0.7631 -0.3221 -1.0392
14213TIP3   OH264129   2.813   3.278   2.656  0.1069  0.0419  0.0391
14213TIP3    H164130   2.829   3.261   2.749  1.0301 -0.8911 -0.2764
14213TIP3    H264131   2.720   3.300   2.652  0.1432  0.4667  1.2363
14214TIP3   OH264132   4.441   5.660  12.274  0.1620  0.1378 -0.2890
14214TIP3    H164133   4.504   5.592  12.299 -0.2123 -0.7089 -1.6487
14214TIP3    H264134   4.493   5.724  12.225  0.7737  1.4957  2.0485
14215TIP3   OH264135   1.269   1.199   0.745  0.2054 -0.1501 -0.4962
14215TIP3    H164136   1.318   1.274   0.713  0.3764 -0.8300 -1.8616
14215TIP3    H264137   1.266   1.138   0.671 -0.1391 -1.3857  0.5031
14216TIP3   OH264138   1.063   2.316   3.204 -0.9737  0.7508 -0.2672
14216TIP3    H164139   1.148   2.360   3.200 -0.3903 -0.4346 -1.1170
14216TIP3    H264140   1.001   2.386   3.224 -0.2101  2.1558 -2.6883
14217TIP3   OH264141   2.885   0.214  17.150 -0.2035 -0.4215  0.3100
14217TIP3    H164142   2.880   0.291  17.206 -1.1775 -0.0765 -0.2465
14217TIP3    H264143   2.958   0.163  17.185  0.2404  0.5984  0.8722
14218TIP3   OH264144   4.605   5.184  11.217  0.2094  0.7734  0.0808
14218TIP3    H164145   4.698   5.171  11.233  0.3761  1.7805 -0.0249
14218TIP3    H264146   4.561   5.142  11.291  0.7826  1.0802  0.5968
14219TIP3   OH264147   6.573   5.485   4.235  0.0651  0.9525  0.1173
14219TIP3    H164148   6.509   5.497   4.164  0.4509  0.2195 -0.3638
14219TIP3    H264149   6.525   5.438   4.303  0.0410  0.5315 -0.1849
14220TIP3   OH264150   0.211   2.816  16.939  0.5555 -0.1897  0.3019
14220TIP3    H164151   0.133   2.804  16.992  0.0483  1.4226 -0.0379
14220TIP3    H264152   0.178   2.824  16.849  1.1415 -0.0585  0.0926
14221TIP3   OH264153   6.756   6.593  17.113  0.3350  0.9305 -0.3965
14221TIP3    H164154   6.751   6.673  17.165 -1.4643  0.4630  0.1955
14221TIP3    H264155   6.705   6.612  17.034 -1.5786 -0.1721  0.5264
14222TIP3   OH264156   6.544   2.422   0.712  0.7795  0.6583  0.9914
14222TIP3    H164157   6.474   2.412   0.648 -0.1233 -0.1556  2.0972
14222TIP3    H264158   6.541   2.514   0.738 -0.1739  0.5214  1.3704
14223TIP3   OH264159   3.499   3.091   5.361  0.7191 -0.1308  0.1921
14223TIP3    H164160   3.498   3.049   5.447  0.5309  1.0007  0.7377
14223TIP3    H264161   3.463   3.178   5.375 -2.9286 -1.2256 -1.7168
14224TIP3   OH264162   5.516   4.922  15.516  0.5132  0.1433 -0.1189
14224TIP3    H164163   5.556   4.845  15.554  1.7393  0.6720 -0.3181
14224TIP3    H264164   5.521   4.989  15.584  1.8045  0.7970 -0.8399
14225TIP3   OH264165   0.685   0.930   4.957 -0.0652 -0.3328  0.0386
14225TIP3    H164166   0.640   0.938   4.873  1.5429  1.9098 -0.6652
14225TIP3    H264167   0.755   0.867   4.942  0.6563  0.5898 -0.5274
14226TIP3   OH264168   6.526   4.320  12.228  0.0434 -0.0265  0.4987
14226TIP3    H164169   6.431   4.318  12.218  0.0080  1.6470  0.3564
14226TIP3    H264170   6.546   4.411  12.251  1.6149 -0.3508  0.4876
14227TIP3   OH264171   6.734   0.166   3.156  0.3437  0.0739  0.1841
14227TIP3    H164172   6.801   0.196   3.095 -1.3227 -0.6902 -2.0793
14227TIP3    H264173   6.775   0.174   3.242  2.9525  0.6213 -1.0580
14228TIP3   OH264174   0.673   6.475  11.608  0.2280 -0.3325  0.5855
14228TIP3    H164175   0.687   6.405  11.672  0.2773 -0.1980  0.7218
14228TIP3    H264176   0.741   6.540  11.629  0.9008 -0.7663 -0.2702
14229TIP3   OH264177   0.759   4.682   1.495  0.2089 -0.5663  0.3524
14229TIP3    H164178   0.789   4.769   1.468 -0.1368 -0.5058  0.1579
14229TIP3    H264179   0.814   4.621   1.446 -0.7723 -0.4600 -0.9293
14230TIP3   OH264180   0.603   2.132   5.608  0.4478  0.2519 -0.3589
14230TIP3    H164181   0.589   2.093   5.694  0.8996  1.4656  0.2852
14230TIP3    H264182   0.665   2.074   5.564 -0.7600 -1.0581 -0.3602
14231TIP3   OH264183   0.942   3.245   2.679 -0.0460  0.1750 -0.4087
14231TIP3    H164184   1.026   3.290   2.665  0.6124  0.3875  3.7984
14231TIP3    H264185   0.888   3.309   2.725 -1.5760 -0.9195 -0.6469
14232TIP3   OH264186   5.478   4.583  11.897 -0.2675  0.0482  0.0766
14232TIP3    H164187   5.427   4.663  11.885 -1.4856 -0.7795 -0.3164
14232TIP3    H264188   5.421   4.525  11.946  0.5619 -0.6381  0.2329
14233TIP3   OH264189   1.397   2.693   2.042 -0.2229 -0.4063 -0.3110
14233TIP3    H164190   1.358   2.609   2.066 -0.5662 -0.1534  0.0184
14233TIP3    H264191   1.378   2.750   2.116 -1.4913  0.4392 -1.2539
14234TIP3   OH264192   0.437   5.257  11.623  0.1515  0.1185 -0.2944
14234TIP3    H164193   0.463   5.232  11.712  0.1025 -1.2760 -0.6601
14234TIP3    H264194   0.439   5.352  11.624 -0.3329  0.1328  1.3470
14235TIP3   OH264195   1.338   2.274  16.859  0.4461  0.0826 -0.4197
14235TIP3    H164196   1.296   2.359  16.846  1.1519  0.6356  0.8396
14235TIP3    H264197   1.330   2.231  16.774 -2.6584  0.1567 -0.2479
14236TIP3   OH264198   5.888   3.122  15.834  0.0448 -0.6777  0.1312
14236TIP3    H164199   5.905   3.099  15.926 -0.5610 -1.6304  0.0111
14236TIP3    H264200   5.799   3.157  15.834 -0.5102 -2.0952 -0.3398
14237TIP3   OH264201   3.936   3.052   6.092  0.0930 -0.3326  0.4430
14237TIP3    H164202   3.931   3.004   6.174  1.7373 -1.8979 -0.3396
14237TIP3    H264203   4.018   3.100   6.097  0.4980 -0.9103 -0.5326
14238TIP3   OH264204   0.240   3.134   6.029 -0.4303  0.2015 -0.2706
14238TIP3    H164205   0.235   3.068   5.959 -1.3353 -0.9087  0.8190
14238TIP3    H264206   0.333   3.137   6.053 -0.7638 -2.8215  1.6527
14239TIP3   OH264207   1.493   3.485  16.429  0.6934  0.7728  0.1722
14239TIP3    H164208   1.560   3.509  16.493  0.8721 -3.0657  1.5475
14239TIP3    H264209   1.533   3.503  16.344  1.9349  2.2028  1.0269
14240TIP3   OH264210   4.880   3.679   2.790 -0.1286 -0.3851  0.0053
14240TIP3    H164211   4.881   3.695   2.696  0.1723 -0.6853 -0.0426
14240TIP3    H264212   4.796   3.635   2.806  0.2880 -1.2795 -0.2785
14241TIP3   OH264213   5.712   2.662   0.681 -0.2231 -0.2685  0.5186
14241TIP3    H164214   5.762   2.728   0.633 -1.7109  1.2143  0.9387
14241TIP3    H264215   5.729   2.580   0.635  0.6977  0.6266 -0.7611
14242TIP3   OH264216   5.094   5.197  17.102  0.4898  0.3032 -0.5842
14242TIP3    H164217   5.104   5.102  17.110  0.5855  0.3340 -0.3454
14242TIP3    H264218   5.172   5.233  17.144 -0.8489  0.5488  1.7793
14243TIP3   OH264219   5.429   1.050   2.174 -0.2311 -0.1700  0.6513
14243TIP3    H164220   5.389   1.110   2.237 -0.8069 -0.7302  0.8258
14243TIP3    H264221   5.355   1.010   2.128  0.1391 -0.9114  0.6893
14244TIP3   OH264222   3.113   1.622  13.338 -0.6235  0.1428  0.2701
14244TIP3    H164223   3.095   1.712  13.311 -0.1294  0.1646  0.0154
14244TIP3    H264224   3.155   1.630  13.424  0.2676  0.2043 -0.1636
14245TIP3   OH264225   5.613   2.925  16.472 -0.1046 -0.0367  0.4249
14245TIP3    H164226   5.566   2.996  16.517 -1.4218 -0.2590 -0.5514
14245TIP3    H264227   5.598   2.942  16.379  0.3662 -1.0586  0.1547
14246TIP3   OH264228   4.459   3.275  15.068  0.7015 -0.1040 -0.1097
14246TIP3    H164229   4.467   3.365  15.099  1.0643  0.1232 -0.8672
14246TIP3    H264230   4.384   3.240  15.117 -1.3467  1.5271 -1.9878
14247TIP3   OH264231   1.474   3.570  15.099  0.4762  0.3915  0.3750
14247TIP3    H164232   1.526   3.644  15.068  1.8876 -0.5692  0.4363
14247TIP3    H264233   1.442   3.528  15.019 -0.2558  1.0062  0.3393
14248TIP3   OH264234   4.151   0.891   0.816  0.4541  0.2385  0.2596
14248TIP3    H164235   4.066   0.858   0.847  1.2745 -1.7003  0.5215
14248TIP3    H264236   4.203   0.901   0.896  1.0739 -0.3508 -0.0696
14249TIP3   OH264237   4.568   3.807   2.190 -0.3962  0.9196 -0.0093
14249TIP3    H164238   4.591   3.824   2.281 -0.6124 -1.5483  0.5575
14249TIP3    H264239   4.583   3.713   2.179 -0.0777  1.2354 -2.6122
14250TIP3   OH264240   2.974   2.878  13.294 -0.2188  0.4564 -0.3337
14250TIP3    H164241   3.014   2.879  13.207  0.2817 -0.2994 -0.1137
14250TIP3    H264242   3.007   2.957  13.337  1.7147 -0.5894  0.1495
14251TIP3   OH264243   1.404   6.466  11.272 -0.4476 -0.3235 -0.4449
14251TIP3    H164244   1.407   6.458  11.177 -0.7314 -0.0127 -0.4788
14251TIP3    H264245   1.322   6.424  11.297 -0.1609 -0.7987 -0.2965
14252TIP3   OH264246   6.503   1.889   2.051 -0.4182 -0.7259 -0.1826
14252TIP3    H164247   6.484   1.871   2.144 -1.3702  2.6089  0.3631
14252TIP3    H264248   6.482   1.982   2.041 -0.2139 -1.0094 -3.7451
14253TIP3   OH264249   0.482   4.803  12.638  0.1144  0.4960 -0.2728
14253TIP3    H164250   0.514   4.722  12.598 -1.0414  0.0129 -0.2295
14253TIP3    H264251   0.449   4.775  12.724  0.3190  1.1244  0.0101
14254TIP3   OH264252   2.264   2.649   1.269 -0.2512 -0.6688 -0.1021
14254TIP3    H164253   2.307   2.694   1.342  1.5768 -1.5041 -0.6346
14254TIP3    H264254   2.246   2.718   1.206  2.0065 -0.5664 -0.6639
14255TIP3   OH264255   3.466   5.498   4.647 -0.4618 -0.2038 -0.1449
14255TIP3    H164256   3.551   5.513   4.689 -0.7954  0.5730  0.2527
14255TIP3    H264257   3.456   5.403   4.648  0.2090 -0.2795  0.1942
14256TIP3   OH264258   2.426   0.412  14.009 -0.4597  0.0817 -0.2694
14256TIP3    H164259   2.466   0.408  14.096 -1.1544 -0.3443  0.0358
14256TIP3    H264260   2.375   0.331  14.002 -0.8940  0.3975 -0.8295
14257TIP3   OH264261   4.077   0.267   3.896 -0.2856  0.0308  0.5303
14257TIP3    H164262   4.096   0.307   3.980 -3.2730  2.9207 -0.0468
14257TIP3    H264263   3.990   0.228   3.906  0.6716 -2.4292 -0.2983
14258TIP3   OH264264   0.950   4.488  17.139  0.9617  0.2501 -0.5470
14258TIP3    H164265   0.967   4.454  17.227 -1.0188  2.6856  0.8383
14258TIP3    H264266   0.863   4.455  17.117  0.7631  0.9998 -0.8940
14259TIP3   OH264267   4.935   6.253   2.715 -0.4282 -0.0995 -0.0822
14259TIP3    H164268   4.859   6.311   2.708  1.4640  2.2009 -2.8165
14259TIP3    H264269   4.904   6.167   2.688 -1.9321  0.9505 -1.7668
14260TIP3   OH264270   6.449   4.450   4.117  0.1203 -0.1782  0.2630
14260TIP3    H164271   6.528   4.459   4.170  0.3452 -0.0277 -0.0996
14260TIP3    H264272   6.476   4.475   4.029 -0.8894  2.0991  0.5768
14261TIP3   OH264273   0.909   5.904  15.878  0.5171 -0.2257 -0.5662
14261TIP3    H164274   0.958   5.822  15.878 -0.8988 -1.1006  1.3851
14261TIP3    H264275   0.900   5.927  15.970  0.3574  1.7888 -1.0716
14262TIP3   OH264276   2.106   3.492  15.211 -0.4024 -0.3616 -0.4366
14262TIP3    H164277   2.061   3.453  15.137 -0.3624  2.2876 -1.9126
14262TIP3    H264278   2.198   3.475  15.195 -0.4345 -0.2774 -0.7154
14263TIP3   OH264279   1.310   3.461   4.172  0.5026  0.0507 -0.5338
14263TIP3    H164280   1.334   3.368   4.172  0.9223  0.1429  0.4549
14263TIP3    H264281   1.370   3.500   4.236  0.5730  1.0653 -1.2215
14264TIP3   OH264282   2.217   3.949   0.197  0.1411  0.1763  0.0923
14264TIP3    H164283   2.278   3.882   0.164  0.9130  1.2180 -0.6481
14264TIP3    H264284   2.137   3.900   0.219  1.0601 -1.1341  0.5850
14265TIP3   OH264285   4.050   4.468   5.579  0.2239  1.1105  1.0652
14265TIP3    H164286   4.006   4.395   5.534  0.4201  1.4215  0.3535
14265TIP3    H264287   4.133   4.432   5.609  0.2637  1.0045  0.8268
14266TIP3   OH264288   3.021   2.481  15.340 -0.4440  0.3540  0.1162
14266TIP3    H164289   3.100   2.523  15.372 -0.8474  0.6014  0.7896
14266TIP3    H264290   2.990   2.428  15.413 -0.1550 -0.8184 -0.5984
14267TIP3   OH264291   5.164   3.784  13.487 -0.1002 -0.2622 -0.0059
14267TIP3    H164292   5.163   3.859  13.546 -0.2188  0.3123 -0.7232
14267TIP3    H264293   5.095   3.726  13.520 -1.3792  0.8773 -0.6086
14268TIP3   OH264294   5.816   0.549   4.064  0.1359 -0.0183  0.5411
14268TIP3    H164295   5.808   0.582   3.975 -0.1469  1.4979  1.1114
14268TIP3    H264296   5.855   0.462   4.055 -0.7440 -0.2560 -1.1173
14269TIP3   OH264297   4.244   5.966  10.915  0.0892 -0.1873 -0.6885
14269TIP3    H164298   4.246   5.877  10.878 -0.2220  0.3418 -2.0283
14269TIP3    H264299   4.333   5.998  10.904  0.6143 -0.9265  1.3203
14270TIP3   OH264300   4.151   0.830  14.585 -0.0159  0.4359 -0.3093
14270TIP3    H164301   4.200   0.762  14.540  0.2700  0.8607 -0.6418
14270TIP3    H264302   4.177   0.911  14.541 -0.8990  0.6788 -0.3870
14271TIP3   OH264303   3.479   5.474  10.948  0.0672 -0.2215 -0.1549
14271TIP3    H164304   3.498   5.394  10.899 -0.7689 -0.7660  0.3995
14271TIP3    H264305   3.451   5.536  10.882 -0.4054 -0.7444 -0.4496
14272TIP3   OH264306   3.267   1.888  16.832  0.1980 -0.3546  0.0206
14272TIP3    H164307   3.259   1.804  16.877 -0.0760  0.0837  0.8029
14272TIP3    H264308   3.248   1.869  16.740  2.3665 -1.5645 -0.1981
14273TIP3   OH264309   4.291   2.950   2.244  0.0127  0.2721  0.2622
14273TIP3    H164310   4.334   2.885   2.299 -0.4624 -0.3287 -0.0670
14273TIP3    H264311   4.361   3.011   2.220  0.6436 -0.5909 -0.1164
14274TIP3   OH264312   6.202   3.069  14.271  0.2119 -0.5032 -0.7452
14274TIP3    H164313   6.260   3.110  14.207  0.9908 -0.8241 -0.2546
14274TIP3    H264314   6.183   3.139  14.334 -1.7748  0.2435 -2.1199
14275TIP3   OH264315   1.205   3.946  16.812 -0.0320  0.0166  0.0807
14275TIP3    H164316   1.167   3.915  16.730  0.4450 -0.7092  0.1267
14275TIP3    H264317   1.180   4.039  16.817 -1.8022 -0.4503  0.1363
14276TIP3   OH264318   0.862   6.558   2.316 -0.0907  0.5108  0.4831
14276TIP3    H164319   0.895   6.544   2.228  1.7734 -0.0535  1.2368
14276TIP3    H264320   0.839   6.651   2.319 -3.3127 -0.1357 -1.5714
14277TIP3   OH264321   5.869   2.011   0.207  0.2702  0.4717 -0.3296
14277TIP3    H164322   5.863   1.944   0.139  0.8238 -0.7320  0.7958
14277TIP3    H264323   5.795   1.992   0.265 -0.9447  2.2489 -1.2246
14278TIP3   OH264324   4.034   3.681  17.212  0.1412 -0.1072  0.1504
14278TIP3    H164325   4.088   3.613  17.252  0.8358 -0.3373 -1.1657
14278TIP3    H264326   3.993   3.726  17.287 -0.3242 -1.9475  1.0228
14279TIP3   OH264327   1.193   1.785  11.929 -0.6229  0.9400  0.3436
14279TIP3    H164328   1.185   1.866  11.878 -2.2303  0.2680 -0.4944
14279TIP3    H264329   1.109   1.741  11.918  1.1323 -2.1671 -1.4410
14280TIP3   OH264330   4.832   4.084   2.620 -0.2076 -0.0176 -0.3257
14280TIP3    H164331   4.813   4.178   2.619  0.1884  0.0619 -1.2758
14280TIP3    H264332   4.786   4.051   2.697  1.7462  1.3988  1.5112
14281TIP3   OH264333   6.329   5.173   2.223 -0.1828 -0.5893  0.0662
14281TIP3    H164334   6.311   5.114   2.149 -1.5054  0.3918 -0.4309
14281TIP3    H264335   6.350   5.114   2.296 -2.5171 -1.7613 -0.1283
14282TIP3   OH264336   4.540   2.560   4.215 -0.2197 -1.1574  0.4779
14282TIP3    H164337   4.585   2.492   4.265 -2.1622 -1.4156  1.9078
14282TIP3    H264338   4.496   2.614   4.281  0.0507  0.6025 -0.7304
14283TIP3   OH264339   0.009   3.073  12.715  0.3688 -0.0967 -0.1858
14283TIP3    H164340  -0.028   3.124  12.787 -0.3773 -1.1010  0.1403
14283TIP3    H264341  -0.055   3.080  12.645 -0.1499 -1.2977  0.1568
14284TIP3   OH264342   3.000   4.637  15.641 -0.1544 -0.0729 -0.1071
14284TIP3    H164343   3.085   4.601  15.665 -0.1734  0.0436  0.1334
14284TIP3    H264344   2.997   4.723  15.682  0.0408  0.3615 -1.0008
14285TIP3   OH264345   3.377   2.933  10.306 -0.5423 -0.4238 -0.3740
14285TIP3    H164346   3.461   2.939  10.261 -0.2268  1.9799  0.4567
14285TIP3    H264347   3.397   2.897  10.392 -0.3136  0.3768 -0.0872
14286TIP3   OH264348   0.380   4.276  11.751  0.3918  0.1031 -0.4521
14286TIP3    H164349   0.325   4.203  11.722  0.8316 -0.5618  0.3472
14286TIP3    H264350   0.352   4.350  11.698  0.2468 -0.7585 -1.5974
14287TIP3   OH264351   5.866   0.797  12.907 -0.3095  0.7428 -0.2513
14287TIP3    H164352   5.810   0.726  12.874 -1.1562  0.7923  1.0449
14287TIP3    H264353   5.952   0.780  12.868 -0.3108 -1.4280  0.6135
14288TIP3   OH264354   4.113   6.764  13.826 -0.1915  0.2466  0.5690
14288TIP3    H164355   4.147   6.750  13.738 -0.7186 -2.0012  0.6709
14288TIP3    H264356   4.189   6.760  13.883  0.1086  1.3593  0.2426
14289TIP3   OH264357   5.178   3.006   2.527 -0.2122  0.0621  0.1620
14289TIP3    H164358   5.134   3.086   2.498 -0.4907 -0.1242  0.0647
14289TIP3    H264359   5.177   3.012   2.623 -2.5407 -1.0298  0.2554
14290TIP3   OH264360   1.473   2.582   5.016 -0.8688  0.1541  0.9274
14290TIP3    H164361   1.381   2.568   4.991 -0.7423  0.7661  0.0528
14290TIP3    H264362   1.518   2.504   4.984 -0.6174  1.1863 -1.3608
14291TIP3   OH264363   1.879   2.940   1.826  0.0462  0.9127  0.3229
14291TIP3    H164364   1.910   2.872   1.765  0.2145  0.4364  0.9289
14291TIP3    H264365   1.957   2.964   1.876 -0.0242  1.5292  0.1430
14292TIP3   OH264366   0.357   6.146  17.229 -0.7276 -0.2791 -0.2491
14292TIP3    H164367   0.302   6.072  17.205 -0.1459 -0.2415 -1.8235
14292TIP3    H264368   0.299   6.222  17.226 -1.4674 -0.7528  2.0002
14293TIP3   OH264369   1.588   4.383  12.439 -0.2358  0.2578 -0.4245
14293TIP3    H164370   1.545   4.365  12.522  2.1735 -3.0200  0.2038
14293TIP3    H264371   1.665   4.436  12.462 -0.1108  0.2005 -0.7029
14294TIP3   OH264372   4.283   5.247  15.624 -0.2151 -1.1485 -0.0014
14294TIP3    H164373   4.266   5.189  15.550 -0.0089  1.3407 -2.1102
14294TIP3    H264374   4.373   5.277  15.610 -0.3562 -0.2359  0.9791
14295TIP3   OH264375   0.044   2.288  12.428  0.6599 -0.3796 -0.1671
14295TIP3    H164376   0.134   2.255  12.429  0.0687 -2.0394  0.5688
14295TIP3    H264377  -0.010   2.209  12.421 -0.7785  0.5073  0.7889
14296TIP3   OH264378   4.960   0.799   1.485  0.1839 -0.1428  0.5391
14296TIP3    H164379   5.055   0.810   1.479  0.3626 -2.2957 -1.1161
14296TIP3    H264380   4.945   0.708   1.458 -2.3513  0.1825  0.7876
14297TIP3   OH264381   6.197   0.332   4.212  0.1723  0.3604  0.1450
14297TIP3    H164382   6.137   0.396   4.251 -2.6540 -2.0190 -0.1612
14297TIP3    H264383   6.217   0.368   4.125 -2.4276  0.2744 -0.5428
14298TIP3   OH264384   4.590   0.513  15.722 -1.0716 -0.2091 -0.3667
14298TIP3    H164385   4.506   0.483  15.758 -0.3350 -1.3312  0.4634
14298TIP3    H264386   4.640   0.432  15.707 -0.4695  0.3913 -1.7061
14299TIP3   OH264387   6.528   2.456   5.922  0.0173  0.1013  0.4419
14299TIP3    H164388   6.513   2.525   5.987 -3.0417 -0.4205  0.3984
14299TIP3    H264389   6.535   2.376   5.973 -2.0356 -0.2624  0.2060
14300TIP3   OH264390   3.390   3.342   3.791 -0.6599 -0.3910 -0.6998
14300TIP3    H164391   3.306   3.386   3.789 -0.1364  0.5581 -2.2260
14300TIP3    H264392   3.406   3.316   3.700  0.2250 -1.4603 -0.2546
14301TIP3   OH264393   0.394   0.396   3.281 -0.1235 -0.1581  0.4500
14301TIP3    H164394   0.373   0.446   3.202  0.1255  0.8376  1.0082
14301TIP3    H264395   0.310   0.382   3.324 -0.3534 -1.3499 -0.3653
14302TIP3   OH264396   2.809   3.589  14.292  0.0549  0.0098  0.1772
14302TIP3    H164397   2.869   3.640  14.236  1.0252 -1.1438  0.1476
14302TIP3    H264398   2.858   3.510  14.314 -0.9779 -0.3514  1.2444
14303TIP3   OH264399   3.377   0.532   5.689  0.1574 -0.6642 -0.3951
14303TIP3    H164400   3.415   0.608   5.645 -1.0119 -0.4658 -1.0867
14303TIP3    H264401   3.418   0.531   5.776 -1.1616  1.8449  0.3062
14304TIP3   OH264402   5.426   1.215   5.052 -0.8157 -0.4573 -0.0739
14304TIP3    H164403   5.476   1.163   4.988  0.4545  0.2298  0.3324
14304TIP3    H264404   5.485   1.223   5.127 -1.9786 -0.5492  0.8536
14305TIP3   OH264405   4.286   0.464  16.502  0.3408  0.0219 -0.1018
14305TIP3    H164406   4.339   0.466  16.581 -0.8391 -1.2159  0.7406
14305TIP3    H264407   4.264   0.556  16.486  0.8861  0.3190  0.7957
14306TIP3   OH264408   2.374   5.701  13.541 -0.2938  0.3615 -0.5394
14306TIP3    H164409   2.456   5.705  13.491  1.2558  0.4435  1.9436
14306TIP3    H264410   2.376   5.779  13.596 -1.1677 -0.5861  0.8460
14307TIP3   OH264411   5.205   1.345   5.616  0.2224  0.1826  0.6045
14307TIP3    H164412   5.139   1.400   5.657  0.0150 -0.6875  1.4572
14307TIP3    H264413   5.288   1.389   5.636  0.2942 -1.2243  3.6333
14308TIP3   OH264414   6.206   4.897   5.598 -0.1217  0.2754  0.6616
14308TIP3    H164415   6.290   4.905   5.552  0.5466  0.4253  1.8850
14308TIP3    H264416   6.174   4.987   5.605 -0.0439  0.2920  0.8116
14309TIP3   OH264417   2.095   2.673  13.228  0.2290 -0.1914 -0.5020
14309TIP3    H164418   2.112   2.579  13.232 -0.9348 -0.3976 -0.2828
14309TIP3    H264419   2.178   2.713  13.255  0.8177 -1.1455 -0.8865
14310TIP3   OH264420   6.169   3.796  12.112  0.0068  0.2986  0.0101
14310TIP3    H164421   6.233   3.846  12.163  2.3290 -2.6354  0.1222
14310TIP3    H264422   6.101   3.773  12.175  1.4804 -0.9564  1.1768
14311TIP3   OH264423   1.520   6.706  12.165 -0.3912 -0.2096  0.3859
14311TIP3    H164424   1.429   6.731  12.181 -0.3727 -0.3041  0.6388
14311TIP3    H264425   1.567   6.732  12.245 -0.5235 -1.8307  1.0106
14312TIP3   OH264426   1.052   6.689  12.966  0.5559  0.2187 -0.7747
14312TIP3    H164427   1.008   6.709  12.883 -1.0668  0.6167  0.1665
14312TIP3    H264428   1.082   6.773  12.999  3.0799 -0.1496 -1.9297
14313TIP3   OH264429   4.596   2.246   0.424  0.0859  0.1990 -0.0993
14313TIP3    H164430   4.602   2.150   0.422  1.2644  0.2649  0.1120
14313TIP3    H264431   4.548   2.265   0.504  1.8240 -0.1330  1.0469
14314TIP3   OH264432   4.881   0.345  15.369  0.4894 -0.5610  0.0900
14314TIP3    H164433   4.791   0.338  15.399  0.0667 -1.9355 -1.4507
14314TIP3    H264434   4.881   0.420  15.309  0.6271  0.1277  0.9367
14315TIP3   OH264435   3.770   5.967   2.685  0.2353  0.2837 -0.2368
14315TIP3    H164436   3.718   5.945   2.608  0.4618 -0.4039 -0.2021
14315TIP3    H264437   3.715   6.026   2.736  0.0020  0.5758 -0.8223
14316TIP3   OH264438   2.245   4.952   0.075  0.3943  0.5135  0.0862
14316TIP3    H164439   2.323   4.930   0.126  0.0691  0.8423  0.7239
14316TIP3    H264440   2.172   4.925   0.129  0.0441  0.9927 -0.1440
14317TIP3   OH264441   4.242   5.159   4.338  0.1933  0.8611 -0.0085
14317TIP3    H164442   4.242   5.191   4.247 -0.0640 -1.6267 -0.9249
14317TIP3    H264443   4.335   5.154   4.361  0.3078  0.2460 -0.5954
14318TIP3   OH264444   1.444   1.495  11.497  0.3702  0.1642  0.5421
14318TIP3    H164445   1.400   1.430  11.553  2.0093 -0.1214  1.5498
14318TIP3    H264446   1.374   1.551  11.466 -1.1137 -2.1290 -0.3978
14319TIP3   OH264447   2.614   1.675  15.287  0.2220 -0.4125 -0.0914
14319TIP3    H164448   2.695   1.649  15.244 -0.3158 -1.7799 -0.3058
14319TIP3    H264449   2.620   1.770  15.295  1.3897 -0.4031 -1.0213
14320TIP3   OH264450   2.560   3.900  13.095 -0.1430  0.7892  0.0128
14320TIP3    H164451   2.535   3.871  13.182  0.6589  1.3330  0.4239
14320TIP3    H264452   2.496   3.968  13.073 -1.5121 -0.6296 -0.6145
14321TIP3   OH264453   3.942   2.328  11.830 -0.1995  0.6371 -0.4757
14321TIP3    H164454   3.882   2.396  11.800  1.2583  1.9837 -0.4230
14321TIP3    H264455   3.972   2.358  11.916  0.6703  0.0659 -0.5709
14322TIP3   OH264456   5.353   0.255   1.326  0.4976 -0.0207 -0.1531
14322TIP3    H164457   5.380   0.178   1.376 -0.9285 -0.9996 -0.8621
14322TIP3    H264458   5.350   0.326   1.390 -1.4667 -1.2834  1.1734
14323TIP3   OH264459   0.166   2.508  16.731  0.0633  0.0573 -0.0942
14323TIP3    H164460   0.084   2.480  16.770  0.2652 -0.5571 -0.1014
14323TIP3    H264461   0.228   2.514  16.804  0.1009  0.1976 -0.1345
14324TIP3   OH264462   5.364   3.031  11.806  0.2102  0.1289 -0.3604
14324TIP3    H164463   5.361   2.957  11.866  0.6630 -0.0160 -0.5192
14324TIP3    H264464   5.393   3.105  11.860  2.7096 -0.4502 -0.8492
14325TIP3   OH264465   4.254   1.259  16.707  0.1052 -0.6814 -0.0324
14325TIP3    H164466   4.215   1.264  16.794 -0.0300 -2.2344  0.0146
14325TIP3    H264467   4.347   1.280  16.720 -0.3216  1.2299  0.1321
14326TIP3   OH264468   6.646   0.931   3.367  0.5390  0.2596  1.0244
14326TIP3    H164469   6.704   0.889   3.304 -0.4530  0.6869 -0.1874
14326TIP3    H264470   6.704   0.979   3.425  1.4598 -0.1149  0.4207
14327TIP3   OH264471   6.344   6.307   1.827  0.1317 -0.0894 -0.8477
14327TIP3    H164472   6.434   6.331   1.804  0.4883  0.8964  1.5189
14327TIP3    H264473   6.294   6.388   1.821 -0.0682 -0.1149  0.4207
14328TIP3   OH264474   4.170   0.971   4.123 -0.2822 -0.5216  0.5575
14328TIP3    H164475   4.186   1.011   4.208  0.6287  0.1589  0.0654
14328TIP3    H264476   4.251   0.983   4.074 -0.1454 -2.5358  0.2188
14329TIP3   OH264477   6.544   4.575   0.829 -0.0919 -0.2831  0.6247
14329TIP3    H164478   6.449   4.565   0.825 -0.0840 -0.5174  0.9768
14329TIP3    H264479   6.576   4.538   0.747 -0.3630  0.5575  0.1306
14330TIP3   OH264480   3.455   4.337  13.854  0.9020 -0.0324 -0.0921
14330TIP3    H164481   3.515   4.269  13.885 -2.0228 -2.4648  0.4712
14330TIP3    H264482   3.451   4.324  13.759  0.8322 -0.2656 -0.0579
14331TIP3   OH264483   4.869   5.928   2.901  0.3643  0.1864 -0.1181
14331TIP3    H164484   4.963   5.921   2.919  0.4062 -0.5523 -0.6010
14331TIP3    H264485   4.862   5.912   2.807 -0.3213 -0.5175  0.0508
14332TIP3   OH264486   1.044   2.761   0.552  0.1171  0.0584  0.1565
14332TIP3    H164487   1.105   2.703   0.598  0.0297  0.6107  0.9832
14332TIP3    H264488   1.096   2.799   0.481  0.2097 -0.9214 -0.3055
14333TIP3   OH264489   6.074   2.745   4.912  0.1524 -0.0708  0.6241
14333TIP3    H164490   6.006   2.811   4.902 -2.3429 -2.7843 -1.4668
14333TIP3    H264491   6.124   2.749   4.830 -0.9930 -1.7667 -0.1812
14334TIP3   OH264492   0.652   5.711  12.146  0.5593  0.5078 -0.1256
14334TIP3    H164493   0.708   5.781  12.114  1.0180 -0.0025 -0.4513
14334TIP3    H264494   0.692   5.631  12.112 -0.1792  0.1179 -0.0813
14335TIP3   OH264495   4.128   1.443  16.536 -0.3995 -0.3736  0.2804
14335TIP3    H164496   4.150   1.393  16.615  0.5124 -0.8512 -0.2679
14335TIP3    H264497   4.136   1.380  16.465  0.3946  0.4647 -0.3853
14336TIP3   OH264498   5.835   2.660   6.074 -0.3075  0.3652 -0.3095
14336TIP3    H164499   5.800   2.739   6.032 -0.2949  0.7231  0.3540
14336TIP3    H264500   5.765   2.629   6.131 -0.8916 -0.9884 -1.7182
14337TIP3   OH264501   3.405   1.239   2.157 -0.1202  0.6403 -0.2454
14337TIP3    H164502   3.356   1.238   2.239 -1.7044  2.1535 -1.1365
14337TIP3    H264503   3.402   1.330   2.128  0.7151  0.1902 -1.8010
14338TIP3   OH264504   3.040   1.538   3.090 -0.1153 -0.1511  0.6080
14338TIP3    H164505   3.013   1.452   3.059 -1.3645  0.4498  0.0082
14338TIP3    H264506   3.031   1.595   3.014  2.3335  0.1863  0.5454
14339TIP3   OH264507   0.829   1.787  15.502 -0.5662  0.3127 -0.1419
14339TIP3    H164508   0.773   1.852  15.459 -0.5298  0.8021  0.5436
14339TIP3    H264509   0.853   1.727  15.432  0.0087  1.4551 -0.9406
14340TIP3   OH264510   5.541   1.389   4.555 -0.0716 -0.5264 -0.0261
14340TIP3    H164511   5.621   1.437   4.532 -0.1622 -0.0256  0.6760
14340TIP3    H264512   5.572   1.314   4.604  0.0780 -1.2572 -1.2210
14341TIP3   OH264513   3.619   6.184  16.633  0.6416  0.1043  0.5198
14341TIP3    H164514   3.672   6.195  16.713 -0.0857 -0.5220  1.0954
14341TIP3    H264515   3.558   6.114  16.655 -0.8257  1.2194  0.0792
14342TIP3   OH264516   1.046   2.928  12.601 -0.1732  0.9368 -0.3940
14342TIP3    H164517   1.113   2.950  12.665  1.2973  0.4839 -1.7173
14342TIP3    H264518   0.976   2.992  12.615  0.4487  1.3049  1.1345
14343TIP3   OH264519   1.232   1.860   3.641 -0.2572  0.5243 -0.3585
14343TIP3    H164520   1.145   1.890   3.616 -0.0948  2.2476  1.0587
14343TIP3    H264521   1.289   1.893   3.571 -0.6199  0.0581 -0.8807
14344TIP3   OH264522   2.349   3.779   2.449  0.1579 -0.2013 -0.5886
14344TIP3    H164523   2.365   3.872   2.435 -1.1097 -0.2028 -2.1396
14344TIP3    H264524   2.435   3.738   2.436  0.6422  0.6927 -0.2791
14345TIP3   OH264525   1.093   3.940  12.469  0.2181  0.0511 -0.7084
14345TIP3    H164526   1.051   4.001  12.530  0.2470  1.0403 -1.6587
14345TIP3    H264527   1.150   3.996  12.416  0.6941 -0.8979 -1.1957
14346TIP3   OH264528   6.674   4.250   5.535 -0.3703 -1.4637 -0.1557
14346TIP3    H164529   6.640   4.202   5.459 -2.5421 -1.9275  1.0862
14346TIP3    H264530   6.667   4.342   5.509 -0.2296 -1.6504 -0.8741
14347TIP3   OH264531   6.695   5.188  15.245  0.0576  0.7720  0.4048
14347TIP3    H164532   6.722   5.237  15.167  0.8510  1.7284  1.2678
14347TIP3    H264533   6.760   5.212  15.312 -0.2536 -0.5229  1.1805
14348TIP3   OH264534   6.175   6.195   4.602  0.0469 -0.7534  0.0716
14348TIP3    H164535   6.254   6.142   4.610  0.6989  0.1372 -0.4010
14348TIP3    H264536   6.180   6.233   4.515 -0.4493  0.0268  0.3768
14349TIP3   OH264537   0.374   1.755   6.101 -0.1345  0.5529  0.3347
14349TIP3    H164538   0.323   1.692   6.152 -0.7334  1.9001  1.4224
14349TIP3    H264539   0.463   1.747   6.135 -0.4815  1.2631  1.4409
14350TIP3   OH264540   0.827   5.214   4.894  0.0613  0.1031 -0.2100
14350TIP3    H164541   0.748   5.229   4.946 -1.0746  1.5021 -2.2961
14350TIP3    H264542   0.850   5.123   4.912 -0.9978  0.2122  1.7958
14351TIP3   OH264543   5.837   1.346   1.186 -0.0084  0.4549 -0.1932
14351TIP3    H164544   5.912   1.319   1.134  0.1674  2.6294 -1.1311
14351TIP3    H264545   5.809   1.428   1.146 -2.8103 -0.2452  0.2156
14352TIP3   OH264546   4.451   2.825  12.316  0.0721 -0.3654  0.2954
14352TIP3    H164547   4.401   2.764  12.370  0.0256 -2.1473 -1.7159
14352TIP3    H264548   4.387   2.862  12.256  0.5954 -0.3295 -0.2433
14353TIP3   OH264549   3.308   5.120   4.483  0.3552  0.1420 -0.2435
14353TIP3    H164550   3.278   5.122   4.392 -0.8192  1.1674  0.1632
14353TIP3    H264551   3.260   5.048   4.523  0.7681 -0.2184 -0.3827
14354TIP3   OH264552   5.348   6.273   4.336 -0.2729 -0.3728 -0.4390
14354TIP3    H164553   5.387   6.214   4.401  0.7312  0.5199 -0.2266
14354TIP3    H264554   5.408   6.347   4.331 -0.8635  0.0376 -1.6572
14355TIP3   OH264555   5.634   3.452  16.930 -0.0886 -0.4692 -0.5843
14355TIP3    H164556   5.553   3.446  16.880  0.6639  0.1846 -1.9456
14355TIP3    H264557   5.607   3.470  17.020 -1.5047 -2.3191 -0.6222
14356TIP3   OH264558   0.266   3.867  11.017 -0.5661  0.2448 -0.3703
14356TIP3    H164559   0.236   3.890  11.105 -0.4937  1.3566 -0.6394
14356TIP3    H264560   0.297   3.776  11.026  0.4500  0.7039  1.0035
14357TIP3   OH264561   3.138   5.609  12.589  0.0426  0.0491 -0.6714
14357TIP3    H164562   3.219   5.656  12.569  0.8109 -0.7454  0.5478
14357TIP3    H264563   3.145   5.528  12.539  0.4092 -0.4176  0.1374
14358TIP3   OH264564   3.626   4.255  10.994 -0.2612  0.1310  0.2035
14358TIP3    H164565   3.654   4.194  11.063  0.5469  0.3300  0.0615
14358TIP3    H264566   3.568   4.204  10.938 -3.3718  0.7780  2.6985
14359TIP3   OH264567   0.388   3.441   4.565  0.6210  0.6289  0.2575
14359TIP3    H164568   0.467   3.393   4.590 -0.6917 -1.5853  0.2753
14359TIP3    H264569   0.332   3.435   4.642  0.4562  2.2548  0.2698
14360TIP3   OH264570   2.206   5.979   2.297 -0.4328  0.0540 -0.2317
14360TIP3    H164571   2.119   5.985   2.259 -0.2057  0.5820 -0.6755
14360TIP3    H264572   2.265   5.982   2.222 -0.0950 -2.7638 -0.1478
14361TIP3   OH264573   0.060   4.219   5.297  0.2641  0.0641  0.3999
14361TIP3    H164574   0.034   4.301   5.257  1.2290  0.4542  0.5550
14361TIP3    H264575   0.120   4.244   5.367  0.4245 -0.7552  0.5652
14362TIP3   OH264576   1.526   1.650  15.453  0.4667  0.2723 -0.5951
14362TIP3    H164577   1.525   1.668  15.359 -0.9426  0.4768 -0.5564
14362TIP3    H264578   1.463   1.712  15.490  0.0739 -0.6514  0.3219
14363TIP3   OH264579   0.622   2.532  16.114  0.1426  0.7550 -0.1077
14363TIP3    H164580   0.686   2.542  16.185  0.4052 -0.9386 -0.0833
14363TIP3    H264581   0.602   2.622  16.087  2.8675  1.3079 -0.4314
14364TIP3   OH264582   6.479   2.096   4.459  0.0923 -0.0674 -0.0857
14364TIP3    H164583   6.456   2.038   4.386 -1.5312  1.9958 -1.2770
14364TIP3    H264584   6.421   2.068   4.530  1.7390 -2.1426  0.5046
14365TIP3   OH264585   5.049   0.739  12.773  0.2610 -0.0768 -0.0101
14365TIP3    H164586   5.006   0.818  12.807 -2.1014 -1.0379 -0.6639
14365TIP3    H264587   5.072   0.689  12.851 -0.3991  0.1341  0.3207
14366TIP3   OH264588   3.536   0.100   1.163  0.1690  1.0061 -0.1802
14366TIP3    H164589   3.468   0.066   1.220  0.2803 -0.5195 -0.9273
14366TIP3    H264590   3.558   0.186   1.199 -1.3998  1.0583  0.6756
14367TIP3   OH264591   2.175   3.914  15.308  0.5185 -0.4283 -0.0503
14367TIP3    H164592   2.133   3.837  15.345  1.3691 -0.9153 -0.0762
14367TIP3    H264593   2.238   3.880  15.245  2.4098  0.1495  1.4526
14368TIP3   OH264594   3.673   5.114  14.973 -0.0214 -0.0459  0.6641
14368TIP3    H164595   3.677   5.120  15.069  0.8437 -0.9728  0.6949
14368TIP3    H264596   3.590   5.070  14.955 -0.8645  1.3936  0.9197
14369TIP3   OH264597   5.787   0.745  12.294  0.8661  0.0202 -0.8860
14369TIP3    H164598   5.808   0.748  12.387 -2.5301  1.0957 -0.0754
14369TIP3    H264599   5.823   0.662  12.264  2.1170 -0.2871  1.3536
14370TIP3   OH264600   2.390   2.142  14.971 -0.3225  0.1099 -0.1216
14370TIP3    H164601   2.425   2.074  15.028  0.2306  0.3421 -0.1766
14370TIP3    H264602   2.355   2.208  15.031  0.8235  0.6472 -0.0349
14371TIP3   OH264603   5.530   1.673   2.112  0.0396  0.6183  0.6499
14371TIP3    H164604   5.463   1.733   2.078 -0.2936  0.1649  0.5028
14371TIP3    H264605   5.592   1.662   2.040  0.6568  1.5879  1.0169
14372TIP3   OH264606   5.956   1.929   2.268 -0.0551 -0.3084 -0.1924
14372TIP3    H164607   5.953   2.009   2.320  0.3338  0.1254 -0.8297
14372TIP3    H264608   5.876   1.883   2.291  0.4188 -0.4189  1.2485
14373TIP3   OH264609   2.840   0.422   0.043  0.4454  0.7993  0.0183
14373TIP3    H164610   2.875   0.504   0.007  0.2549  0.9640  0.2106
14373TIP3    H264611   2.838   0.436   0.137 -0.9365  1.1064 -0.0496
14374TIP3   OH264612   6.502   0.696   3.899  0.1782 -0.3907  0.3683
14374TIP3    H164613   6.579   0.736   3.940 -0.5359  0.4808  0.8688
14374TIP3    H264614   6.517   0.707   3.805  0.5041  0.0784  0.4741
14375TIP3   OH264615   5.068   0.337   4.589 -0.2242 -0.2911  0.3412
14375TIP3    H164616   5.041   0.246   4.580 -0.4139 -0.2595  0.5917
14375TIP3    H264617   5.161   0.334   4.609  0.1409 -0.3847 -1.2880
14376TIP3   OH264618   0.140   2.199  15.133  0.4875 -0.0528 -0.0652
14376TIP3    H164619   0.145   2.250  15.214  1.5780  0.7424 -0.6383
14376TIP3    H264620   0.046   2.181  15.122  0.1181  1.6179  0.2530
14377TIP3   OH264621   2.899   2.034   5.956 -0.7871  0.6144 -0.1810
14377TIP3    H164622   2.984   2.034   6.001 -1.8401  2.2046  1.8619
14377TIP3    H264623   2.909   2.099   5.886  0.1087 -0.1875 -0.8065
14378TIP3   OH264624   1.229   1.027   0.511  0.0077  0.7723 -0.3901
14378TIP3    H164625   1.198   0.948   0.555  1.0636  0.7815  0.3833
14378TIP3    H264626   1.149   1.072   0.485 -0.6390 -1.9210 -3.3873
14379TIP3   OH264627   3.435   5.870   0.472  0.2840  0.9537 -0.1844
14379TIP3    H164628   3.403   5.788   0.509  0.3359  1.3217  0.6957
14379TIP3    H264629   3.361   5.931   0.482  0.2790  1.0431 -0.7441
14380TIP3   OH264630   0.230   2.193  15.909  0.7262 -0.2627  0.1372
14380TIP3    H164631   0.223   2.183  15.814  0.2992 -2.9817  0.4121
14380TIP3    H264632   0.165   2.261  15.931  0.5543  0.1079 -1.4548
14381TIP3   OH264633   5.598   4.699  12.647 -0.2212 -0.3002 -0.0963
14381TIP3    H164634   5.615   4.712  12.554 -3.1945  1.2189 -0.4822
14381TIP3    H264635   5.578   4.606  12.655  2.0520 -0.8600 -0.5997
14382TIP3   OH264636   0.717   0.999   2.481  0.8933 -0.3042  0.5342
14382TIP3    H164637   0.763   1.022   2.400  1.2950  0.3533  0.9409
14382TIP3    H264638   0.645   0.943   2.453  0.4618  0.6920 -0.3932
14383TIP3   OH264639   1.740   3.303  16.861 -0.2208 -0.1175 -0.5759
14383TIP3    H164640   1.782   3.228  16.904 -0.6340  0.9920  1.8597
14383TIP3    H264641   1.807   3.372  16.862 -0.6949  0.3434 -0.4503
14384TIP3   OH264642   0.051   2.144  11.568 -1.3510  0.2943  0.4038
14384TIP3    H164643   0.086   2.135  11.656  2.4386  1.3174 -0.8998
14384TIP3    H264644   0.065   2.059  11.527 -1.7049  0.2897  0.2810
14385TIP3   OH264645   4.317   1.533   5.513  0.0179 -0.3758 -0.1473
14385TIP3    H164646   4.258   1.593   5.468 -0.8682 -0.8743  0.3206
14385TIP3    H264647   4.351   1.584   5.587 -0.5903 -0.3769  0.1427
14386TIP3   OH264648   2.201   4.564  15.449  0.2942 -0.3408 -0.2052
14386TIP3    H164649   2.147   4.490  15.476 -1.0604  1.2972  1.8148
14386TIP3    H264650   2.162   4.594  15.367  1.4881 -2.4648 -1.5751
14387TIP3   OH264651   4.538   2.894  11.964 -0.4689 -0.1525  0.0870
14387TIP3    H164652   4.535   2.806  12.001 -1.7901  0.3417  1.1909
14387TIP3    H264653   4.623   2.929  11.992  0.2981 -1.2597 -0.8166
14388TIP3   OH264654   4.564   2.894  16.704 -0.3553  0.1492 -0.5648
14388TIP3    H164655   4.503   2.883  16.630 -1.0103 -1.5104  0.2077
14388TIP3    H264656   4.543   2.981  16.739  0.0644  1.0264 -2.4129
14389TIP3   OH264657   1.354   5.310  16.531 -0.1313  0.0900  0.6244
14389TIP3    H164658   1.445   5.281  16.545 -0.2782 -0.5003  0.3858
14389TIP3    H264659   1.359   5.405  16.528  0.8632 -0.0155 -2.0036
14390TIP3   OH264660   2.233   2.096   5.315 -0.5554  0.0297 -0.1129
14390TIP3    H164661   2.164   2.087   5.249  0.7774 -0.7134 -1.4487
14390TIP3    H264662   2.249   2.006   5.345 -1.0802  0.3535  1.1718
14391TIP3   OH264663   2.880   6.114  12.095  0.1250 -0.0789 -0.5113
14391TIP3    H164664   2.831   6.167  12.158  1.1417  0.5629 -0.2287
14391TIP3    H264665   2.856   6.150  12.010  1.0274  1.0593 -0.3048
14392TIP3   OH264666   3.476   3.181  11.786  0.4206  0.3525 -0.3209
14392TIP3    H164667   3.393   3.142  11.813 -0.2021  2.2941  0.6702
14392TIP3    H264668   3.523   3.196  11.868  0.9084  1.0942 -0.7407
14393TIP3   OH264669   5.998   2.659  14.154 -0.3149  0.1666  0.2504
14393TIP3    H164670   5.923   2.655  14.213 -1.1867  0.7530 -0.7934
14393TIP3    H264671   6.075   2.661  14.212 -1.1086 -0.1915  1.3270
14394TIP3   OH264672   0.693   6.316  17.287  0.6123  0.4045 -0.4528
14394TIP3    H164673   0.601   6.316  17.314  0.4521  0.9964 -0.9743
14394TIP3    H264674   0.742   6.307  17.368  0.0864 -0.0275 -0.1805
14395TIP3   OH264675   5.162   2.052  15.814  0.1130  0.1471  0.1809
14395TIP3    H164676   5.077   2.030  15.853 -0.1243  1.2795  0.3085
14395TIP3    H264677   5.214   2.086  15.887  0.7915 -0.8359  0.1650
14396TIP3   OH264678   3.810   2.944   3.054 -0.0625 -0.3570  0.1383
14396TIP3    H164679   3.857   3.022   3.082  0.7138 -1.3422  1.6630
14396TIP3    H264680   3.761   2.916   3.132  1.2396 -2.5178  0.2330
14397TIP3   OH264681   2.799   2.699  12.489  0.0445  0.4838  0.4408
14397TIP3    H164682   2.731   2.725  12.428  0.1910 -1.0408 -0.4021
14397TIP3    H264683   2.804   2.604  12.480  0.3404  0.2794  2.5340
14398TIP3   OH264684   0.616   6.001   2.768 -0.8215 -0.6580  0.3443
14398TIP3    H164685   0.696   5.949   2.767 -0.7086 -0.4717 -0.5843
14398TIP3    H264686   0.546   5.936   2.757 -0.6090 -0.5114 -2.1685
14399TIP3   OH264687   0.422   1.815   2.866 -0.3079 -0.6295 -0.1213
14399TIP3    H164688   0.385   1.897   2.899 -0.5785 -0.6684 -0.3302
14399TIP3    H264689   0.366   1.747   2.901  0.8246 -0.8368  1.3393
14400TIP3   OH264690   1.615   4.913  11.749  0.9213  0.4386  0.4738
14400TIP3    H164691   1.704   4.879  11.761  1.6921  1.9369 -0.7945
14400TIP3    H264692   1.566   4.880  11.825  2.7088  0.1129  1.5069
14401TIP3   OH264693   0.451   3.288  17.092 -0.5319 -0.3026  0.1233
14401TIP3    H164694   0.428   3.246  17.175  2.4362 -1.5907  0.3480
14401TIP3    H264695   0.475   3.377  17.117 -2.5901  0.2489  0.2203
14402TIP3   OH264696   4.289   3.611   3.595 -0.1568  0.1871  0.3136
14402TIP3    H164697   4.329   3.646   3.515 -1.0737 -0.5781 -0.4968
14402TIP3    H264698   4.229   3.679   3.624 -1.1063 -0.2338 -0.6323
14403TIP3   OH264699   1.152   5.010  11.285 -0.2556  0.1424  0.1892
14403TIP3    H164700   1.158   4.933  11.230  0.9039  0.1770  0.2458
14403TIP3    H264701   1.213   4.993  11.357  0.4270  1.3240 -0.0839
14404TIP3   OH264702   5.306   4.629  15.406 -0.4685 -0.1259 -0.6056
14404TIP3    H164703   5.392   4.596  15.432 -1.1158 -1.0084  0.4744
14404TIP3    H264704   5.317   4.658  15.316  0.9689 -0.1940 -0.4615
14405TIP3   OH264705   6.631   0.888  16.077  0.4212 -0.1919  0.9488
14405TIP3    H164706   6.613   0.907  16.169 -0.5533 -1.6162  1.0768
14405TIP3    H264707   6.545   0.866  16.040  1.1344 -1.9968  0.2961
14406TIP3   OH264708   4.132   5.685  11.770  0.1736 -0.2108 -0.4521
14406TIP3    H164709   4.217   5.652  11.740  0.1056  0.4265 -1.3758
14406TIP3    H264710   4.085   5.707  11.689  0.1287  1.9394  0.1297
14407TIP3   OH264711   5.274   1.470   0.405  0.1572  0.4334  1.3100
14407TIP3    H164712   5.356   1.423   0.396 -0.3310 -0.4787  1.5815
14407TIP3    H264713   5.209   1.413   0.364 -0.4815  0.7440  1.8838
14408TIP3   OH264714   2.084   2.732   1.928 -0.0564 -0.4590  0.2700
14408TIP3    H164715   2.106   2.655   1.875 -1.1928  0.0124 -0.8899
14408TIP3    H264716   1.989   2.732   1.932 -0.0285  0.4004  0.9993
14409TIP3   OH264717   1.390   0.324  16.372 -0.1906 -0.0370  0.0422
14409TIP3    H164718   1.386   0.330  16.277  0.7420 -0.5273 -0.0375
14409TIP3    H264719   1.401   0.414  16.402 -0.9620  0.1702 -0.2824
14410TIP3   OH264720   0.291   0.354   1.307 -0.2038  0.1042 -0.3115
14410TIP3    H164721   0.259   0.263   1.308  0.1457 -0.0205 -0.4585
14410TIP3    H264722   0.235   0.398   1.243  0.3468 -0.2705 -1.0516
14411TIP3   OH264723   6.052   1.368  15.815 -0.1653 -0.0833 -0.0162
14411TIP3    H164724   6.008   1.316  15.749 -0.4807  0.6415 -0.3847
14411TIP3    H264725   6.080   1.305  15.882 -1.8843 -0.5253  0.2990
14412TIP3   OH264726   6.252   0.636   3.405 -0.2152  0.3779  0.6354
14412TIP3    H164727   6.258   0.722   3.447  0.9277 -0.4473  2.2286
14412TIP3    H264728   6.255   0.655   3.312 -0.0986  2.0791  0.9587
14413TIP3   OH264729   5.566   4.390   3.190 -0.0778 -0.4946 -0.3414
14413TIP3    H164730   5.627   4.439   3.135  0.8177  1.0107  1.9453
14413TIP3    H264731   5.556   4.443   3.269 -1.2275 -2.6721  1.0260
14414TIP3   OH264732   5.605   1.950   2.299 -0.6300  0.4582  0.0260
14414TIP3    H164733   5.573   1.967   2.388 -1.7000  1.2539 -0.4965
14414TIP3    H264734   5.628   1.857   2.300  2.0137  1.0707  1.9225
14415TIP3   OH264735   1.071   6.768  13.256 -0.0224 -0.3243 -0.6060
14415TIP3    H164736   1.156   6.800  13.225 -0.2182  0.6808 -0.1253
14415TIP3    H264737   1.082   6.758  13.351 -0.9598  1.5008 -0.2835
14416TIP3   OH264738   0.851   6.787  11.678  0.0377 -0.5851  0.0900
14416TIP3    H164739   0.786   6.813  11.613  2.1292  1.1384 -1.3896
14416TIP3    H264740   0.805   6.724  11.734 -2.0828 -1.5296 -2.5673
14417TIP3   OH264741   0.347   1.905  16.870  0.3074 -0.4709  1.0363
14417TIP3    H164742   0.343   1.864  16.783 -1.6402  1.4095  0.2020
14417TIP3    H264743   0.260   1.891  16.907  0.5171  0.4482  1.8829
14418TIP3   OH264744   3.985   5.605  12.003  0.4575  0.2886  0.0716
14418TIP3    H164745   4.025   5.638  11.924  2.4616 -1.4369  0.3165
14418TIP3    H264746   3.982   5.510  11.991 -2.9426  0.2949  0.3662
14419TIP3   OH264747   0.552   6.654   6.513  0.0050 -0.8718  0.1990
14419TIP3    H164748   0.607   6.692   6.445 -1.6715  1.2165 -0.0468
14419TIP3    H264749   0.600   6.669   6.595 -0.2768  1.1226  0.0138
14420TIP3   OH264750   6.234   4.927  12.036 -0.6378  0.4688 -0.5043
14420TIP3    H164751   6.271   4.985  11.969  1.7538 -0.4602 -0.0190
14420TIP3    H264752   6.168   4.875  11.988  0.4078  0.4302 -1.9383
14421TIP3   OH264753   1.979   2.611  11.095  0.2733  0.3276  0.0547
14421TIP3    H164754   2.062   2.581  11.057  0.8602 -1.6522  2.7218
14421TIP3    H264755   1.956   2.543  11.159 -1.4880  2.6804  2.0448
14422TIP3   OH264756   3.406   0.104   1.779 -0.9041 -0.3760 -0.2579
14422TIP3    H164757   3.395   0.173   1.714 -0.0087  0.3619  0.3639
14422TIP3    H264758   3.350   0.130   1.852  1.8634  1.3787  1.3043
14423TIP3   OH264759   6.100   1.352  15.457  0.1681  0.4089 -0.1797
14423TIP3    H164760   6.042   1.289  15.414 -0.3184  0.8410 -0.1636
14423TIP3    H264761   6.188   1.322  15.437 -0.0638 -0.0990 -0.4327
14424TIP3   OH264762   4.966   6.241  12.852  0.4184  0.1790  0.0791
14424TIP3    H164763   4.993   6.331  12.867 -1.6695  0.3999  3.1132
14424TIP3    H264764   4.916   6.244  12.770  0.4593  1.7782  0.0992
14425TIP3   OH264765   2.277   3.283  13.367  0.3591 -0.4219  0.0395
14425TIP3    H164766   2.187   3.269  13.339  1.4221  0.3488 -4.1378
14425TIP3    H264767   2.276   3.367  13.413 -1.2876 -1.1091  1.2579
14426TIP3   OH264768   6.702   4.541  16.404 -0.9395  0.0331  0.6940
14426TIP3    H164769   6.693   4.513  16.495  0.3361  1.1043  1.1685
14426TIP3    H264770   6.661   4.627  16.400 -0.0430  0.4610  0.5144
14427TIP3   OH264771   2.108   6.628   3.653  0.0372 -0.1028 -0.2347
14427TIP3    H164772   2.127   6.594   3.740  1.1122  0.1839 -0.3588
14427TIP3    H264773   2.151   6.567   3.593  1.0591  0.8581 -0.4958
14428TIP3   OH264774   3.456   0.991   0.919 -0.0122  0.1901 -0.3156
14428TIP3    H164775   3.532   1.015   0.971 -1.2470  2.0769  0.6702
14428TIP3    H264776   3.455   0.895   0.920  1.4042  0.1780  1.0288
14429TIP3   OH264777   2.546   4.485   4.126 -0.1941  0.0574 -0.2563
14429TIP3    H164778   2.479   4.554   4.134 -1.2737 -1.0210  0.1944
14429TIP3    H264779   2.595   4.509   4.047 -0.7549  1.1748 -0.2836
14430TIP3   OH264780   0.875   4.825  13.102 -0.2441 -0.8203  0.0084
14430TIP3    H164781   0.788   4.863  13.102 -0.6199 -1.6481 -0.9276
14430TIP3    H264782   0.886   4.789  13.190 -0.7190 -0.4389  0.2242
14431TIP3   OH264783   1.225   0.616   3.974  0.1281  0.0842  0.5897
14431TIP3    H164784   1.278   0.566   4.036  0.8026  0.4989  0.3571
14431TIP3    H264785   1.176   0.550   3.925  0.4548 -0.3083  0.7904
14432TIP3   OH264786   2.580   2.648   5.653 -0.3492 -0.7313 -0.4000
14432TIP3    H164787   2.547   2.616   5.737  1.5841  0.9967  1.0636
14432TIP3    H264788   2.549   2.738   5.648  0.1047 -0.6187 -1.2284
14433TIP3   OH264789   3.802   1.040  16.275 -0.5569 -0.3489  0.8526
14433TIP3    H164790   3.769   1.053  16.364  0.1996 -1.6204  1.3268
14433TIP3    H264791   3.845   0.955  16.277 -0.3023 -0.2735 -0.6681
14434TIP3   OH264792   4.970   0.288  16.266  0.0494 -0.4818 -0.4688
14434TIP3    H164793   5.000   0.378  16.276 -0.1931 -0.6264  2.0322
14434TIP3    H264794   5.044   0.235  16.294  0.0466 -1.0642 -1.5432
14435TIP3   OH264795   1.312   4.964   3.039 -0.9158 -0.0164 -0.0100
14435TIP3    H164796   1.222   4.994   3.022 -1.0615 -0.9144 -0.8652
14435TIP3    H264797   1.304   4.909   3.116 -1.1300 -0.2285 -0.1825
14436TIP3   OH264798   5.366   4.819   4.518  0.7894  0.6178  0.1259
14436TIP3    H164799   5.311   4.876   4.463  0.7455  0.1999 -0.2644
14436TIP3    H264800   5.388   4.874   4.593 -1.9565  0.1266  1.3732
14437TIP3   OH264801   1.989   4.143  14.357 -0.2263 -0.2279 -0.0489
14437TIP3    H164802   1.895   4.162  14.353 -0.2886 -0.3668  0.7502
14437TIP3    H264803   2.003   4.107  14.444  0.7797  0.9039  0.2789
14438TIP3   OH264804   2.237   2.212   5.707 -0.0130  0.2846  0.8077
14438TIP3    H164805   2.205   2.175   5.625 -1.6005 -0.2020  1.6053
14438TIP3    H264806   2.332   2.213   5.698 -0.1006 -1.0262 -0.5030
14439TIP3   OH264807   4.139   0.026  15.947 -0.3585 -0.5982 -0.0389
14439TIP3    H164808   4.161  -0.044  15.886 -1.3315 -1.2214  0.3107
14439TIP3    H264809   4.043   0.028  15.947 -0.3481  0.5269  0.1931
14440TIP3   OH264810   4.884   5.733  10.818 -0.3249  0.0368 -0.6276
14440TIP3    H164811   4.832   5.660  10.852 -0.8259  0.8768  0.4263
14440TIP3    H264812   4.951   5.691  10.763 -1.4091 -1.1204 -1.0936
14441TIP3   OH264813   0.303   0.141  11.870 -0.5125  0.2891  0.0028
14441TIP3    H164814   0.297   0.099  11.784  0.3903 -0.0422  0.0958
14441TIP3    H264815   0.336   0.229  11.851 -1.0425  0.4791 -0.0569
14442TIP3   OH264816   2.576   0.849  11.991  0.3303  0.2458 -0.6233
14442TIP3    H164817   2.591   0.810  11.905 -1.2237 -1.9515  0.0518
14442TIP3    H264818   2.636   0.801  12.049 -0.0973  0.2853 -0.1442
14443TIP3   OH264819   4.023   0.192   2.339  0.3363  0.1158 -0.1076
14443TIP3    H164820   3.971   0.223   2.264  0.8466 -0.7133 -0.8150
14443TIP3    H264821   4.112   0.222   2.319  0.2538  0.9413  0.7634
14444TIP3   OH264822   1.915   4.310   0.853 -0.4502  0.0765 -0.8120
14444TIP3    H164823   1.924   4.393   0.900 -1.5522 -0.9181  1.2305
14444TIP3    H264824   1.825   4.311   0.820 -0.0636  0.2402 -1.8562
14445TIP3   OH264825   3.066   3.479  12.447 -0.1635  0.0014 -0.8550
14445TIP3    H164826   3.141   3.516  12.401  0.7422 -2.1748 -1.1681
14445TIP3    H264827   3.049   3.541  12.518  2.6025 -0.0107 -0.1137
14446TIP3   OH264828   4.029   0.136  12.197  0.1064 -0.5961 -0.1799
14446TIP3    H164829   3.971   0.062  12.213 -1.2850  0.2290 -1.2009
14446TIP3    H264830   3.972   0.213  12.208  1.0073  0.2312 -1.1844
14447TIP3   OH264831   5.607   4.921   1.651 -0.0862  0.5677 -0.3682
14447TIP3    H164832   5.611   4.851   1.587 -0.9735 -0.5241  0.7475
14447TIP3    H264833   5.568   4.995   1.604  0.1420  0.0768 -1.3332
14448TIP3   OH264834   5.388   4.416   4.522 -0.3461  0.3422 -0.2589
14448TIP3    H164835   5.401   4.332   4.479  1.6165  1.0699 -1.1275
14448TIP3    H264836   5.448   4.414   4.597 -0.4257  0.8980 -0.1767
14449TIP3   OH264837   6.221   4.189  14.042  0.3494  0.3438  0.4173
14449TIP3    H164838   6.134   4.177  14.003  0.5726  0.4131 -0.1092
14449TIP3    H264839   6.206   4.188  14.136 -0.5015  2.3495  0.3239
14450TIP3   OH264840   4.005   2.383   4.831 -0.0974 -0.0025  0.0067
14450TIP3    H164841   3.946   2.425   4.893  2.1598  0.7054  1.7417
14450TIP3    H264842   4.022   2.296   4.869 -0.8257 -0.5935 -1.0076
14451TIP3   OH264843   3.243   2.909  10.709  0.3138 -0.5200  0.5001
14451TIP3    H164844   3.159   2.903  10.664 -0.0066 -2.2955  1.2945
14451TIP3    H264845   3.308   2.898  10.640 -0.1810 -3.4528  0.4324
14452TIP3   OH264846   3.487   2.784  15.383 -0.4637  0.1286 -0.0501
14452TIP3    H164847   3.556   2.826  15.331  0.1690 -0.5092  0.2638
14452TIP3    H264848   3.406   2.821  15.349 -0.0427 -0.0578 -1.2993
14453TIP3   OH264849   2.642   2.207  11.372  0.3303 -0.2712 -0.2335
14453TIP3    H164850   2.605   2.249  11.450 -2.8094 -0.4632 -1.5312
14453TIP3    H264851   2.656   2.280  11.311  0.3508 -0.4167 -0.4024
14454TIP3   OH264852   0.404   2.453   0.742 -0.2492 -0.1495  0.2809
14454TIP3    H164853   0.384   2.538   0.781 -1.0285 -0.2679  0.1334
14454TIP3    H264854   0.343   2.444   0.669  2.3242  0.8537 -2.1320
14455TIP3   OH264855   0.705   3.086   4.388  0.3759 -0.3675 -0.0198
14455TIP3    H164856   0.744   3.003   4.415 -1.2590 -1.6158 -1.3283
14455TIP3    H264857   0.775   3.132   4.342  1.6425 -0.4820  1.7612
14456TIP3   OH264858   3.875   0.300  16.411  0.2923 -0.0796 -0.3242
14456TIP3    H164859   3.954   0.318  16.360  2.3684 -1.2027  2.3672
14456TIP3    H264860   3.846   0.214  16.382 -1.2679  1.2617 -2.8785
14457TIP3   OH264861   5.086   5.071   1.016 -0.4331  0.2618 -0.0735
14457TIP3    H164862   5.042   5.131   0.955  1.3388  0.9013 -0.7709
14457TIP3    H264863   5.144   5.019   0.960 -2.1658 -2.3764  0.4845
14458TIP3   OH264864   3.417   1.831   5.085 -0.0621 -0.1786  0.1519
14458TIP3    H164865   3.341   1.822   5.029 -0.1732  0.0359  0.2680
14458TIP3    H264866   3.433   1.743   5.118 -0.2027 -0.2405  0.0562
14459TIP3   OH264867   2.528   4.399  12.481  0.4160 -0.3083  0.0666
14459TIP3    H164868   2.599   4.379  12.420  0.8433 -3.5112  1.4879
14459TIP3    H264869   2.572   4.422  12.563 -0.1646 -1.1600  0.6242
14460TIP3   OH264870   4.921   3.147   4.691 -0.1193  0.1165 -0.3155
14460TIP3    H164871   4.837   3.113   4.660 -0.1624 -0.2807  0.2165
14460TIP3    H264872   4.951   3.205   4.622  0.1826 -1.3720 -1.4482
14461TIP3   OH264873   1.504   0.202  12.741 -0.3401 -0.7181 -0.5792
14461TIP3    H164874   1.538   0.283  12.780 -1.0570 -0.3303 -0.7478
14461TIP3    H264875   1.575   0.171  12.685  0.4181 -0.8775  0.4493
14462TIP3   OH264876   0.595   3.427   2.689 -0.0407  0.2261 -0.7834
14462TIP3    H164877   0.539   3.499   2.659 -1.7392 -0.9638 -0.5423
14462TIP3    H264878   0.547   3.348   2.666 -0.3519 -0.7831  2.9503
14463TIP3   OH264879   2.954   1.707  14.262 -0.4789  0.1201 -0.3016
14463TIP3    H164880   3.003   1.744  14.336 -1.8973  0.6899  0.3852
14463TIP3    H264881   2.980   1.761  14.187  1.4656 -0.8755 -0.3842
14464TIP3   OH264882   3.823   4.158  13.808  0.1930  0.1699 -0.0130
14464TIP3    H164883   3.784   4.174  13.893 -3.1382 -1.0226 -1.2535
14464TIP3    H264884   3.811   4.239  13.760  1.2894  0.5440  0.3131
14465TIP3   OH264885   0.532   5.983  14.163 -0.0027  0.3508 -0.3926
14465TIP3    H164886   0.541   6.008  14.071  0.5505 -0.4331 -0.5614
14465TIP3    H264887   0.574   5.897  14.168 -0.2764  0.2693  0.5364
14466TIP3   OH264888   1.871   3.725  15.576 -0.6732 -0.1920 -0.0414
14466TIP3    H164889   1.802   3.786  15.552  0.8313  0.3731 -3.2011
14466TIP3    H264890   1.828   3.640  15.583 -1.5467 -0.0241 -2.9869
14467TIP3   OH264891   3.069   5.135  15.361 -0.0898 -0.3198 -0.2309
14467TIP3    H164892   3.023   5.218  15.374  0.0605 -0.4101  0.9571
14467TIP3    H264893   3.136   5.135  15.429  0.2078 -1.2075 -0.5263
14468TIP3   OH264894   5.005   5.097   3.849  0.0401 -0.0413  0.0463
14468TIP3    H164895   5.087   5.048   3.836 -1.6260 -4.0160  3.3168
14468TIP3    H264896   4.952   5.073   3.773  1.1829  1.0630 -1.1297
14469TIP3   OH264897   2.429   1.838  16.630 -0.2158  0.0442 -0.1804
14469TIP3    H164898   2.432   1.867  16.721 -0.1661  0.8455 -0.4314
14469TIP3    H264899   2.351   1.784  16.624 -1.1783  1.3897 -0.0552
14470TIP3   OH264900   4.965   0.154  13.548 -0.0909 -0.0299 -0.2772
14470TIP3    H164901   4.972   0.167  13.454  0.0850 -2.6040 -0.6453
14470TIP3    H264902   5.055   0.144  13.578 -0.2109 -0.2706  0.0084
14471TIP3   OH264903   5.857   2.213  16.085  0.7674 -0.4169  0.2210
14471TIP3    H164904   5.849   2.229  15.991  0.9006  1.4839  0.5145
14471TIP3    H264905   5.783   2.157  16.106  1.2116 -1.5574 -1.1574
14472TIP3   OH264906   4.078   3.875  14.938  0.0327 -1.1483  0.0940
14472TIP3    H164907   4.162   3.921  14.936 -0.5711 -0.0357 -0.5009
14472TIP3    H264908   4.100   3.783  14.953  1.3642 -0.8982 -0.3396
14473TIP3   OH264909   1.429   3.895   5.145 -0.2274 -0.0844  0.2974
14473TIP3    H164910   1.524   3.892   5.156 -0.3315  0.7614  1.5313
14473TIP3    H264911   1.416   3.921   5.054  0.7157 -0.8358 -0.0594
14474TIP3   OH264912   2.408   1.560   2.630  0.1418  0.7001  0.2897
14474TIP3    H164913   2.499   1.547   2.605 -0.2113  1.5204 -1.5095
14474TIP3    H264914   2.357   1.526   2.555 -0.9654  2.5897  0.1609
14475TIP3   OH264915   1.077   2.292   5.626 -0.3182  0.3229 -0.2709
14475TIP3    H164916   0.986   2.320   5.616 -0.6175 -0.3049  0.6548
14475TIP3    H264917   1.071   2.204   5.664  0.6378 -0.3650 -1.6807
14476TIP3   OH264918   2.183   1.305   5.478  0.4661  0.1499 -0.2730
14476TIP3    H164919   2.149   1.216   5.469  1.2554 -0.0324 -1.6873
14476TIP3    H264920   2.159   1.348   5.396  2.1912  0.5022 -0.6063
14477TIP3   OH264921   0.011   3.368  17.004 -0.1486 -0.0371 -0.3249
14477TIP3    H164922   0.105   3.355  16.989 -0.2346 -1.9994  0.5827
14477TIP3    H264923  -0.030   3.342  16.921 -0.0240 -1.5052  0.0591
14478TIP3   OH264924   3.186   5.810  12.034  0.4161 -0.2400  0.1056
14478TIP3    H164925   3.144   5.727  12.058 -0.5677 -0.6618 -2.8172
14478TIP3    H264926   3.226   5.793  11.948  0.8628  2.0951 -0.1978
14479TIP3   OH264927   6.760   2.926   1.777  0.0864 -0.3616 -0.0503
14479TIP3    H164928   6.848   2.901   1.747  0.8530  1.0783  0.9671
14479TIP3    H264929   6.759   3.022   1.772 -1.4626 -0.3710 -0.1351
14480TIP3   OH264930   4.115   5.337  11.959  0.0149 -0.1090  0.0527
14480TIP3    H164931   4.190   5.393  11.981  0.5751 -0.9219  0.2254
14480TIP3    H264932   4.143   5.287  11.883  1.1305 -3.2099  2.3658
14481TIP3   OH264933   4.442   4.331  15.334  0.1125 -0.8570 -1.1471
14481TIP3    H164934   4.448   4.420  15.301  1.1750 -1.8680 -3.7803
14481TIP3    H264935   4.383   4.337  15.410 -1.8320  1.6505 -2.7857
14482TIP3   OH264936   5.278   3.027   5.429 -0.2067  0.2158  0.2371
14482TIP3    H164937   5.232   3.060   5.506 -0.4771 -1.3880  0.7677
14482TIP3    H264938   5.283   2.933   5.441  1.1069  0.1007 -0.9802
14483TIP3   OH264939   2.350   6.274   3.628 -0.2998 -0.1582  0.4220
14483TIP3    H164940   2.370   6.217   3.702 -1.3888 -2.9570 -1.3601
14483TIP3    H264941   2.255   6.275   3.623 -0.2964  1.8068  0.3737
14484TIP3   OH264942   4.324   4.930  11.662 -0.0845  0.1374 -0.1884
14484TIP3    H164943   4.269   4.994  11.709  1.7511  1.5476  0.0887
14484TIP3    H264944   4.363   4.877  11.731 -0.0889 -0.0431 -0.3240
14485TIP3   OH264945   4.083   5.820   5.097 -0.4257 -0.4142 -0.3863
14485TIP3    H164946   4.163   5.868   5.121 -0.7463  0.8029 -1.7107
14485TIP3    H264947   4.084   5.818   5.001 -2.6483  0.7595 -0.4578
14486TIP3   OH264948   5.922   3.574   2.126 -0.0541 -0.0830 -0.7457
14486TIP3    H164949   6.002   3.564   2.075  0.2410  0.1435 -0.3256
14486TIP3    H264950   5.856   3.526   2.076  0.7304 -1.7947 -0.2032
14487TIP3   OH264951   3.796   4.324   3.479  0.0583 -0.2989 -0.1818
14487TIP3    H164952   3.873   4.367   3.516 -0.8589  2.9330 -1.8384
14487TIP3    H264953   3.790   4.359   3.390 -1.8827 -2.4410 -0.9266
14488TIP3   OH264954   1.752   0.469   5.107 -0.1631  0.0493 -0.3026
14488TIP3    H164955   1.771   0.549   5.157 -0.0310 -1.3590  2.0063
14488TIP3    H264956   1.658   0.456   5.120  0.0841 -0.9478  0.5903
14489TIP3   OH264957   4.708   1.796  13.879 -0.7063 -0.6518  0.2134
14489TIP3    H164958   4.748   1.808  13.965 -0.1703 -0.9955  0.0143
14489TIP3    H264959   4.637   1.860  13.877  2.1861  2.6953 -0.9094
14490TIP3   OH264960   0.082   2.934   2.093  0.5146 -0.1459  1.1865
14490TIP3    H164961   0.170   2.972   2.097  1.5521 -2.2371 -0.4422
14490TIP3    H264962   0.090   2.862   2.031 -2.8552  0.8759 -0.5654
14491TIP3   OH264963   4.978   1.529   2.847 -0.3467 -0.3371 -0.2732
14491TIP3    H164964   4.964   1.437   2.827 -1.7622 -0.0825 -0.4991
14491TIP3    H264965   4.951   1.538   2.939  0.0605 -0.2065 -0.1653
14492TIP3   OH264966   5.557   3.827   1.393 -0.5063  0.1955  0.6233
14492TIP3    H164967   5.487   3.762   1.407  0.2988 -0.5278  1.3543
14492TIP3    H264968   5.526   3.880   1.320 -1.6864 -0.3173  0.7346
14493TIP3   OH264969   0.616   4.031  16.257  0.3524  0.3328  0.2384
14493TIP3    H164970   0.636   4.122  16.232  0.3948  0.7511  1.7175
14493TIP3    H264971   0.643   4.025  16.348 -2.6914 -0.1972  1.1616
14494TIP3   OH264972   5.761   4.328   2.324  0.8972 -0.0981 -0.8943
14494TIP3    H164973   5.677   4.282   2.331 -0.0313  1.3721 -2.2113
14494TIP3    H264974   5.817   4.268   2.276  0.1615 -0.5136 -1.2489
14495TIP3   OH264975   1.013   6.146  15.758  0.3743 -0.4982 -0.3061
14495TIP3    H164976   0.955   6.197  15.815  0.5807 -1.5514  0.8778
14495TIP3    H264977   0.963   6.068  15.737  1.0332 -1.0191  0.0285
14496TIP3   OH264978   5.971   2.192  14.457  0.3768  0.1977 -0.3875
14496TIP3    H164979   5.970   2.254  14.384  1.4824 -0.2709 -0.8090
14496TIP3    H264980   5.949   2.246  14.534  1.4719  1.1678 -0.7233
14497TIP3   OH264981   4.837   5.850   1.534  0.1599 -0.0014  0.0723
14497TIP3    H164982   4.830   5.943   1.512  0.5591  0.0491  0.1551
14497TIP3    H264983   4.826   5.805   1.450 -0.4956  0.0977  0.1000
14498TIP3   OH264984   5.454   5.618  11.346 -0.3906 -0.4283  0.0509
14498TIP3    H164985   5.469   5.681  11.276  0.4161 -0.6789 -0.0099
14498TIP3    H264986   5.409   5.545  11.303  2.7057 -1.8805 -0.8750
14499TIP3   OH264987   2.819   3.574   0.327 -0.1032 -0.2589 -0.3087
14499TIP3    H164988   2.913   3.554   0.335  0.1249  0.6220 -0.6879
14499TIP3    H264989   2.815   3.669   0.325 -1.0201 -0.2931 -0.2114
14500TIP3   OH264990   1.366   0.828  14.041 -0.1512  0.0270 -0.3297
14500TIP3    H164991   1.323   0.804  13.958 -0.3417  0.3313 -0.3194
14500TIP3    H264992   1.351   0.752  14.097 -0.3800 -0.0135 -0.4425
14501TIP3   OH264993   4.038   2.517  15.263  0.4099 -0.2245 -0.2050
14501TIP3    H164994   4.092   2.525  15.341  2.0939  1.0207 -1.4548
14501TIP3    H264995   4.101   2.509  15.191 -1.1013 -1.3750 -1.4425
14502TIP3   OH264996   3.770   3.239   5.424 -0.5123  0.9418  0.8035
14502TIP3    H164997   3.808   3.162   5.468  0.3552  0.5701 -0.5448
14502TIP3    H264998   3.688   3.207   5.386 -0.4846  0.8532  0.8178
14503TIP3   OH264999   5.281   5.368   5.708 -0.4353 -0.1577 -0.1016
14503TIP3    H165000   5.283   5.461   5.684 -1.3717 -0.0592  0.1739
14503TIP3    H265001   5.289   5.321   5.625  0.3315  0.1689 -0.2131
14504TIP3   OH265002   2.010   3.970   5.604 -0.1682 -0.5554 -0.0059
14504TIP3    H165003   1.916   3.956   5.602 -0.2820  0.0862  0.6726
14504TIP3    H265004   2.043   3.921   5.529 -0.8846 -1.8865  0.5224
14505TIP3   OH265005   2.873   4.289  14.374  0.4286 -0.0504  0.3961
14505TIP3    H165006   2.952   4.276  14.321 -0.2564  0.4416 -0.7627
14505TIP3    H265007   2.906   4.322  14.458  1.5275 -0.9092  0.3105
14506TIP3   OH265008   5.162   6.074  12.958  0.0358 -0.4752  0.1048
14506TIP3    H165009   5.076   6.110  12.935 -0.0015  0.0835  1.1051
14506TIP3    H265010   5.170   5.995  12.904 -1.0580 -0.4615 -0.0890
14507TIP3   OH265011   5.797   2.543   3.739 -0.0757  0.2044  0.3153
14507TIP3    H165012   5.797   2.515   3.647 -1.9074  1.9314 -0.2334
14507TIP3    H265013   5.803   2.638   3.736  0.4866  0.2395  2.0093
14508TIP3   OH265014   2.822   0.737  10.995 -0.4586  0.2556  0.4700
14508TIP3    H165015   2.802   0.646  10.973 -1.6154  0.5606  0.2219
14508TIP3    H265016   2.808   0.785  10.913  1.7893  0.4205  0.1552
14509TIP3   OH265017   4.276   3.072   4.422 -0.5513  0.2840  0.1774
14509TIP3    H165018   4.232   2.996   4.461 -2.1183  1.1084  0.0824
14509TIP3    H265019   4.204   3.129   4.395  0.4495 -0.1439 -3.7141
14510TIP3   OH265020   5.761   2.447  13.552  0.4612  0.0838 -0.0737
14510TIP3    H165021   5.854   2.425  13.539 -0.0274 -1.4644 -1.0162
14510TIP3    H265022   5.762   2.541  13.570  2.2497  0.0266  0.2390
14511TIP3   OH265023   6.694   3.159  11.607 -0.1156  0.0036 -0.0898
14511TIP3    H165024   6.605   3.124  11.618  1.2845 -3.5417  0.4914
14511TIP3    H265025   6.740   3.093  11.556  1.8541  2.4829 -1.6789
14512TIP3   OH265026   5.129   3.687  15.759 -0.3692 -0.0014 -0.6147
14512TIP3    H165027   5.095   3.671  15.671 -0.6123 -2.1865 -0.1470
14512TIP3    H265028   5.052   3.683  15.816  0.4455 -3.9577  0.3241
14513TIP3   OH265029   5.143   5.243  14.885 -0.5646  0.0426 -0.2763
14513TIP3    H165030   5.134   5.328  14.841 -0.0213  1.3117  2.0117
14513TIP3    H265031   5.173   5.265  14.973  2.4865 -2.6912 -0.5693
14514TIP3   OH265032   3.845   6.611   5.480 -0.1242  0.0105 -0.3906
14514TIP3    H165033   3.781   6.557   5.526  0.0928  0.8090  0.8821
14514TIP3    H265034   3.922   6.611   5.536  0.6413 -0.1021 -1.4178
14515TIP3   OH265035   5.723   1.298  14.435  0.0839 -0.6818  0.4134
14515TIP3    H165036   5.778   1.331  14.506 -1.3299  1.3004  0.6382
14515TIP3    H265037   5.707   1.375  14.380 -2.0696 -1.3041  0.1087
14516TIP3   OH265038   3.707   3.219   2.607  0.3122 -0.4113  0.1501
14516TIP3    H165039   3.799   3.222   2.581  1.0402 -3.4892  2.0704
14516TIP3    H265040   3.670   3.147   2.557 -1.1105  0.8404 -0.6509
14517TIP3   OH265041   3.163   0.337   0.828  0.2665 -0.0547 -0.4818
14517TIP3    H165042   3.153   0.387   0.747  0.5469  0.6620 -0.0779
14517TIP3    H265043   3.139   0.247   0.804  0.9581  0.0236 -1.5101
14518TIP3   OH265044   0.777   0.392  10.969 -0.2206  0.4148  0.4095
14518TIP3    H165045   0.840   0.407  11.039  0.6812 -1.6617  0.0770
14518TIP3    H265046   0.697   0.435  10.999  1.4549  3.5660  0.5870
14519TIP3   OH265047   0.835   0.564  13.692  0.0331 -0.5628 -0.4730
14519TIP3    H165048   0.853   0.657  13.705  1.3740 -0.8993  0.0999
14519TIP3    H265049   0.885   0.541  13.614 -0.3982 -0.7933 -0.6854
14520TIP3   OH265050   5.343   5.366   4.799  0.5165 -0.1022  0.1121
14520TIP3    H165051   5.247   5.358   4.799  0.6151 -1.5969  0.6274
14520TIP3    H265052   5.362   5.430   4.867 -0.1121  0.1341  0.0705
14521TIP3   OH265053   1.485   2.634  16.832  0.1099 -0.1821 -0.4801
14521TIP3    H165054   1.491   2.597  16.920  0.9324  0.8833 -0.0698
14521TIP3    H265055   1.391   2.647  16.817  0.0062  0.1588  0.4686
14522TIP3   OH265056   5.322   3.999  11.792 -0.4427  0.5473  0.0959
14522TIP3    H165057   5.231   3.974  11.778 -0.9655  1.2855  2.0313
14522TIP3    H265058   5.318   4.070  11.856  1.4389  1.2168 -0.4989
14523TIP3   OH265059   6.070   0.067   0.933 -0.3833  0.4141  0.1347
14523TIP3    H165060   6.123   0.098   1.006 -1.9329  0.2287  1.3661
14523TIP3    H265061   5.982   0.100   0.952 -1.1240 -0.9647 -0.8492
14524TIP3   OH265062   3.348   3.543   4.061 -0.0839 -0.1238  0.2718
14524TIP3    H165063   3.334   3.589   3.979 -1.4276 -1.3903 -0.2275
14524TIP3    H265064   3.264   3.500   4.079  0.7680 -1.3691  1.3379
14525TIP3   OH265065   4.548   2.784   1.191 -0.7379 -0.1054 -0.0615
14525TIP3    H165066   4.558   2.875   1.166 -3.4302 -0.1575 -1.5042
14525TIP3    H265067   4.565   2.735   1.110 -3.4393 -0.6239 -0.3451
14526TIP3   OH265068   0.490   6.635  16.337 -0.0368  0.1286 -0.2122
14526TIP3    H165069   0.432   6.597  16.403  1.1727 -0.6866  0.3924
14526TIP3    H265070   0.518   6.718  16.375  3.8239 -2.0994  2.1651
14527TIP3   OH265071   5.830   2.691   2.785 -0.2753 -0.4039 -0.6150
14527TIP3    H165072   5.813   2.778   2.750  1.3263 -0.1709 -0.8707
14527TIP3    H265073   5.864   2.642   2.710  1.4288 -0.4349  0.1543
14528TIP3   OH265074   4.311   1.756   3.367 -0.2567  0.1216 -0.2307
14528TIP3    H165075   4.357   1.773   3.284 -1.0845 -0.7344 -0.8747
14528TIP3    H265076   4.294   1.662   3.365  0.1753  0.0060  1.1622
14529TIP3   OH265077   4.544   2.840  12.651  0.6299 -0.1828 -0.0270
14529TIP3    H165078   4.456   2.847  12.614  0.0741  0.6547  1.4125
14529TIP3    H265079   4.568   2.749  12.638 -0.9702 -0.7315  0.7114
14530TIP3   OH265080   1.173   1.123   6.815 -0.4258  0.3200 -0.3226
14530TIP3    H165081   1.103   1.146   6.876  0.3187 -0.0689  0.7025
14530TIP3    H265082   1.240   1.191   6.829  0.2625 -0.4516  0.1732
14531TIP3   OH265083   1.646   4.904   0.374 -0.1488 -0.5614  0.7362
14531TIP3    H165084   1.652   4.844   0.300 -0.9242  0.7100 -0.3938
14531TIP3    H265085   1.557   4.892   0.408 -0.8848  1.1009 -0.5346
14532TIP3   OH265086   4.876   1.202  12.844  0.0806  0.1887  0.2224
14532TIP3    H165087   4.790   1.226  12.877 -0.3748  0.5240 -1.1674
14532TIP3    H265088   4.933   1.275  12.869  0.1293 -0.3438  1.7314
14533TIP3   OH265089   1.632   3.765  15.837 -0.0119 -0.3266  0.0340
14533TIP3    H165090   1.571   3.705  15.879 -0.2376  0.9854  1.6447
14533TIP3    H265091   1.714   3.753  15.884  0.1482  0.0637 -0.1402
14534TIP3   OH265092   2.543   0.075   1.217  0.1816 -0.3129  0.6703
14534TIP3    H165093   2.602  -0.000   1.210  2.5477  1.4366  1.2057
14534TIP3    H265094   2.600   0.148   1.242 -2.3282  1.3069  1.8826
14535TIP3   OH265095   4.522   6.477   3.001  0.4576 -0.1146 -0.4635
14535TIP3    H165096   4.526   6.388   3.036 -1.1069  1.2383  3.4637
14535TIP3    H265097   4.442   6.480   2.950  1.4050 -1.4166 -2.0465
14536TIP3   OH265098   2.835   3.965   6.101  0.0856 -0.1091  0.1598
14536TIP3    H165099   2.872   4.053   6.106  0.0905  0.1437 -3.1566
14536TIP3    H265100   2.782   3.957   6.180  1.3145  2.2666  1.2940
14537TIP3   OH265101   5.742   4.015   4.494 -0.2053  0.1108  0.0311
14537TIP3    H165102   5.774   4.007   4.405  0.2374  0.5850  0.1478
14537TIP3    H265103   5.813   4.058   4.542 -0.6102  0.2545  0.5106
14538TIP3   OH265104   3.670   5.934   3.723 -0.1991  0.1229 -0.4598
14538TIP3    H165105   3.681   5.989   3.645  1.2924  2.7059  1.5127
14538TIP3    H265106   3.753   5.942   3.770 -1.0521 -1.4614  1.3800
14539TIP3   OH265107   0.197   6.678  15.819  0.0246 -0.7983 -0.9472
14539TIP3    H165108   0.154   6.724  15.890 -0.7874 -2.0905 -0.5770
14539TIP3    H265109   0.281   6.722  15.809 -0.5974  0.5301 -0.3974
14540TIP3   OH265110   2.271   1.058   2.252 -0.0972 -0.0983 -0.3775
14540TIP3    H165111   2.240   1.101   2.331 -0.9387 -0.2517 -0.6203
14540TIP3    H265112   2.205   1.079   2.186  0.9207  0.5642 -1.2019
14541TIP3   OH265113   0.993   3.567   6.023  0.1744  0.5080 -0.4519
14541TIP3    H165114   1.075   3.586   5.977 -0.0340 -0.9606 -1.4759
14541TIP3    H265115   0.927   3.621   5.980  0.3868  0.8245 -0.3819
14542TIP3   OH265116   3.764   1.862  11.875 -0.2304  0.3284 -0.0615
14542TIP3    H165117   3.774   1.937  11.816 -0.6247  0.0220 -0.5190
14542TIP3    H265118   3.688   1.884  11.929 -1.2585 -0.3761 -1.1754
14543TIP3   OH265119   3.740   1.114   0.156 -0.0934  0.2959  0.2079
14543TIP3    H165120   3.730   1.206   0.182 -1.6463  0.2263 -0.1189
14543TIP3    H265121   3.781   1.118   0.070  0.2453  0.6605  0.3805
14544TIP3   OH265122   3.760   4.023   3.530 -0.1858  0.0453 -0.1887
14544TIP3    H165123   3.829   4.025   3.597  1.2550 -1.5065 -1.5713
14544TIP3    H265124   3.740   4.115   3.513  2.6625  0.5821 -0.8813
14545TIP3   OH265125   0.117   1.777   3.291  0.0032  0.5362 -0.4645
14545TIP3    H165126   0.159   1.863   3.294  2.5822 -0.5524 -3.4276
14545TIP3    H265127   0.052   1.785   3.221 -0.3063  0.2605 -0.2133
14546TIP3   OH265128   0.769   6.647  13.960  0.0234 -0.1006 -0.4096
14546TIP3    H165129   0.860   6.624  13.944  0.3687 -0.2515  1.6334
14546TIP3    H265130   0.723   6.563  13.965  0.0184 -0.0844 -0.1400
14547TIP3   OH265131   6.806   5.195  15.594  0.0095  0.2930  0.5114
14547TIP3    H165132   6.826   5.103  15.612 -1.8372 -0.5623 -1.6012
14547TIP3    H265133   6.730   5.214  15.649 -1.2861 -0.2680 -1.0485
14548TIP3   OH265134   0.144   5.893   1.428 -0.5533 -0.0348  0.1639
14548TIP3    H165135   0.119   5.822   1.487  0.3743  0.1890  0.8338
14548TIP3    H265136   0.131   5.972   1.480 -0.8497  0.2353 -0.3231
14549TIP3   OH265137   3.005   4.565  15.953  0.2923 -0.2559 -0.8504
14549TIP3    H165138   3.088   4.526  15.979 -0.1546 -0.4687  0.3078
14549TIP3    H265139   3.017   4.659  15.969  0.1237 -0.3508 -0.1566
14550TIP3   OH265140   0.324   4.713  14.814 -0.2933 -0.6107  0.2926
14550TIP3    H165141   0.319   4.808  14.819 -2.2607 -0.7775  2.4173
14550TIP3    H265142   0.307   4.692  14.722  2.0880  1.1440 -0.6027
14551TIP3   OH265143   2.664   4.453  14.242 -0.4224 -0.0005 -0.1351
14551TIP3    H165144   2.699   4.373  14.281  1.2682  0.4264 -0.7638
14551TIP3    H265145   2.608   4.421  14.171 -1.1910 -0.6744  0.7647
14552TIP3   OH265146   5.627   3.530   3.242 -0.0637  0.1097 -0.1765
14552TIP3    H165147   5.698   3.476   3.278 -1.7647 -0.2530  2.7336
14552TIP3    H265148   5.666   3.570   3.164  3.3176 -0.1595  1.2574
14553TIP3   OH265149   0.086   0.554   0.500  0.3530  0.7609  0.1833
14553TIP3    H165150   0.063   0.647   0.497 -0.1928  0.6216 -0.0807
14553TIP3    H265151   0.006   0.509   0.471  0.8447  0.2401 -0.3514
14554TIP3   OH265152   3.347   5.493  17.251 -0.2370  0.3231 -0.2681
14554TIP3    H165153   3.426   5.533  17.214  0.8162  1.1290  2.7394
14554TIP3    H265154   3.377   5.451  17.331 -2.5755 -0.8205  0.0349
14555TIP3   OH265155   2.287   0.318  16.469 -0.4774 -0.3916 -0.2177
14555TIP3    H165156   2.270   0.238  16.419  0.6398 -0.3858 -0.6289
14555TIP3    H265157   2.372   0.349  16.437 -1.4815  1.6722 -0.9923
14556TIP3   OH265158   0.919   2.373   3.949  0.5092 -0.4438 -0.1648
14556TIP3    H165159   0.951   2.463   3.958 -1.6730  0.2839  0.4867
14556TIP3    H265160   0.984   2.320   3.997  0.2057  1.1179  2.0478
14557TIP3   OH265161   0.891   0.405   4.327  0.7483 -0.0336 -0.2211
14557TIP3    H165162   0.953   0.456   4.274  1.1190  2.0065  2.0842
14557TIP3    H265163   0.812   0.402   4.274  1.3397  1.3584 -1.2232
14558TIP3   OH265164   5.156   4.410  16.516 -0.3841  0.5523 -0.1053
14558TIP3    H165165   5.135   4.502  16.532 -0.6748  1.2196 -3.7817
14558TIP3    H265166   5.085   4.380  16.459 -0.5572 -2.1032  1.4648
14559TIP3   OH265167   5.850   4.446   4.533 -0.1815 -0.2401 -0.2529
14559TIP3    H165168   5.926   4.395   4.506  1.5207  1.8415  0.4530
14559TIP3    H265169   5.791   4.443   4.458  0.7735 -1.5353 -0.9631
14560TIP3   OH265170   5.947   0.242   2.209 -0.5771 -0.2093 -0.4625
14560TIP3    H165171   5.959   0.315   2.269  0.2034 -1.1841  0.5770
14560TIP3    H265172   6.034   0.225   2.173 -0.8324 -0.3657 -1.0183
14561TIP3   OH265173   4.056   6.094   5.434  0.5882 -0.6879 -0.1685
14561TIP3    H165174   4.058   6.115   5.340  2.1816  0.2745  0.0611
14561TIP3    H265175   4.147   6.071   5.455  0.2272 -0.9610  1.1360
14562TIP3   OH265176   2.610   0.426  11.642 -0.8035 -0.3362  0.1922
14562TIP3    H165177   2.636   0.334  11.645  0.5862  0.0685  0.9593
14562TIP3    H265178   2.692   0.475  11.653 -2.1024  0.9712  5.1356
14563TIP3   OH265179   4.956   5.147   3.270 -0.3756  0.0731  0.6647
14563TIP3    H165180   4.946   5.235   3.307 -0.4223  0.3506  0.0136
14563TIP3    H265181   4.980   5.092   3.344  1.5797  0.9947  0.7595
14564TIP3   OH265182   3.030   5.984  15.639  0.1595 -0.2304 -0.2619
14564TIP3    H165183   3.026   5.913  15.703 -0.6848  0.7617  0.8266
14564TIP3    H265184   3.119   5.981  15.605  1.0611  0.0607  1.9761
14565TIP3   OH265185   6.363   6.767  16.211 -0.6117  0.2472 -0.1425
14565TIP3    H165186   6.363   6.706  16.138 -0.5894  0.5032 -0.3573
14565TIP3    H265187   6.270   6.780  16.232 -0.6071 -0.0464  0.0596
14566TIP3   OH265188   1.062   2.016   5.664  0.5803  0.0714  0.7571
14566TIP3    H165189   1.065   2.014   5.760 -1.5041 -1.6342  0.8230
14566TIP3    H265190   1.114   1.941   5.637  0.8062  0.2986  0.5634
14567TIP3   OH265191   0.272   5.528   2.373  0.6101 -0.6545 -0.3191
14567TIP3    H165192   0.259   5.537   2.279 -0.3194 -4.0190 -0.5797
14567TIP3    H265193   0.184   5.530   2.410  0.8390 -1.3998  0.2696
14568TIP3   OH265194   4.641   6.351   0.424 -0.3454  0.0118 -0.1131
14568TIP3    H165195   4.659   6.445   0.417  0.8909 -0.1443  0.8989
14568TIP3    H265196   4.601   6.341   0.510 -1.0507 -0.3137 -0.4718
14569TIP3   OH265197   0.664   6.317  13.630  0.4226 -0.3064  0.4075
14569TIP3    H165198   0.658   6.401  13.586 -0.1197 -0.7589 -0.4088
14569TIP3    H265199   0.601   6.322  13.702 -0.9111 -0.6445 -0.7171
14570TIP3   OH265200   4.604   3.622   2.766  0.5394  0.0864 -0.3611
14570TIP3    H165201   4.537   3.583   2.823  2.3617 -1.9489  0.4565
14570TIP3    H265202   4.559   3.695   2.724 -1.3605  0.5905  2.3801
14571TIP3   OH265203   6.714   5.469   4.898 -0.4309  0.3971 -0.1671
14571TIP3    H165204   6.693   5.395   4.955  0.7250  2.3849  2.9966
14571TIP3    H265205   6.807   5.459   4.878 -0.7572 -0.1113 -1.4649
14572TIP3   OH265206   0.408   1.636   3.500 -0.1858  0.1859 -0.2320
14572TIP3    H165207   0.454   1.720   3.507  3.2451 -1.6395  0.4599
14572TIP3    H265208   0.391   1.610   3.591  0.7102 -0.8348 -0.3429
14573TIP3   OH265209   2.644   3.233  16.395 -0.4170 -0.1965 -0.4995
14573TIP3    H165210   2.639   3.194  16.307 -0.0101  1.7292 -1.4114
14573TIP3    H265211   2.679   3.164  16.450  2.8851 -0.3245 -2.6293
14574TIP3   OH265212   0.616   4.899   3.565  0.5954 -0.2085 -0.1940
14574TIP3    H165213   0.651   4.943   3.487 -3.0441  1.7793 -0.8330
14574TIP3    H265214   0.661   4.940   3.638  1.6950  0.2402 -1.1080
14575TIP3   OH265215   3.472   5.640   1.732  0.4051 -0.0555 -0.2208
14575TIP3    H165216   3.406   5.695   1.774  1.2289  1.4577 -0.8879
14575TIP3    H265217   3.556   5.677   1.760  0.9746 -1.0702 -0.5516
14576TIP3   OH265218   2.766   0.039   3.382 -0.1349  0.3695 -0.5078
14576TIP3    H165219   2.739  -0.052   3.392  0.1598  0.4722  1.3458
14576TIP3    H265220   2.709   0.074   3.313 -1.1823 -0.8254 -0.2479
14577TIP3   OH265221   1.482   3.588  15.964 -0.6100  0.5147  0.0962
14577TIP3    H165222   1.484   3.500  15.926 -2.0917 -0.2896  1.8112
14577TIP3    H265223   1.397   3.593  16.008  0.5320  1.8797  2.1822
14578TIP3   OH265224   2.606   2.941  17.126 -0.0713 -0.6495  0.3622
14578TIP3    H165225   2.527   2.968  17.080  0.5966  4.3522  1.7845
14578TIP3    H265226   2.582   2.945  17.219  1.5562  0.1287  0.7765
14579TIP3   OH265227   3.750   3.032   1.826  0.6883  0.1289  0.4387
14579TIP3    H165228   3.704   3.114   1.847  0.3074  0.1624 -0.5059
14579TIP3    H265229   3.680   2.968   1.817  0.8261  0.1564 -0.9132
14580TIP3   OH265230   4.751   4.752  14.136  0.2390  0.1397  0.1861
14580TIP3    H165231   4.780   4.709  14.056  0.5516 -0.9006  0.8555
14580TIP3    H265232   4.667   4.791  14.113  0.7095  0.5461 -0.8827
14581TIP3   OH265233   1.070   3.952   0.681 -0.9356 -0.3568  0.2688
14581TIP3    H165234   1.002   3.907   0.732 -1.1578 -0.3170  0.0103
14581TIP3    H265235   1.142   3.964   0.743 -0.9381 -0.9240  0.3829
14582TIP3   OH265236   3.103   2.612   1.321  0.1995 -0.1438 -0.5214
14582TIP3    H165237   3.196   2.606   1.343 -0.2025 -1.4615  0.8735
14582TIP3    H265238   3.102   2.636   1.228  1.9241 -0.4853 -0.6476
14583TIP3   OH265239   1.164   4.432  14.668  0.4885  0.5098 -0.0215
14583TIP3    H165240   1.249   4.429  14.712  0.1017  0.7434  0.7465
14583TIP3    H265241   1.104   4.465  14.735 -0.1070  0.8451 -0.7198
14584TIP3   OH265242   2.036   2.446   3.642 -0.0224  0.0166 -0.2195
14584TIP3    H165243   2.023   2.371   3.583  0.3424  0.2614 -0.6112
14584TIP3    H265244   2.107   2.419   3.700 -0.8175 -0.4809  0.5370
14585TIP3   OH265245   0.033   4.939  12.262  0.1946 -0.0985  0.7459
14585TIP3    H165246   0.091   4.938  12.337  2.0943 -1.2513 -0.6976
14585TIP3    H265247   0.074   5.000  12.200  0.0018 -1.0973 -0.3821
14586TIP3   OH265248   5.634   5.191  14.652  0.7600  0.0462  0.1108
14586TIP3    H165249   5.601   5.277  14.624 -0.5244 -0.3549  0.3915
14586TIP3    H265250   5.560   5.132  14.642  0.7031 -0.4289  2.9239
14587TIP3   OH265251   4.015   6.185   6.113 -0.0004  0.0761 -0.0128
14587TIP3    H165252   4.002   6.280   6.104  0.6340  0.2426  0.7827
14587TIP3    H265253   4.102   6.169   6.076 -0.9435 -0.5050 -2.0198
14588TIP3   OH265254   6.234   0.083   1.842 -0.6112 -0.8525 -1.0044
14588TIP3    H165255   6.225   0.165   1.793 -0.3076 -0.3408 -0.2196
14588TIP3    H265256   6.197   0.016   1.784  0.1197 -0.3244 -2.1054
14589TIP3   OH265257   5.250   3.329  13.062 -0.6534  0.4439 -0.1874
14589TIP3    H165258   5.233   3.423  13.062  0.7199  0.7085  0.5682
14589TIP3    H265259   5.273   3.308  12.971  3.2537  1.6772  0.4141
14590TIP3   OH265260   1.813   0.032  13.255  0.1759 -0.1431  0.3106
14590TIP3    H165261   1.861   0.025  13.173  0.6695 -0.2373  0.6050
14590TIP3    H265262   1.823   0.123  13.281  0.2639 -0.1804  0.4102
14591TIP3   OH265263   6.304   1.165   1.163 -0.2442  0.2009 -0.6121
14591TIP3    H165264   6.230   1.109   1.136 -0.0812  0.6947 -2.1068
14591TIP3    H265265   6.355   1.109   1.222 -0.6742 -0.8645 -1.2232
14592TIP3   OH265266   2.624   1.469  16.673 -0.0641 -0.0602  0.4708
14592TIP3    H165267   2.629   1.377  16.644 -0.7301  0.4588 -1.3612
14592TIP3    H265268   2.584   1.464  16.759  0.0244 -1.5098  0.4490
14593TIP3   OH265269   5.459   0.544  15.369  0.0029 -0.3986 -0.4413
14593TIP3    H165270   5.380   0.578  15.411 -0.6706 -0.8827 -1.3111
14593TIP3    H265271   5.451   0.449  15.376  1.1745 -0.4403  0.6678
14594TIP3   OH265272   1.897   6.070  11.812  0.0834  0.2464  0.8348
14594TIP3    H165273   1.813   6.067  11.767  0.1695 -1.0846  0.7256
14594TIP3    H265274   1.916   5.978  11.834  1.6525  0.4841  0.5619
14595TIP3   OH265275   4.183   2.915  12.235 -0.3033  0.0458  0.6210
14595TIP3    H165276   4.139   2.892  12.317  0.9531 -1.4026  0.9045
14595TIP3    H265277   4.119   2.894  12.167  0.0127 -2.3603  1.0128
14596TIP3   OH265278   3.078   3.522  11.092 -0.6018 -0.4701  0.2232
14596TIP3    H165279   3.060   3.585  11.022  1.1013 -1.7518 -1.4309
14596TIP3    H265280   3.005   3.460  11.088 -1.0473  0.0536  0.2733
14597TIP3   OH265281   3.524   5.716  11.097 -0.0270 -0.3192 -0.8715
14597TIP3    H165282   3.539   5.717  11.003  2.6605 -0.1579 -0.4937
14597TIP3    H265283   3.553   5.629  11.125  0.7018  0.1875 -0.0010
14598TIP3   OH265284   5.028   2.154  13.170  0.1162  0.0653  0.2349
14598TIP3    H165285   4.985   2.239  13.155  3.2932  1.6094 -0.6042
14598TIP3    H265286   5.011   2.135  13.262 -1.4359  1.1310  0.1960
14599TIP3   OH265287   0.450   0.743  11.230  0.1913 -0.8639  0.0246
14599TIP3    H165288   0.456   0.649  11.216 -1.0958 -0.7024 -1.8575
14599TIP3    H265289   0.387   0.773  11.165  0.9287  1.3711  0.2819
14600TIP3   OH265290   0.351   6.027  11.450  0.6225  0.6201 -0.1430
14600TIP3    H165291   0.352   5.999  11.358 -0.5259 -1.6242  0.4983
14600TIP3    H265292   0.371   6.121  11.446 -1.7430  1.1008 -2.8931
14601TIP3   OH265293   6.269   4.164   4.127 -0.1902 -0.1573 -0.3154
14601TIP3    H165294   6.291   4.110   4.052 -0.4790 -0.4319 -0.2035
14601TIP3    H265295   6.333   4.235   4.126 -1.4382  0.9901 -2.0235
14602TIP3   OH265296   4.011   0.481   2.165  0.1013 -0.2331 -0.0765
14602TIP3    H165297   4.087   0.444   2.209  1.0127  1.4022 -0.2278
14602TIP3    H265298   4.005   0.570   2.200 -1.6267 -0.2730 -0.2194
14603TIP3   OH265299   3.373   1.232  15.285 -0.2930  0.1587 -0.0496
14603TIP3    H165300   3.365   1.165  15.354 -1.2468 -0.4708 -0.7649
14603TIP3    H265301   3.450   1.205  15.235 -1.0226 -0.7428 -0.6958
14604TIP3   OH265302   1.486   1.062  15.853 -0.2512  0.0083  0.0038
14604TIP3    H165303   1.543   1.058  15.930  0.5115 -2.0519 -0.6333
14604TIP3    H265304   1.537   1.110  15.788  0.6463 -1.5653 -0.4628
14605TIP3   OH265305   2.059   0.831   0.266  0.2153 -0.2014  0.2102
14605TIP3    H165306   1.997   0.763   0.293  2.8264 -1.3579  3.6354
14605TIP3    H265307   2.073   0.884   0.345  1.0257  2.1247 -1.4275
14606TIP3   OH265308   5.254   0.378  11.354 -0.6539 -0.1097 -0.2452
14606TIP3    H165309   5.338   0.356  11.314 -0.5370 -0.1290  0.0084
14606TIP3    H265310   5.256   0.335  11.439 -0.4332  0.8360  0.2430
14607TIP3   OH265311   5.378   5.952  16.053 -0.2701 -0.1709 -0.5586
14607TIP3    H165312   5.362   6.045  16.038  0.0637 -0.1906 -1.0359
14607TIP3    H265313   5.298   5.909  16.022 -0.7054  0.0098  0.3129
14608TIP3   OH265314   0.837   3.454   6.651  0.3072  0.0718 -0.3080
14608TIP3    H165315   0.777   3.471   6.578  0.3620  2.0923  0.0936
14608TIP3    H265316   0.787   3.398   6.710 -0.4116 -0.0201 -0.9974
14609TIP3   OH265317   4.808   2.967   4.405  0.6468  0.4728  0.3226
14609TIP3    H165318   4.742   2.922   4.458 -1.1558  1.2819 -1.1591
14609TIP3    H265319   4.844   2.898   4.348  1.9077 -0.1977  1.8884
14610TIP3   OH265320   2.436   0.649  14.371 -0.1133  0.0071 -0.0022
14610TIP3    H165321   2.345   0.624  14.383  0.6136 -2.3144  0.8853
14610TIP3    H265322   2.455   0.707  14.445  0.0611 -2.2258  1.7522
14611TIP3   OH265323   4.228   3.056   4.940  0.2887  0.1960  0.3718
14611TIP3    H165324   4.133   3.067   4.939  0.2771  0.1065  0.4665
14611TIP3    H265325   4.256   3.085   4.854  0.1914  0.3708  0.3996
14612TIP3   OH265326   4.387   1.032  12.936 -0.3485  0.3195 -0.4274
14612TIP3    H165327   4.352   1.113  12.974  1.5859  1.2490 -0.5587
14612TIP3    H265328   4.371   0.966  13.003 -3.5523  0.3938 -1.0373
14613TIP3   OH265329   1.802   5.847   0.494 -0.3760  0.5802  0.4166
14613TIP3    H165330   1.830   5.888   0.412 -0.4035 -0.2172  0.0037
14613TIP3    H265331   1.838   5.904   0.562 -1.3689  1.9151 -0.1426
14614TIP3   OH265332   6.454   6.321  11.133  0.3627 -0.3170 -0.1319
14614TIP3    H165333   6.464   6.383  11.206  1.9063  0.2205 -0.7846
14614TIP3    H265334   6.442   6.236  11.175 -1.4424  0.3643  0.7701
14615TIP3   OH265335   5.774   3.962   6.210 -0.2980 -0.2140  0.3009
14615TIP3    H165336   5.770   3.896   6.141  0.4420 -1.4588  1.4190
14615TIP3    H265337   5.805   3.914   6.287  4.1672  2.1562  0.1872
14616TIP3   OH265338   5.608   1.495  14.210 -0.0237 -0.5139 -0.3371
14616TIP3    H165339   5.522   1.471  14.174 -0.8921  2.0063 -0.0507
14616TIP3    H265340   5.664   1.505  14.133 -0.3589 -0.8169 -0.6217
14617TIP3   OH265341   3.780   2.205  15.993  0.1984  0.0670  1.0293
14617TIP3    H165342   3.781   2.182  15.900  0.6524 -1.2033  1.3408
14617TIP3    H265343   3.815   2.294  15.996 -0.3693  0.3319 -0.0739
14618TIP3   OH265344   2.332   0.102  15.690 -0.4134  0.7695 -0.4694
14618TIP3    H165345   2.308   0.036  15.624 -2.6867  1.8425 -0.7693
14618TIP3    H265346   2.248   0.134  15.724  0.6923  2.0105  1.1778
14619TIP3   OH265347   4.390   4.118   3.544  0.0256 -0.4905  0.2693
14619TIP3    H165348   4.308   4.091   3.585  0.5053 -1.2662  0.7487
14619TIP3    H265349   4.364   4.173   3.470 -0.8344  1.6223  2.0952
14620TIP3   OH265350   1.983   6.192   2.625  0.5547 -0.3786 -0.5227
14620TIP3    H165351   2.045   6.203   2.553  0.8494  0.4184 -0.1475
14620TIP3    H265352   1.897   6.201   2.585  0.6948 -0.8287 -0.9295
14621TIP3   OH265353   0.291   2.058  14.933  0.0012  0.1485  0.9543
14621TIP3    H165354   0.257   2.099  15.012  0.5615 -0.3128  1.4464
14621TIP3    H265355   0.234   2.089  14.862 -0.7910  0.1909  1.6059
14622TIP3   OH265356   6.135   5.685   1.914  0.0786  0.2737  0.0653
14622TIP3    H165357   6.120   5.653   1.825  0.8324  0.5638 -0.1651
14622TIP3    H265358   6.174   5.772   1.903  3.4404 -1.0740  0.6133
14623TIP3   OH265359   5.049   6.508   0.041 -0.3834 -0.0535  0.4493
14623TIP3    H165360   5.083   6.459   0.115  1.0623 -0.9937 -0.8177
14623TIP3    H265361   4.954   6.501   0.050 -0.2132 -2.8299  0.4872
14624TIP3   OH265362   0.430   4.689   3.097  0.2253  0.1211 -0.1315
14624TIP3    H165363   0.509   4.686   3.150 -0.5174  2.2460  1.1584
14624TIP3    H265364   0.439   4.767   3.043 -0.2861 -0.4898 -1.1212
14625TIP3   OH265365   5.826   2.461  15.626 -0.2602 -0.3791 -0.0006
14625TIP3    H165366   5.856   2.494  15.542 -1.7439  0.0318 -0.3772
14625TIP3    H265367   5.840   2.533  15.687 -0.9179 -0.0199 -0.2714
14626TIP3   OH265368   4.179   0.674   2.760  0.5988 -0.0531 -0.0958
14626TIP3    H165369   4.132   0.603   2.718 -0.8410  1.7276 -1.5423
14626TIP3    H265370   4.218   0.724   2.688  0.8856  1.1173  0.8522
14627TIP3   OH265371   5.140   4.237   3.963 -0.4482 -0.1974 -0.5562
14627TIP3    H165372   5.170   4.147   3.977 -0.8298 -0.1146  0.9814
14627TIP3    H265373   5.122   4.243   3.870 -0.1744 -1.6416 -0.7112
14628TIP3   OH265374   6.004   0.344   4.553  0.0381  0.1220 -0.1660
14628TIP3    H165375   6.036   0.431   4.578 -0.4029  0.5060 -0.9224
14628TIP3    H265376   5.968   0.356   4.465 -2.2991 -0.2808  0.6981
14629TIP3   OH265377   3.856   4.927   1.499 -0.1034 -0.4859 -0.3389
14629TIP3    H165378   3.778   4.942   1.447 -0.2466 -0.7468 -0.1985
14629TIP3    H265379   3.899   5.013   1.504 -1.7175  0.2393  1.7367
14630TIP3   OH265380   5.623   1.679   5.510  0.2774  0.1785  0.6623
14630TIP3    H165381   5.707   1.675   5.556  0.3178 -0.7801  0.5228
14630TIP3    H265382   5.560   1.704   5.578  0.6071  0.4895  0.8568
14631TIP3   OH265383   6.104   0.548  12.425  0.1650 -0.2386  0.7169
14631TIP3    H165384   6.074   0.458  12.440 -0.0243 -0.0987  1.2040
14631TIP3    H265385   6.062   0.573  12.343 -0.1573 -0.4362  0.8151
14632TIP3   OH265386   2.859   2.746  17.166 -0.0511 -0.3428  0.0579
14632TIP3    H165387   2.927   2.792  17.214 -0.3203  0.4416 -0.3134
14632TIP3    H265388   2.777   2.785  17.196 -0.2876 -0.6754 -0.1494
14633TIP3   OH265389   2.506   0.370  15.713  0.3963  0.0332 -0.4781
14633TIP3    H165390   2.523   0.361  15.807  1.4995  1.9910 -0.4605
14633TIP3    H265391   2.443   0.301  15.693  1.8488 -1.8578  1.2500
14634TIP3   OH265392   5.816   3.585   2.575  0.3309 -0.3764 -0.2828
14634TIP3    H165393   5.725   3.556   2.570  0.6770 -1.5611 -0.0236
14634TIP3    H265394   5.843   3.596   2.484 -0.1679  0.2962 -0.3520
14635TIP3   OH265395   3.860   5.255   3.695  0.1686  0.1979 -0.3429
14635TIP3    H165396   3.877   5.348   3.677  0.2774  0.4980  1.2683
14635TIP3    H265397   3.934   5.227   3.748  0.0278 -0.7691 -0.6507
14636TIP3   OH265398   3.340   6.361  15.638  0.4115  0.3046  0.2079
14636TIP3    H165399   3.278   6.290  15.651 -0.3586  1.0313  0.5346
14636TIP3    H265400   3.395   6.332  15.565  0.4784 -0.8729  0.7237
14637TIP3   OH265401   6.303   0.688  10.926  0.0002 -0.0066 -0.3812
14637TIP3    H165402   6.211   0.711  10.914  0.4094  1.1633 -1.3807
14637TIP3    H265403   6.341   0.765  10.968  0.5217 -0.5143  0.0840
14638TIP3   OH265404   2.407   5.318  11.454  0.0768  0.3375 -0.1827
14638TIP3    H165405   2.401   5.224  11.472 -2.0187  0.8317  1.8752
14638TIP3    H265406   2.410   5.324  11.359 -2.7054 -1.6739 -0.4344
14639TIP3   OH265407   5.461   2.202  16.921  0.0941 -0.4095 -0.6520
14639TIP3    H165408   5.484   2.293  16.902  1.0162 -0.0368  1.9785
14639TIP3    H265409   5.511   2.151  16.857  0.6210  0.8908 -1.2965
14640TIP3   OH265410   5.018   0.803  12.160  0.0974  0.0182  0.4068
14640TIP3    H165411   5.079   0.748  12.112  0.1793 -1.5921  2.3084
14640TIP3    H265412   5.011   0.883  12.107  1.6570 -0.9160 -1.2558
14641TIP3   OH265413   3.293   5.722  13.770 -0.0654  0.1062 -0.2782
14641TIP3    H165414   3.351   5.782  13.723  0.5107  1.5861  2.2088
14641TIP3    H265415   3.322   5.729  13.861 -2.0696 -1.5987  0.5092
14642TIP3   OH265416   3.053   3.755  14.328 -0.1765 -0.1134 -0.1246
14642TIP3    H165417   3.127   3.719  14.279 -2.2654 -3.2652 -1.0914
14642TIP3    H265418   3.002   3.804  14.262  0.4135  1.0996  0.3024
14643TIP3   OH265419   0.009   4.369   2.709  0.4294  0.0591 -0.5817
14643TIP3    H165420   0.050   4.323   2.782 -1.2340 -0.9571 -0.2491
14643TIP3    H265421   0.069   4.356   2.636  1.1776 -0.5748  0.1349
14644TIP3   OH265422   1.004   6.171  16.344 -0.3024  0.1893 -0.5305
14644TIP3    H165423   0.989   6.191  16.436  2.8445  0.4505 -0.0013
14644TIP3    H265424   0.971   6.248  16.297  1.1531  1.6019  0.6683
14645TIP3   OH265425   2.317   0.431   1.488  0.1486  0.2067  0.2138
14645TIP3    H165426   2.390   0.407   1.431 -1.4727 -1.0804 -1.3687
14645TIP3    H265427   2.290   0.348   1.528 -0.1214  0.7623  1.2001
14646TIP3   OH265428   1.551   1.248   1.921  0.0222 -0.2418 -0.1204
14646TIP3    H165429   1.632   1.244   1.972  1.1656 -1.6524 -1.9880
14646TIP3    H265430   1.481   1.238   1.986  1.3392  0.5062  1.4535
14647TIP3   OH265431   5.580   4.337   0.003 -0.1304 -0.2144  0.6170
14647TIP3    H165432   5.572   4.242   0.012  1.5510 -0.6459 -1.8967
14647TIP3    H265433   5.514   4.372   0.062 -0.8249 -2.9489  1.5422
14648TIP3   OH265434   6.141   2.397  15.727 -0.7566 -0.0865  0.5659
14648TIP3    H165435   6.119   2.485  15.757  1.7494  0.6190  0.4327
14648TIP3    H265436   6.189   2.411  15.646 -1.3625 -1.6415 -0.0665
14649TIP3   OH265437   5.070   5.622   5.868 -0.2627 -0.1878  0.5531
14649TIP3    H165438   4.997   5.612   5.806  0.2370 -0.0267 -0.0688
14649TIP3    H265439   5.033   5.598   5.953 -1.1540  0.3042  0.3110
14650TIP3   OH265440   1.547   3.785  12.165 -0.5035 -0.0377  0.3295
14650TIP3    H165441   1.459   3.817  12.145 -0.0129  1.5736  0.7210
14650TIP3    H265442   1.556   3.706  12.112 -1.5030  0.8045 -1.1320
14651TIP3   OH265443   4.698   6.432   2.754 -0.4325  0.3424 -0.3181
14651TIP3    H165444   4.621   6.418   2.699  0.1847 -0.7118 -0.9304
14651TIP3    H265445   4.662   6.450   2.841 -1.3634 -0.6300 -0.4832
14652TIP3   OH265446   1.548   5.267  10.535  0.0480  0.2911  0.1731
14652TIP3    H165447   1.551   5.332  10.464 -2.6367 -1.3614 -1.5504
14652TIP3    H265448   1.454   5.258  10.555  0.4910 -2.0326  1.3505
14653TIP3   OH265449   1.304   6.049   3.376  0.6283  0.7220  0.3895
14653TIP3    H165450   1.318   6.006   3.292 -0.0942  2.1952 -0.5173
14653TIP3    H265451   1.284   5.978   3.436 -0.7934 -0.2055 -1.1289
14654TIP3   OH265452   1.789   6.738   2.798  0.6439 -0.6026 -0.2470
14654TIP3    H165453   1.720   6.800   2.774  0.7298  0.0253  1.1153
14654TIP3    H265454   1.824   6.708   2.714 -0.5469 -0.1000 -0.9373
14655TIP3   OH265455   2.941   2.612  15.720  0.0621 -0.1352  1.0480
14655TIP3    H165456   2.852   2.582  15.739 -0.0663 -0.1250  0.4708
14655TIP3    H265457   2.978   2.544  15.664  0.5765 -0.3623  1.6550
14656TIP3   OH265458   0.784   3.840  16.469  0.2215  0.4433 -0.1635
14656TIP3    H165459   0.874   3.814  16.490 -0.2036 -0.2331  0.8360
14656TIP3    H265460   0.740   3.758  16.447  0.0120  0.8523 -1.3410
14657TIP3   OH265461   0.226   4.701   0.584  0.1624  0.2012 -0.3914
14657TIP3    H165462   0.242   4.673   0.494  0.7769 -0.8022  0.0180
14657TIP3    H265463   0.260   4.629   0.637  2.4465  2.0384  0.7220
14658TIP3   OH265464   4.128   0.764  15.370  0.2682  0.2934 -0.0774
14658TIP3    H165465   4.100   0.674  15.351 -0.7436  1.0552 -2.3710
14658TIP3    H265466   4.047   0.812  15.383  0.7950  0.9559  0.7380
14659TIP3   OH265467   5.085   4.157   4.300 -0.2641  0.1930 -0.0422
14659TIP3    H165468   5.129   4.241   4.286  0.7314 -0.5759 -1.7109
14659TIP3    H265469   5.002   4.165   4.255 -0.5029  0.5599  0.4659
14660TIP3   OH265470   3.253   2.009   2.441 -0.3607  0.2663  0.4667
14660TIP3    H165471   3.248   2.042   2.531  0.2921 -0.9652  0.9756
14660TIP3    H265472   3.263   1.914   2.451 -0.0084  0.1475 -0.9014
14661TIP3   OH265473   0.291   2.709   6.716 -0.0290  0.5544 -0.2781
14661TIP3    H165474   0.265   2.686   6.628 -0.1186 -0.6753  0.0630
14661TIP3    H265475   0.222   2.674   6.772  1.8134 -1.9294  0.5539
14662TIP3   OH265476   0.889   1.597   5.885  0.0240  0.0961 -0.5397
14662TIP3    H165477   0.840   1.632   5.810  0.1084  1.5189  0.0422
14662TIP3    H265478   0.960   1.546   5.847  0.1391  0.9188 -1.4302
14663TIP3   OH265479   4.158   5.502  10.518 -0.3617 -0.6110  0.0374
14663TIP3    H165480   4.085   5.478  10.575  1.1265 -1.4505  1.6661
14663TIP3    H265481   4.119   5.553  10.447 -2.6756 -2.1762  0.1726
14664TIP3   OH265482   2.397   1.531  11.309 -0.2635 -0.2197  0.3289
14664TIP3    H165483   2.303   1.511  11.311 -0.5174  0.9661  0.4648
14664TIP3    H265484   2.439   1.445  11.297 -1.3319 -0.8126  0.7464
14665TIP3   OH265485   6.125   6.425   3.993 -0.1009 -0.2527 -0.0053
14665TIP3    H165486   6.184   6.489   3.952 -0.7973  0.0313 -0.5713
14665TIP3    H265487   6.038   6.464   3.986 -0.3160 -0.5323  1.1138
14666TIP3   OH265488   6.788   6.277   1.769 -0.1052  0.4376  0.5066
14666TIP3    H165489   6.841   6.351   1.798 -0.4388  0.9317 -0.1313
14666TIP3    H265490   6.750   6.241   1.849  1.6819 -0.3009  1.0428
14667TIP3   OH265491   1.700   4.468   3.902 -0.3699  0.4298  0.5635
14667TIP3    H165492   1.671   4.544   3.853  2.3384  2.4607  1.9518
14667TIP3    H265493   1.644   4.466   3.980  0.3821  1.8213  1.1649
14668TIP3   OH265494   6.215   0.483   0.742  0.4977 -0.2922  0.1586
14668TIP3    H165495   6.209   0.443   0.829  0.1007  0.3450  0.4240
14668TIP3    H265496   6.156   0.558   0.745 -0.6529 -1.1289 -1.1385
14669TIP3   OH265497   6.315   4.468  13.538 -0.2681  0.1470 -0.1140
14669TIP3    H165498   6.265   4.399  13.582  2.6853 -0.0623  3.1457
14669TIP3    H265499   6.364   4.423  13.469 -2.0571 -0.1485 -1.2251
14670TIP3   OH265500   4.026   1.516  13.577 -0.0656  0.4611  0.0310
14670TIP3    H165501   3.962   1.521  13.649 -0.1873 -1.6703  0.1043
14670TIP3    H265502   4.103   1.476  13.617  0.3592  0.5476 -0.7051
14671TIP3   OH265503   4.300   1.213  13.112 -0.1022 -0.3731  0.1010
14671TIP3    H165504   4.229   1.278  13.111 -0.2294 -0.5034  0.6338
14671TIP3    H265505   4.366   1.251  13.170 -0.3401 -0.8898  0.7216
14672TIP3   OH265506   6.519   0.443  12.924 -0.2582  0.0708 -0.4874
14672TIP3    H165507   6.467   0.483  12.855 -0.4779 -0.1738 -0.4643
14672TIP3    H265508   6.599   0.496  12.928 -1.2349  1.4940  0.6495
14673TIP3   OH265509   5.585   6.203  15.026 -0.0833 -0.1873 -0.2857
14673TIP3    H165510   5.521   6.229  14.959  1.5445  1.8620 -1.1200
14673TIP3    H265511   5.621   6.121  14.994  0.4158  0.5850 -1.7596
14674TIP3   OH265512   5.704   0.167   2.256 -0.0042  0.6909  0.3129
14674TIP3    H165513   5.741   0.128   2.335  0.8023  0.8014 -0.0006
14674TIP3    H265514   5.777   0.216   2.217  0.0243 -0.5866 -1.2929
14675TIP3   OH265515   6.742   3.607   3.111 -0.6104 -0.0043  0.3994
14675TIP3    H165516   6.647   3.597   3.103 -0.4598 -0.1317 -1.5600
14675TIP3    H265517   6.774   3.519   3.132 -0.6261 -0.7751 -2.5431
14676TIP3   OH265518   3.045   1.959  14.120 -0.4041 -0.1300  0.2500
14676TIP3    H165519   3.081   2.048  14.124 -1.4350  0.3868 -1.3295
14676TIP3    H265520   2.956   1.971  14.086  0.0172 -1.8978 -1.5619
14677TIP3   OH265521   3.551   0.263   0.152 -0.3671  0.8071  0.2061
14677TIP3    H165522   3.647   0.260   0.151 -0.2830  1.8430  1.9829
14677TIP3    H265523   3.530   0.356   0.144 -1.2404  0.5419 -0.6612
14678TIP3   OH265524   2.769   1.213  17.245 -0.2377  0.4531 -0.1643
14678TIP3    H165525   2.812   1.220  17.160 -1.4077  0.3580 -0.7823
14678TIP3    H265526   2.684   1.257  17.233  0.2266  1.8388  1.4096
14679TIP3   OH265527   6.120   6.044  10.483 -0.0275 -0.2315 -0.4408
14679TIP3    H165528   6.057   6.018  10.416  1.0057 -4.3676  0.0839
14679TIP3    H265529   6.185   5.974  10.485  1.9658  1.5584  2.3901
14680TIP3   OH265530   5.437   2.175   4.038 -0.0330  0.9540 -0.9962
14680TIP3    H165531   5.432   2.197   4.131 -2.1481  0.8809 -1.0627
14680TIP3    H265532   5.525   2.201   4.011  1.6027 -1.4826  1.6481
14681TIP3   OH265533   6.701   6.186  16.842  0.8984 -1.0176  0.3116
14681TIP3    H165534   6.644   6.156  16.771  0.6383  0.3593 -0.0883
14681TIP3    H265535   6.787   6.198  16.802  1.0879 -1.5815  0.5504
14682TIP3   OH265536   3.267   0.569  15.809 -0.0536  0.2596 -0.3013
14682TIP3    H165537   3.248   0.635  15.742  2.2770  0.3391 -0.9236
14682TIP3    H265538   3.272   0.619  15.890 -2.5025  0.2213 -0.0994
14683TIP3   OH265539   0.418   2.831   5.715 -0.1098 -0.3131  0.3174
14683TIP3    H165540   0.398   2.738   5.709  0.9575 -0.5919  0.8022
14683TIP3    H265541   0.501   2.841   5.667 -0.3252  0.4163  0.0899
14684TIP3   OH265542   6.165   1.077   0.760  0.1757 -0.0104  0.2399
14684TIP3    H165543   6.071   1.059   0.755  0.4157 -1.2479 -0.0452
14684TIP3    H265544   6.173   1.170   0.739 -0.6995 -0.5578 -2.8383
14685TIP3   OH265545   4.280   5.241   3.178  0.3259 -0.0023  0.2588
14685TIP3    H165546   4.259   5.149   3.196  0.7764 -0.0215  0.6757
14685TIP3    H265547   4.360   5.237   3.126  0.1752  0.1434  0.0137
14686TIP3   OH265548   5.707   3.381   4.261  0.0497 -0.4874 -0.2545
14686TIP3    H165549   5.652   3.345   4.191 -0.6156 -0.4453  0.2422
14686TIP3    H265550   5.666   3.465   4.283 -0.1974 -0.8530  0.7122
14687TIP3   OH265551   3.731   4.585   3.729 -0.3803  0.3857 -0.0159
14687TIP3    H165552   3.782   4.613   3.653 -1.0057 -0.0763 -0.6048
14687TIP3    H265553   3.642   4.576   3.696 -0.6572  0.2027  0.7782
14688TIP3   OH265554   5.778   0.398   5.142  0.1141  0.1521  0.0618
14688TIP3    H165555   5.837   0.387   5.216 -0.2501 -0.0065  0.3317
14688TIP3    H265556   5.823   0.458   5.084 -0.2838  1.5051  1.1394
14689TIP3   OH265557   4.580   5.963  14.837  0.3168 -0.0550 -0.3468
14689TIP3    H165558   4.516   6.020  14.794  0.8000  0.2321 -0.6844
14689TIP3    H265559   4.603   5.898  14.771  0.5926  0.0151 -0.3197
14690TIP3   OH265560   6.806   5.419  13.778 -0.4385 -0.1168 -0.1235
14690TIP3    H165561   6.833   5.446  13.866  0.2880 -0.5129 -0.2181
14690TIP3    H265562   6.736   5.355  13.793 -1.4461  1.0161  0.1207
14691TIP3   OH265563   5.470   5.654  12.028  0.5923 -0.3272  0.3934
14691TIP3    H165564   5.404   5.598  11.988  1.7397 -1.3474 -0.1390
14691TIP3    H265565   5.546   5.647  11.970  1.3916  0.2745  1.3390
14692TIP3   OH265566   1.378   3.222   4.875  0.9833  0.5580  0.1406
14692TIP3    H165567   1.469   3.217   4.905  1.0340  2.1338  0.2800
14692TIP3    H265568   1.380   3.188   4.786  1.3340 -1.3968  0.8662
14693TIP3   OH265569   3.889   3.696   5.431  0.5567 -0.7598  0.9920
14693TIP3    H165570   3.862   3.607   5.451  1.3716 -0.6030  2.9176
14693TIP3    H265571   3.937   3.689   5.349 -0.1823 -1.9391  0.6488
14694TIP3   OH265572   0.559   6.101   1.220  0.3141 -0.2130 -0.4638
14694TIP3    H165573   0.580   6.056   1.302 -1.7355 -1.0219 -0.3641
14694TIP3    H265574   0.619   6.063   1.156 -1.6436 -3.4291 -0.4773
14695TIP3   OH265575   5.609   0.840  13.994  0.5727 -0.5290 -0.2073
14695TIP3    H165576   5.549   0.865  13.924  1.4694  1.3045 -0.3547
14695TIP3    H265577   5.554   0.836  14.072  0.1796  0.8202 -0.3985
14696TIP3   OH265578   4.449   0.160  12.634 -0.0917  0.1332  0.6928
14696TIP3    H165579   4.377   0.156  12.696  0.6930 -0.0963  1.5954
14696TIP3    H265580   4.464   0.068  12.610  2.2857 -0.2135  3.2942
14697TIP3   OH265581   2.809   2.030  13.138 -0.1108 -0.2926 -0.0647
14697TIP3    H165582   2.772   1.943  13.121  0.3970 -0.6574  0.6717
14697TIP3    H265583   2.762   2.088  13.078  0.6449 -1.3235 -1.6746
14698TIP3   OH265584   3.476   0.999  12.126 -0.1673  0.3609  0.1649
14698TIP3    H165585   3.486   1.060  12.199  0.0063  0.0461  0.4050
14698TIP3    H265586   3.428   0.925  12.164  2.8220 -1.3150  0.8405
14699TIP3   OH265587   4.079   2.591   1.445  0.1419  0.2628 -0.3254
14699TIP3    H165588   4.160   2.541   1.429 -0.3996 -0.9207  0.5180
14699TIP3    H265589   4.084   2.616   1.537 -0.2661  0.5313 -0.3745
14700TIP3   OH265590   3.101   1.666  12.738  0.0559 -0.0867  0.5799
14700TIP3    H165591   3.104   1.571  12.745  1.7375 -0.0124  1.1416
14700TIP3    H265592   3.173   1.696  12.795 -1.1803  1.5560  1.2955
14701TIP3   OH265593   1.361   2.225  11.536  0.0800  0.0254  0.2143
14701TIP3    H165594   1.419   2.178  11.595  2.4887 -0.3694 -2.4184
14701TIP3    H265595   1.366   2.316  11.565 -0.5254 -0.4755  1.9853
14702TIP3   OH265596   4.357   4.159   0.287  0.4019 -0.0070  0.4133
14702TIP3    H165597   4.354   4.146   0.382  0.5828 -0.4316  0.3623
14702TIP3    H265598   4.443   4.127   0.261 -1.0776 -3.6250 -0.4134
14703TIP3   OH265599   2.705   5.858  16.465 -0.2089 -0.2592 -0.2155
14703TIP3    H165600   2.696   5.894  16.377  1.2303  0.2053 -0.1967
14703TIP3    H265601   2.785   5.899  16.499 -0.5270 -0.7438  1.1530
14704TIP3   OH265602   2.261   3.048   1.785  0.7289  0.0576  0.4829
14704TIP3    H165603   2.199   3.045   1.857  0.2293 -0.6466  0.0345
14704TIP3    H265604   2.246   2.966   1.737  2.5514 -0.5231  0.8331
14705TIP3   OH265605   4.220   4.561   2.532 -0.0701  0.0641 -0.3640
14705TIP3    H165606   4.257   4.562   2.444  0.4727  1.5416 -0.1262
14705TIP3    H265607   4.190   4.650   2.547  3.3860  0.8539  2.4172
14706TIP3   OH265608   5.632   5.773   3.877  0.1804 -0.3082 -0.5085
14706TIP3    H165609   5.556   5.796   3.931  0.5689  0.3773 -0.2519
14706TIP3    H265610   5.699   5.746   3.940  0.7344  0.7877 -0.6314
14707TIP3   OH265611   0.577   6.090   3.932  0.6393 -0.3758  0.0187
14707TIP3    H165612   0.539   6.007   3.962  0.9505 -0.0911  1.2648
14707TIP3    H265613   0.645   6.109   3.997 -1.3573  2.3105  1.4012
14708TIP3   OH265614   1.807   3.332   3.165 -0.6849  0.7160  1.4501
14708TIP3    H165615   1.748   3.375   3.103  0.1593  0.4073  0.4169
14708TIP3    H265616   1.812   3.392   3.239 -1.6035  1.1555  1.1610
14709TIP3   OH265617   4.348   0.295   3.398  0.2318 -0.1411  0.1289
14709TIP3    H165618   4.381   0.383   3.379 -0.3500 -0.0058 -0.2573
14709TIP3    H265619   4.285   0.307   3.469  0.6376 -0.3397  0.5330
14710TIP3   OH265620   1.164   4.007   3.626  0.1672  0.2900  0.4886
14710TIP3    H165621   1.122   4.093   3.612  1.5374  0.9005  0.0422
14710TIP3    H265622   1.223   3.997   3.551  0.8663 -0.5300  1.1458
14711TIP3   OH265623   3.555   5.282   2.292 -0.3649  0.3777 -0.5281
14711TIP3    H165624   3.475   5.286   2.239 -0.1932  1.2442 -0.7403
14711TIP3    H265625   3.583   5.374   2.299 -0.3559  0.2718  1.0233
14712TIP3   OH265626   2.669   5.975   1.912  0.2132 -0.7048  0.0158
14712TIP3    H165627   2.582   6.014   1.921 -0.5973 -2.4483 -0.1480
14712TIP3    H265628   2.709   5.984   1.999 -0.8332 -1.5337  0.5958
14713TIP3   OH265629   6.633   4.208  15.077  0.5417 -0.6111  1.0617
14713TIP3    H165630   6.719   4.167  15.085  0.6649 -0.3499  1.0836
14713TIP3    H265631   6.573   4.135  15.061  0.7581 -0.7994  1.0999
14714TIP3   OH265632   5.884   0.278   3.970  0.2385  0.1322 -0.1189
14714TIP3    H165633   5.941   0.207   3.999  0.1997  0.4376  0.7327
14714TIP3    H265634   5.795   0.246   3.988  0.2183  0.3642  0.1987
14715TIP3   OH265635   4.761   1.887   2.875  0.1421 -0.9615  0.4502
14715TIP3    H165636   4.743   1.980   2.890  1.4660 -0.8663  1.5817
14715TIP3    H265637   4.852   1.876   2.903 -0.2279 -2.7573  0.9889
14716TIP3   OH265638   5.373   1.627   4.023  0.4819 -0.2599 -0.2950
14716TIP3    H165639   5.381   1.691   3.953 -0.1782  0.0966 -0.0481
14716TIP3    H265640   5.457   1.631   4.070 -0.8085  2.9813  1.9088
14717TIP3   OH265641   2.347   2.750  12.221 -1.0222 -0.1328  0.0593
14717TIP3    H165642   2.385   2.692  12.155  0.0490  0.2205  0.3575
14717TIP3    H265643   2.297   2.813  12.171 -2.3337 -1.3988 -0.2645
14718TIP3   OH265644   6.344   4.561  12.798  0.5535  0.0365 -0.2436
14718TIP3    H165645   6.272   4.624  12.796 -1.7983 -2.5017  0.8037
14718TIP3    H265646   6.336   4.513  12.715  1.0709 -0.2216 -0.1479
14719TIP3   OH265647   6.134   6.296   2.117 -0.1484  0.2763  0.1527
14719TIP3    H165648   6.211   6.247   2.088 -0.1651  0.9433 -1.0669
14719TIP3    H265649   6.060   6.250   2.076 -0.3398  0.0862  0.7073
14720TIP3   OH265650   5.287   6.771  16.345  0.0403 -0.1116  0.2723
14720TIP3    H165651   5.302   6.775  16.251 -0.4296  1.4130  0.2479
14720TIP3    H265652   5.348   6.704  16.376 -1.2991 -2.1409 -1.3831
14721TIP3   OH265653   0.711   3.267   6.785 -0.5223 -0.1962  0.4155
14721TIP3    H165654   0.798   3.240   6.813 -0.8321 -1.0867  0.5300
14721TIP3    H265655   0.687   3.204   6.717 -1.0601  0.0732  0.3492
14722TIP3   OH265656   4.787   2.302  13.772  0.0975 -0.5562  0.0799
14722TIP3    H165657   4.760   2.389  13.800  1.4848 -0.5629  1.5090
14722TIP3    H265658   4.799   2.253  13.854 -0.0871 -1.9060 -0.6842
14723TIP3   OH265659   6.588   1.717   1.367  0.0417 -0.3087 -0.3786
14723TIP3    H165660   6.517   1.746   1.309 -0.3214 -0.2391  0.0980
14723TIP3    H265661   6.657   1.689   1.307 -0.4142 -0.4446 -0.8486
14724TIP3   OH265662   4.895   3.014   0.753 -0.3995  0.2323 -0.2743
14724TIP3    H165663   4.854   2.941   0.707 -0.9620  1.3738 -1.6313
14724TIP3    H265664   4.962   3.046   0.693  1.7915 -0.9171  1.4700
14725TIP3   OH265665   4.732   3.888   2.929 -0.0307 -0.2208  0.2703
14725TIP3    H165666   4.784   3.846   2.861 -0.3009 -0.7065  0.3615
14725TIP3    H265667   4.795   3.938   2.980 -0.0443  1.4988 -1.3350
14726TIP3   OH265668   1.833   1.139  13.922 -0.0266  0.0995 -0.4624
14726TIP3    H165669   1.754   1.085  13.923 -0.3793  0.6172  0.1812
14726TIP3    H265670   1.894   1.094  13.981 -0.9854  1.3518  1.5706
14727TIP3   OH265671   2.445   4.553   0.991  0.7109 -0.1968  0.7406
14727TIP3    H165672   2.528   4.517   0.959 -0.5327 -1.4133 -1.2458
14727TIP3    H265673   2.415   4.610   0.920  0.8342  1.8553  2.3041
14728TIP3   OH265674   5.127   3.178   5.162  0.2566 -0.4288  0.3970
14728TIP3    H165675   5.220   3.201   5.166  0.1949  0.1299 -1.0518
14728TIP3    H265676   5.100   3.171   5.254  1.2403  1.3456  0.8493
14729TIP3   OH265677   3.290   5.735   2.499  0.8199 -0.0341  0.3129
14729TIP3    H165678   3.207   5.710   2.459  0.6877 -0.0312  0.5867
14729TIP3    H265679   3.290   5.831   2.495  0.3070  0.0156  1.3264
14730TIP3   OH265680   0.177   4.906  11.917  0.0311  0.3977 -0.1468
14730TIP3    H165681   0.130   4.959  11.853 -0.5933  2.3790  1.8967
14730TIP3    H265682   0.179   4.960  11.996  2.7766 -1.0560  0.8300
14731TIP3   OH265683   4.886   3.363   0.137 -0.9998  0.3240 -0.2889
14731TIP3    H165684   4.961   3.412   0.103  0.0226 -0.2645  1.0620
14731TIP3    H265685   4.819   3.369   0.068  0.3270  0.7458 -1.5526
14732TIP3   OH265686   4.476   3.132   4.159 -0.1314  0.5641  0.0201
14732TIP3    H165687   4.412   3.081   4.209  2.4925 -3.3201 -0.4198
14732TIP3    H265688   4.506   3.199   4.220 -2.2158  0.3906  1.2825
14733TIP3   OH265689   1.056   2.033  12.531  0.0179  0.0942  0.5723
14733TIP3    H165690   1.012   2.103  12.482 -0.1668 -0.0856  0.4826
14733TIP3    H265691   1.011   1.953  12.505  0.6064 -0.1325  0.2339
14734TIP3   OH265692   1.089   0.169  14.049 -0.1663  0.0081  0.2171
14734TIP3    H165693   1.085   0.129  14.136 -2.8341 -0.4084 -0.0636
14734TIP3    H265694   1.132   0.102  13.995  1.6151  0.3163  1.1914
14735TIP3   OH265695   6.062   5.396   6.015 -0.6527 -0.0823 -0.2258
14735TIP3    H165696   6.055   5.327   6.082 -0.9937 -2.9355 -3.0905
14735TIP3    H265697   6.156   5.405   6.000 -0.5961  0.2325  0.3085
14736TIP3   OH265698   0.097   0.677  15.931 -0.0177  0.0879 -1.1029
14736TIP3    H165699   0.028   0.637  15.985  2.0575 -1.4064  0.5560
14736TIP3    H265700   0.082   0.771  15.939 -0.3551 -0.1255  1.3505
14737TIP3   OH265701   4.754   2.556   5.219 -0.1779 -0.5967 -0.2121
14737TIP3    H165702   4.830   2.599   5.182 -0.8844  1.0313  0.1779
14737TIP3    H265703   4.788   2.476   5.259  1.3668  0.2714  0.2372
14738TIP3   OH265704   6.679   1.946   4.112  0.5160  0.4043 -1.2105
14738TIP3    H165705   6.695   1.951   4.018 -0.1864 -1.2075 -1.4317
14738TIP3    H265706   6.756   1.900   4.146  1.5030  2.3162 -0.7603
14739TIP3   OH265707   5.658   1.210   5.207  0.3503  0.0048  0.5407
14739TIP3    H165708   5.634   1.140   5.268  2.9636 -1.8285 -0.4453
14739TIP3    H265709   5.688   1.281   5.264 -1.1004 -0.1461  1.5207
14740TIP3   OH265710   0.557   3.364   5.318  0.5471 -0.2645  0.1279
14740TIP3    H165711   0.480   3.345   5.373  0.5407 -1.9810 -0.4491
14740TIP3    H265712   0.562   3.460   5.316 -1.7222 -0.1242 -0.0182
14741TIP3   OH265713   3.626   1.734  10.987 -0.7064  0.3035 -0.0531
14741TIP3    H165714   3.702   1.769  10.941  0.6961 -1.3723  0.8967
14741TIP3    H265715   3.608   1.651  10.943 -0.4705 -0.4570  1.2463
14742TIP3   OH265716   2.303   6.480   2.798 -0.1493  0.1122  0.8657
14742TIP3    H165717   2.220   6.451   2.835  0.0515 -0.1617  1.1014
14742TIP3    H265718   2.284   6.567   2.762 -1.2582 -1.0647 -1.5507
14743TIP3   OH265719   5.363   0.529  13.429  0.1039 -0.1843  0.3964
14743TIP3    H165720   5.277   0.550  13.392  0.8936  2.4259 -0.0453
14743TIP3    H265721   5.424   0.543  13.357  1.2906  1.6057  1.7324
14744TIP3   OH265722   5.970   1.635  13.733 -0.2941  0.1762 -1.0169
14744TIP3    H165723   5.912   1.620  13.659 -0.7383  0.8344 -0.8088
14744TIP3    H265724   5.928   1.706  13.782 -1.1237 -1.6408  0.9989
14745TIP3   OH265725   6.549   4.467   3.763 -0.2084 -0.2235 -0.2113
14745TIP3    H165726   6.601   4.547   3.755  0.0399 -0.0700  2.5152
14745TIP3    H265727   6.460   4.498   3.782 -0.1738 -0.5935  0.5529
14746TIP3   OH265728   6.141   5.268   1.609  0.2127 -0.6912  0.1041
14746TIP3    H165729   6.112   5.189   1.655  2.1423 -1.1335  0.6068
14746TIP3    H265730   6.121   5.340   1.669 -0.3476 -0.9375  0.2111
14747TIP3   OH265731   2.784   5.231   1.784 -0.4206  0.1091 -0.6012
14747TIP3    H165732   2.779   5.136   1.777  1.0659  0.1181 -2.1432
14747TIP3    H265733   2.723   5.253   1.854 -1.6843 -1.8614 -1.0452
14748TIP3   OH265734   4.343   1.987  17.106 -0.0346 -0.0176  0.5019
14748TIP3    H165735   4.311   1.898  17.122 -1.6648  0.4614  0.0230
14748TIP3    H265736   4.317   2.007  17.016  1.3131  0.5463  0.2220
14749TIP3   OH265737   1.012   1.446   6.800  0.5101  0.6013 -0.2237
14749TIP3    H165738   0.993   1.359   6.764  2.1209 -0.4819  1.4118
14749TIP3    H265739   0.970   1.507   6.740 -1.6759 -1.3533 -0.7628
14750TIP3   OH265740   2.628   0.148  16.479  0.5369  0.1132 -0.3065
14750TIP3    H165741   2.595   0.065  16.515  0.8009 -0.0688 -0.4837
14750TIP3    H265742   2.721   0.132  16.463  0.7570  0.6807  0.3540
14751TIP3   OH265743   5.384   3.223  10.825  0.0839 -0.6388  0.7067
14751TIP3    H165744   5.468   3.187  10.798  0.7776  0.7943  0.9144
14751TIP3    H265745   5.401   3.316  10.838 -1.2462 -0.5546  1.9304
14752TIP3   OH265746   0.029   0.489   3.921 -0.5412  0.1622  0.2483
14752TIP3    H165747  -0.065   0.482   3.936 -0.7716  0.7826 -0.7931
14752TIP3    H265748   0.055   0.404   3.888 -0.5961 -0.2399  1.2281
14753TIP3   OH265749   4.743   0.900  15.403  0.2382  0.5762 -0.5292
14753TIP3    H165750   4.669   0.860  15.356  0.4130 -0.6551  0.2233
14753TIP3    H265751   4.707   0.981  15.439 -0.4290  0.5627 -1.1502
14754TIP3   OH265752   4.959   4.663  11.592  0.0722  0.0847  0.0196
14754TIP3    H165753   4.869   4.631  11.588  0.4564 -0.8975 -0.9614
14754TIP3    H265754   5.012   4.584  11.601  0.9899  0.4625 -1.7735
14755TIP3   OH265755   2.161   5.038   5.440 -0.5787  0.0095  0.6778
14755TIP3    H165756   2.174   5.028   5.346  0.7535  0.9146  0.7544
14755TIP3    H265757   2.241   5.078   5.471 -0.1948 -2.1027  2.5314
14756TIP3   OH265758   3.548   5.039   2.441  0.0899 -0.2883  0.4658
14756TIP3    H165759   3.565   5.109   2.378  2.8398 -0.6302  0.7486
14756TIP3    H265760   3.541   4.960   2.387 -1.1131 -0.0737  0.3034
14757TIP3   OH265761   4.654   0.578  13.463 -0.2016  0.3576  0.0736
14757TIP3    H165762   4.624   0.637  13.532 -1.6184 -0.6185  0.3067
14757TIP3    H265763   4.694   0.504  13.509  0.4390  0.5284 -0.1946
14758TIP3   OH265764   5.322   3.514  13.667 -0.4860 -0.7222 -0.6007
14758TIP3    H165765   5.367   3.460  13.732 -2.8905 -0.7433  1.1375
14758TIP3    H265766   5.384   3.584  13.647  0.9452 -1.6366  0.4687
14759TIP3   OH265767   2.714   2.331  13.548  0.4041 -0.1357  0.0978
14759TIP3    H165768   2.630   2.289  13.527 -0.2272  1.5234 -0.8242
14759TIP3    H265769   2.749   2.280  13.621 -1.8374 -0.2959  1.1059
14760TIP3   OH265770   1.944   0.096   1.670  0.0478 -0.2700  0.0832
14760TIP3    H165771   1.929   0.083   1.576 -1.4284  1.2771  0.0648
14760TIP3    H265772   1.897   0.024   1.712 -1.4297  0.4406 -0.2969
14761TIP3   OH265773   3.906   5.136  16.367  0.5364 -0.4895  0.3992
14761TIP3    H165774   3.974   5.081  16.329  1.2317  0.0456  0.8677
14761TIP3    H265775   3.842   5.073  16.403  0.3873 -0.9881 -0.7237
14762TIP3   OH265776   3.166   6.481   4.076 -0.4179  0.7914 -0.5418
14762TIP3    H165777   3.209   6.463   3.992  1.1007  0.6018  0.2536
14762TIP3    H265778   3.130   6.396   4.102 -1.3880  0.9743 -1.2673
14763TIP3   OH265779   6.137   4.317   3.709  0.4743  0.2092 -0.6801
14763TIP3    H165780   6.078   4.242   3.703 -1.2685  1.3150  1.8621
14763TIP3    H265781   6.225   4.279   3.706 -0.3686 -1.7858 -0.7517
14764TIP3   OH265782   6.811   2.075  17.290  0.7846  0.1239  0.0892
14764TIP3    H165783   6.729   2.107  17.329  0.4504  0.3688 -0.8072
14764TIP3    H265784   6.817   2.121  17.206 -0.0657 -2.6675 -1.5478
14765TIP3   OH265785   3.286   3.612  16.284  0.3189 -0.3593  0.3307
14765TIP3    H165786   3.207   3.663  16.302  1.2660  0.5187  2.1157
14765TIP3    H265787   3.281   3.537  16.342  1.0902  0.0269  0.9128
14766TIP3   OH265788   3.909   1.175   4.352 -0.2928  0.1631 -0.2829
14766TIP3    H165789   3.880   1.207   4.438 -0.7287 -1.6023  0.2374
14766TIP3    H265790   4.003   1.194   4.350 -0.6543  2.0892 -0.2686
14767TIP3   OH265791   3.185   2.314   2.692 -0.9013 -0.0958 -0.5412
14767TIP3    H165792   3.234   2.389   2.727 -0.1224 -0.7761 -0.1644
14767TIP3    H265793   3.125   2.353   2.629 -0.8985  0.9205  0.0580
14768TIP3   OH265794   1.611   3.901  13.557 -0.4212  0.0823  0.2674
14768TIP3    H165795   1.678   3.834  13.549 -0.0490  0.2358  1.9843
14768TIP3    H265796   1.638   3.954  13.632 -1.2139  1.5755 -0.4571
14769TIP3   OH265797   5.003   1.035  11.970  0.1312 -0.2551 -0.0868
14769TIP3    H165798   5.064   1.073  12.033  0.0096  2.2289 -1.4222
14769TIP3    H265799   4.923   1.087  11.980 -0.4772 -0.9779 -1.0728
14770TIP3   OH265800   3.530   0.160   0.880 -0.4079 -0.1783 -0.3026
14770TIP3    H165801   3.549   0.141   0.972 -0.4084 -1.1572 -0.4986
14770TIP3    H265802   3.561   0.250   0.867  1.5693 -0.7880  0.0927
14771TIP3   OH265803   1.682   6.561  16.131  0.1076 -0.3367 -0.8632
14771TIP3    H165804   1.703   6.552  16.224 -1.2127  1.9672 -0.2938
14771TIP3    H265805   1.746   6.623  16.098 -0.5347  0.2301 -1.0560
14772TIP3   OH265806   0.237   5.003   3.183 -0.5720  0.1832 -0.2099
14772TIP3    H165807   0.153   5.002   3.138 -0.9218  1.2327  0.4131
14772TIP3    H265808   0.301   4.983   3.114 -1.3108 -0.4758 -0.7112
14773TIP3   OH265809   6.559   5.055  11.974  0.4140  0.0744  0.1988
14773TIP3    H165810   6.632   5.073  11.916 -0.5280 -2.5714 -1.9218
14773TIP3    H265811   6.583   4.974  12.019 -0.2004  0.4343  1.1863
14774TIP3   OH265812   1.675   6.452  17.028  0.2113  0.3301  0.0159
14774TIP3    H165813   1.767   6.439  17.053 -0.2468 -0.7399  1.2598
14774TIP3    H265814   1.678   6.472  16.935  1.7317  0.6192  0.1006
14775TIP3   OH265815   0.579   0.627  12.887  0.0767  0.4251 -0.0370
14775TIP3    H165816   0.484   0.612  12.884  0.3093 -1.0264 -0.6443
14775TIP3    H265817   0.590   0.714  12.848 -1.0982  1.1028  1.1022
14776TIP3   OH265818   5.486   1.353  14.712 -0.2725  0.4926  0.2284
14776TIP3    H165819   5.497   1.403  14.631  0.4186 -0.2785 -0.1644
14776TIP3    H265820   5.563   1.376  14.765  1.0842 -1.6481 -0.7668
14777TIP3   OH265821   1.187   4.680  14.857  0.3976 -0.2533 -0.1622
14777TIP3    H165822   1.177   4.773  14.840 -0.7674 -0.4924 -0.8409
14777TIP3    H265823   1.099   4.651  14.884 -0.0546 -1.7526 -2.9849
14778TIP3   OH265824   0.244   5.067  11.580  0.8422  0.2821  0.3317
14778TIP3    H165825   0.273   4.990  11.531  1.5708  1.1077 -0.5495
14778TIP3    H265826   0.321   5.123  11.586 -0.1135  1.7570 -0.6150
14779TIP3   OH265827   4.570   6.634   3.704 -0.0048 -0.4191 -0.0425
14779TIP3    H165828   4.529   6.698   3.646 -3.3509 -0.3678  2.2266
14779TIP3    H265829   4.536   6.549   3.673  2.8846 -1.0036 -1.8145
14780TIP3   OH265830   1.614   5.330   0.068  0.0482  0.3030 -0.2953
14780TIP3    H165831   1.603   5.296  -0.020 -1.9223 -0.0523  0.0683
14780TIP3    H265832   1.525   5.337   0.103  0.8409 -0.6296  2.0637
14781TIP3   OH265833   5.674   3.170  12.605 -0.9979  0.7878  0.2813
14781TIP3    H165834   5.735   3.097  12.604 -1.6237  0.2664 -1.0656
14781TIP3    H265835   5.711   3.232  12.668 -0.4818 -0.6934  1.4469
14782TIP3   OH265836   0.627   4.915  13.345  0.3714  0.0623  0.1181
14782TIP3    H165837   0.682   4.987  13.314  1.3221 -0.9850 -0.6431
14782TIP3    H265838   0.689   4.851  13.380 -0.4590 -0.4830  0.6041
14783TIP3   OH265839   1.836   3.255  15.410  0.0411  0.5594  0.1979
14783TIP3    H165840   1.906   3.303  15.365 -0.5332  0.7889 -0.4487
14783TIP3    H265841   1.853   3.270  15.503  1.8998 -0.8329  0.1224
14784TIP3   OH265842   5.499   4.462  12.476 -0.4252 -0.2918  0.6100
14784TIP3    H165843   5.410   4.438  12.451 -0.0892 -1.8919  0.9169
14784TIP3    H265844   5.543   4.483  12.393 -0.5375 -1.4077  0.2620
14785TIP3   OH265845   0.955   4.383   1.621 -0.1804  0.4787  0.5669
14785TIP3    H165846   0.873   4.384   1.571 -0.8154 -0.3607  1.5625
14785TIP3    H265847   0.931   4.419   1.707  0.3995 -0.1764  1.0063
14786TIP3   OH265848   5.666   3.571   4.595  0.3083  1.3323  0.2553
14786TIP3    H165849   5.622   3.489   4.576 -0.0255  1.9770 -1.8907
14786TIP3    H265850   5.759   3.549   4.600  0.4324  1.1103 -2.3011
14787TIP3   OH265851   2.843   5.131   2.052 -0.0143 -0.4191 -0.1400
14787TIP3    H165852   2.903   5.063   2.082  0.3759 -0.1459 -0.2995
14787TIP3    H265853   2.900   5.200   2.017 -0.4290 -0.2646 -0.5092
14788TIP3   OH265854   6.119   6.398  14.697 -0.0012  0.5016  0.2405
14788TIP3    H165855   6.037   6.447  14.689 -1.0322 -1.2014  0.0789
14788TIP3    H265856   6.148   6.415  14.787  1.2055  3.7188 -0.6929
14789TIP3   OH265857   4.017   2.058   4.935  0.7656  0.5507  0.1775
14789TIP3    H165858   3.927   2.084   4.953  0.4181  0.2016 -1.0781
14789TIP3    H265859   4.011   1.996   4.863  1.8605 -0.8322  1.2489
14790TIP3   OH265860   3.982   2.092   0.895  0.5996  0.4737 -0.2094
14790TIP3    H165861   4.055   2.055   0.845  1.9163  0.7743  1.4489
14790TIP3    H265862   3.977   2.183   0.865  1.3339  0.6344  0.1578
14791TIP3   OH265863   5.852   3.763   3.150  0.0795 -0.2791  0.2595
14791TIP3    H165864   5.896   3.796   3.072  0.3989 -0.9579  0.1477
14791TIP3    H265865   5.890   3.676   3.164  0.0294 -0.1663  1.1666
14792TIP3   OH265866   2.016   0.281  16.481  0.0180 -0.2271  0.1391
14792TIP3    H165867   1.996   0.193  16.512 -0.7586  0.5308  1.8133
14792TIP3    H265868   2.107   0.296  16.508  0.7553 -1.1622 -1.7088
14793TIP3   OH265869   0.636   2.949  16.958 -0.2266 -1.2969 -0.0169
14793TIP3    H165870   0.731   2.942  16.952 -0.2717 -2.1592  0.1745
14793TIP3    H265871   0.607   2.966  16.868  0.0235 -2.2213 -0.2790
14794TIP3   OH265872   6.237   1.782   1.848  0.1999 -0.0226 -0.2926
14794TIP3    H165873   6.318   1.802   1.895 -0.3395  1.4478  0.0330
14794TIP3    H265874   6.188   1.863   1.850 -0.7297 -0.5399 -1.6305
14795TIP3   OH265875   4.926   2.388   5.672  0.5551 -0.3435  0.1978
14795TIP3    H165876   5.018   2.414   5.674  0.7072 -0.7419 -0.9302
14795TIP3    H265877   4.884   2.454   5.617  0.4753 -1.0208 -0.5804
14796TIP3   OH265878   2.968   2.696  14.296  0.3607  0.5622  0.7244
14796TIP3    H165879   3.034   2.727  14.234 -1.0686  0.5815 -0.8083
14796TIP3    H265880   3.017   2.641  14.357  2.0092  1.6071  0.3601
14797TIP3   OH265881   0.027   1.227   2.937 -0.2832 -0.1171  0.0267
14797TIP3    H165882  -0.017   1.306   2.907 -1.0740 -0.5552  0.0313
14797TIP3    H265883   0.118   1.239   2.910 -0.4250  0.7269 -0.0991
14798TIP3   OH265884   1.383   4.572   1.353 -0.0565  0.2812  0.0895
14798TIP3    H165885   1.455   4.579   1.415  0.1574  1.1442 -0.2335
14798TIP3    H265886   1.306   4.601   1.402  0.3275  2.1931 -0.3882
14799TIP3   OH265887   2.646   4.409   0.845  0.2143 -0.3117  0.3810
14799TIP3    H165888   2.655   4.492   0.799  0.0644 -0.7882 -0.5241
14799TIP3    H265889   2.586   4.358   0.791  0.0235 -0.8788  1.1133
14800TIP3   OH265890   6.371   4.055  17.240  0.1009 -0.0014 -0.0287
14800TIP3    H165891   6.459   4.018  17.245  0.2221  0.5257  2.1356
14800TIP3    H265892   6.322   4.012  17.310 -1.1120  0.4235 -0.5883
14801TIP3   OH265893   3.958   1.528   3.268 -0.4630 -0.0334 -0.1971
14801TIP3    H165894   3.913   1.550   3.186  0.0869  1.3748 -0.1260
14801TIP3    H265895   3.924   1.441   3.291 -1.2560 -0.0740 -1.4677
14802TIP3   OH265896   5.541   1.116  17.001  0.4799 -0.2112 -0.2620
14802TIP3    H165897   5.518   1.113  17.094  0.5324 -1.2822 -0.2776
14802TIP3    H265898   5.464   1.083  16.955  0.2515  0.8340 -0.6422
14803TIP3   OH265899   1.902   4.730  12.790  0.4155 -0.0335 -0.6805
14803TIP3    H165900   1.854   4.801  12.833 -0.0292  0.3286 -1.7571
14803TIP3    H265901   1.842   4.655  12.793 -0.8303  0.7951 -3.2588
14804TIP3   OH265902   4.616   2.155  14.188 -0.2086  0.1094 -0.6357
14804TIP3    H165903   4.556   2.221  14.152 -3.0488 -2.5818 -0.9614
14804TIP3    H265904   4.584   2.140  14.277  1.1940  0.0679 -0.1347
14805TIP3   OH265905   1.878   0.547   6.011 -0.0012  0.0272  0.0202
14805TIP3    H165906   1.944   0.495   6.056 -0.9379 -1.0115  0.2021
14805TIP3    H265907   1.795   0.506   6.033 -0.8968  2.3547  1.2334
14806TIP3   OH265908   2.351   5.572  13.781  0.3609  0.0019 -0.0334
14806TIP3    H165909   2.337   5.642  13.845 -1.7001 -1.0686  0.7136
14806TIP3    H265910   2.346   5.617  13.696 -0.7683  0.8012  0.4414
14807TIP3   OH265911   0.315   2.897  13.493  0.2494  0.4729 -0.2233
14807TIP3    H165912   0.300   2.803  13.497  0.7811  0.3897 -0.2101
14807TIP3    H265913   0.244   2.930  13.438 -1.6996  0.4546  2.2075
14808TIP3   OH265914   3.090   6.738  12.488  0.3036 -0.2856 -0.3989
14808TIP3    H165915   3.030   6.771  12.555 -0.6735 -0.8519 -0.9962
14808TIP3    H265916   3.042   6.746  12.406  1.9916  1.7024 -1.2498
14809TIP3   OH265917   5.139   6.503  16.637  0.2180  0.0051  0.5776
14809TIP3    H165918   5.231   6.498  16.660 -0.1710  0.4516  2.2947
14809TIP3    H265919   5.138   6.513  16.542  1.8698 -2.2969  0.2830
14810TIP3   OH265920   3.086   1.279   1.180 -0.4481 -0.7046 -0.2293
14810TIP3    H165921   3.093   1.353   1.240  0.0122 -1.6026  0.8414
14810TIP3    H265922   3.117   1.314   1.096  0.1009  0.2240  0.3460
14811TIP3   OH265923   3.686   0.393  12.622 -0.4975  0.6161 -0.2025
14811TIP3    H165924   3.757   0.383  12.684 -0.3496 -2.9006 -0.8129
14811TIP3    H265925   3.727   0.429  12.544  0.5772 -0.8800 -0.3635
14812TIP3   OH265926   5.980   4.000  12.355  0.8393  0.1292  0.0035
14812TIP3    H165927   5.992   3.915  12.311  3.2752  1.4463 -2.0235
14812TIP3    H265928   5.920   4.048  12.298  0.9730  0.4456  0.1290
14813TIP3   OH265929   3.784   2.105  13.300  0.0710  0.1579  0.6038
14813TIP3    H165930   3.689   2.107  13.299  0.0072 -0.8851  2.2779
14813TIP3    H265931   3.809   2.037  13.237 -0.3499 -0.6289  1.2826
14814TIP3   OH265932   0.416   0.912  15.183  0.4245 -0.2731 -0.1905
14814TIP3    H165933   0.380   0.825  15.170  1.2095 -0.6661  0.2151
14814TIP3    H265934   0.350   0.958  15.235  1.9878 -2.0843  3.5454
14815TIP3   OH265935   2.560   1.343  12.106 -0.0010 -0.0439 -0.6860
14815TIP3    H165936   2.509   1.267  12.078  0.5407 -0.9271  0.6925
14815TIP3    H265937   2.501   1.393  12.161  0.5751 -1.0651  0.9072
14816TIP3   OH265938   5.420   5.042  16.859  0.3253  0.4022 -0.3647
14816TIP3    H165939   5.506   5.013  16.891  0.2778  0.5330 -0.1174
14816TIP3    H265940   5.441   5.105  16.790  0.4289  0.1423 -0.5717
14817TIP3   OH265941   5.573   3.973  11.475 -0.2444  0.7172 -0.6960
14817TIP3    H165942   5.542   3.933  11.394 -0.7001 -0.0059 -0.1603
14817TIP3    H265943   5.561   3.906  11.542  2.4763  0.3663 -0.4667
14818TIP3   OH265944   2.483   6.156  12.250  0.5155 -0.2563  0.5120
14818TIP3    H165945   2.388   6.142  12.252  0.5811 -0.6068  1.5884
14818TIP3    H265946   2.500   6.213  12.325  0.9763  1.0178 -0.5409
14819TIP3   OH265947   3.705   3.830   5.619 -0.8230 -0.3310 -0.1320
14819TIP3    H165948   3.796   3.810   5.597 -0.9531 -0.3670 -0.6380
14819TIP3    H265949   3.658   3.748   5.603 -0.5153 -1.1404  2.6969
14820TIP3   OH265950   0.764   2.660   2.644  0.5524  0.4273 -0.3462
14820TIP3    H165951   0.761   2.579   2.593  0.4553  0.2113 -0.0007
14820TIP3    H265952   0.676   2.669   2.679  0.9035  0.0188  0.6440
14821TIP3   OH265953   5.449   0.467  15.048  0.1170  0.4447  0.0817
14821TIP3    H165954   5.438   0.541  15.108 -0.7741 -0.8966  1.6164
14821TIP3    H265955   5.390   0.487  14.975 -1.1626  0.6204  1.1363
14822TIP3   OH265956   0.322   1.397   1.007  0.5619  0.3225 -0.5108
14822TIP3    H165957   0.336   1.403   1.102  0.9909  1.7489 -0.6550
14822TIP3    H265958   0.268   1.318   0.996 -0.4285  0.7508  1.0270
14823TIP3   OH265959   0.935   6.400   3.707 -0.0819 -0.0395  0.2999
14823TIP3    H165960   0.870   6.468   3.727 -0.8712 -0.8445  0.5259
14823TIP3    H265961   1.008   6.418   3.766  0.7432  2.0317 -1.2830
14824TIP3   OH265962   5.657   3.813  14.569 -0.0419  0.0217  0.3169
14824TIP3    H165963   5.734   3.832  14.516 -0.1134 -0.5650  0.0033
14824TIP3    H265964   5.667   3.868  14.647  0.0503  0.9243 -0.3120
14825TIP3   OH265965   0.148   5.482   0.121  0.6730 -0.6779 -0.3719
14825TIP3    H165966   0.093   5.411   0.089  0.1195 -0.7103  0.6389
14825TIP3    H265967   0.165   5.460   0.213 -0.1267  0.8628  0.1636
14826TIP3   OH265968   6.625   3.707   2.240  0.5902 -0.2269  0.3683
14826TIP3    H165969   6.544   3.670   2.274  0.0677  0.3948 -0.1778
14826TIP3    H265970   6.607   3.801   2.232  1.2757 -0.1238  0.0083
14827TIP3   OH265971   4.039   3.074   3.445  0.1418  0.0103  0.2597
14827TIP3    H165972   4.068   3.157   3.406  0.3630 -0.0121  0.3743
14827TIP3    H265973   4.061   3.008   3.379  1.2359 -0.1238  0.7345
14828TIP3   OH265974   0.477   3.395   2.351  0.1608 -0.3021  0.1272
14828TIP3    H165975   0.571   3.403   2.367  0.2552  0.9227 -0.8985
14828TIP3    H265976   0.470   3.364   2.261 -0.4190  0.3496 -0.0629
14829TIP3   OH265977   3.709   1.085  11.741  0.5697  0.3577 -0.1134
14829TIP3    H165978   3.787   1.140  11.745  0.3095  0.5941  2.4946
14829TIP3    H265979   3.637   1.143  11.766 -0.0559 -0.5422  0.2058
14830TIP3   OH265980   1.263   4.393  17.223 -0.0656  0.0092  0.0865
14830TIP3    H165981   1.328   4.452  17.261  0.2453  0.1014 -0.5628
14830TIP3    H265982   1.225   4.443  17.150 -0.4390 -0.2640  0.0891
14831TIP3   OH265983   5.498   1.208   1.911 -0.2174 -0.5158 -0.0141
14831TIP3    H165984   5.473   1.117   1.890  0.1447 -0.1082 -2.4026
14831TIP3    H265985   5.435   1.235   1.978 -0.5668 -2.4164  0.4528
14832TIP3   OH265986   2.846   1.591   5.422  0.8113 -0.2137  0.1560
14832TIP3    H165987   2.940   1.575   5.435  1.9202  3.4937 -2.3359
14832TIP3    H265988   2.843   1.674   5.373 -3.6553 -1.8652 -2.6516
14833TIP3   OH265989   6.794   6.694  16.168  0.5908  0.5724 -0.6601
14833TIP3    H165990   6.730   6.628  16.197  0.2226  1.0545 -0.3641
14833TIP3    H265991   6.747   6.744  16.102  0.8550  0.5682 -0.8513
14834TIP3   OH265992   4.368   3.207  17.133 -0.8592 -0.8178  0.6620
14834TIP3    H165993   4.276   3.224  17.153  0.1512  2.4844  3.1263
14834TIP3    H265994   4.415   3.279  17.175  2.8219 -2.0631 -1.0693
14835TIP3   OH265995   4.950   2.004  12.100 -0.1546  0.7484 -0.1803
14835TIP3    H165996   4.861   1.990  12.131  0.6347  1.2685  2.4398
14835TIP3    H265997   4.942   2.075  12.036 -1.8414 -0.4082 -1.2877
14836TIP3   OH265998   2.682   6.107   5.332  0.1901 -0.1030  0.1053
14836TIP3    H165999   2.623   6.180   5.346  2.5705  2.0484 -0.7079
14836TIP3    H266000   2.770   6.143   5.347  1.3917 -2.8861  0.1151
14837TIP3   OH266001   6.045   4.000  16.077 -0.9035 -0.3340  0.2573
14837TIP3    H166002   6.041   3.904  16.084 -1.3609 -0.2732  0.8738
14837TIP3    H266003   6.031   4.031  16.166  1.7162  0.2488  0.5160
14838TIP3   OH266004   3.319   2.198  15.541 -0.4707  0.8080 -0.2956
14838TIP3    H166005   3.289   2.239  15.460 -1.3165  0.1281 -0.3395
14838TIP3    H266006   3.391   2.140  15.513 -0.1164  1.3017 -0.4157
14839TIP3   OH266007   6.263   2.383  15.073  0.0853  0.2256 -0.0261
14839TIP3    H166008   6.319   2.323  15.122 -1.7463 -2.1128 -0.7110
14839TIP3    H266009   6.177   2.373  15.112 -0.8016  0.4026 -1.8647
14840TIP3   OH266010   4.318   5.608   5.177  0.1952 -0.8223 -0.3843
14840TIP3    H166011   4.386   5.597   5.110  0.3791 -0.8401 -0.1967
14840TIP3    H266012   4.291   5.700   5.168  0.0844 -0.8782 -0.6101
14841TIP3   OH266013   5.238   0.856  10.971  0.5442  0.6962  0.0683
14841TIP3    H166014   5.289   0.873  10.891 -0.1177 -0.8825 -0.7119
14841TIP3    H266015   5.237   0.761  10.978 -0.0564  0.8103  1.5581
14842TIP3   OH266016   3.907   2.298  14.178 -0.2017  0.1805 -0.1658
14842TIP3    H166017   3.897   2.232  14.246 -0.9678 -0.2199 -0.6562
14842TIP3    H266018   3.900   2.381  14.224 -2.4706 -0.0740  0.0200
14843TIP3   OH266019   4.091   5.365   1.809  0.2103  0.5652  0.7217
14843TIP3    H166020   4.114   5.308   1.736  0.0855 -0.4431  1.4563
14843TIP3    H266021   4.161   5.351   1.873 -0.0380  0.9266  1.0773
14844TIP3   OH266022   3.676   2.379   0.787  0.6298 -0.3694 -0.3701
14844TIP3    H166023   3.710   2.446   0.728  0.7049  0.5220  0.6718
14844TIP3    H266024   3.691   2.414   0.875  0.2043 -1.5247  0.1762
14845TIP3   OH266025   1.357   1.775   0.714  0.3270 -0.5091  0.2350
14845TIP3    H166026   1.354   1.869   0.694 -0.2177 -0.3083  1.2444
14845TIP3    H266027   1.281   1.760   0.771  0.7069 -1.4664  0.4947
14846TIP3   OH266028   2.852   2.777  11.636  0.2441  0.4528 -0.0513
14846TIP3    H166029   2.938   2.771  11.679  0.6145  1.3973 -0.6257
14846TIP3    H266030   2.789   2.771  11.707  0.8031  0.2456  0.4329
14847TIP3   OH266031   2.527   0.319  14.277  0.7523  0.4885  0.6023
14847TIP3    H166032   2.593   0.367  14.327 -0.1234 -0.5392  2.8486
14847TIP3    H266033   2.574   0.245  14.240  0.7247 -0.8152  3.0457
14848TIP3   OH266034   3.241   3.006   3.117  0.5255 -0.0324 -0.2794
14848TIP3    H166035   3.218   3.060   3.041 -0.7848 -1.6039 -1.0346
14848TIP3    H266036   3.235   3.066   3.191 -1.0173  0.8443 -1.0857
14849TIP3   OH266037   1.685   2.766   5.573  0.5348  0.1903 -0.3438
14849TIP3    H166038   1.637   2.845   5.596  2.3924  0.9506  1.0970
14849TIP3    H266039   1.691   2.717   5.655 -0.4931 -1.4099 -1.1971
14850TIP3   OH266040   4.166   4.779   5.331 -0.0343 -0.2089 -0.4426
14850TIP3    H166041   4.142   4.835   5.258 -0.6713 -1.4729 -1.2182
14850TIP3    H266042   4.223   4.713   5.293  1.8764  0.6995  0.7261
14851TIP3   OH266043   6.319   5.966   6.103 -0.1515  0.5490 -0.2202
14851TIP3    H166044   6.237   5.988   6.147 -0.4316 -0.2092 -0.3519
14851TIP3    H266045   6.380   5.947   6.174 -0.4908 -0.2853 -0.1529
14852TIP3   OH266046   4.674   3.053  12.473  0.1680 -0.2404 -0.0427
14852TIP3    H166047   4.692   3.141  12.506 -0.5428  0.3283 -1.1536
14852TIP3    H266048   4.651   3.003  12.552  1.5788  0.2869  0.7293
14853TIP3   OH266049   2.667   4.214  16.610 -0.6839  0.5358  0.4690
14853TIP3    H166050   2.611   4.282  16.647 -0.7859  1.0435 -0.5778
14853TIP3    H266051   2.653   4.137  16.665 -2.6047  0.5817  0.0832
14854TIP3   OH266052   5.029   1.754   1.152  0.3153  0.2774  0.6197
14854TIP3    H166053   5.079   1.675   1.173  0.6263  0.0211 -1.0691
14854TIP3    H266054   5.076   1.824   1.197  1.1779 -0.2217  0.5074
14855TIP3   OH266055   6.428   3.204  15.608  0.2835 -0.2144  0.2488
14855TIP3    H166056   6.452   3.144  15.678 -0.0658  1.4073  1.7801
14855TIP3    H266057   6.420   3.289  15.650 -1.0139  0.5983 -1.5568
14856TIP3   OH266058   0.962   6.465   0.780  0.2601  0.4118  0.1714
14856TIP3    H166059   0.899   6.535   0.793 -0.7616 -0.7037  1.3987
14856TIP3    H266060   0.915   6.400   0.728  0.1550 -0.7343  1.6732
14857TIP3   OH266061   4.508   6.654   6.332 -0.4589  0.3764  0.1619
14857TIP3    H166062   4.461   6.736   6.348  1.0784  0.8483  2.6820
14857TIP3    H266063   4.545   6.664   6.244  0.8257  3.0098  0.9407
14858TIP3   OH266064   1.476   0.802   2.643 -0.1815 -0.1021  0.3929
14858TIP3    H166065   1.451   0.874   2.701 -1.4019  1.9390 -2.5498
14858TIP3    H266066   1.561   0.828   2.608 -0.7105  0.0244 -0.8265
14859TIP3   OH266067   1.538   6.814   4.965  0.1803  0.4402 -0.0650
14859TIP3    H166068   1.546   6.880   5.034  2.3238 -0.4575  0.5856
14859TIP3    H266069   1.594   6.845   4.894  0.3973 -0.1566 -0.1625
14860TIP3   OH266070   5.654   1.647   5.027 -0.5586 -0.7536  0.0425
14860TIP3    H166071   5.731   1.632   4.972  0.0335 -0.3115  0.7395
14860TIP3    H266072   5.583   1.599   4.983  0.1832 -1.4226 -0.4382
14861TIP3   OH266073   4.823   3.109  14.319 -0.2351  0.3473 -0.2511
14861TIP3    H166074   4.903   3.161  14.322 -0.6472  0.9788 -0.0661
14861TIP3    H266075   4.853   3.019  14.301  0.7220  0.1129  2.2278
14862TIP3   OH266076   0.050   5.243   2.348 -0.6137 -0.2435 -0.2808
14862TIP3    H166077   0.018   5.331   2.326  0.1760 -0.0967 -0.8572
14862TIP3    H266078   0.007   5.185   2.285 -0.6265 -0.1876 -0.3235
14863TIP3   OH266079   6.101   3.525   3.148 -0.4779 -0.4403 -0.1125
14863TIP3    H166080   6.121   3.535   3.241 -2.7949 -0.4740  0.4406
14863TIP3    H266081   6.056   3.441   3.142 -0.7711 -0.2187 -1.1813
14864TIP3   OH266082   5.820   5.263  12.316  0.0638 -0.1250 -0.2205
14864TIP3    H166083   5.785   5.281  12.229  0.5692  1.5160 -0.1050
14864TIP3    H266084   5.766   5.192  12.350 -0.6913 -0.1866 -1.5280
14865TIP3   OH266085   4.032   3.590   2.352  0.7355  0.1422 -0.5908
14865TIP3    H166086   4.023   3.549   2.266  0.1876 -0.1030 -0.4159
14865TIP3    H266087   4.127   3.593   2.367  0.7479 -2.5245  0.0841
14866TIP3   OH266088   5.922   6.031  15.880 -0.3487 -0.5542 -0.0427
14866TIP3    H166089   5.959   6.039  15.792  0.1096 -2.1625 -0.0198
14866TIP3    H266090   5.829   6.015  15.866 -0.4884  0.4023 -0.1998
14867TIP3   OH266091   4.573   0.009   4.629  0.0220  0.4592 -0.4739
14867TIP3    H166092   4.637   0.076   4.604 -0.6014  0.3793 -2.3722
14867TIP3    H266093   4.499   0.060   4.664 -1.2733  0.9495 -3.7495
14868TIP3   OH266094   6.083   0.341  14.949 -0.4630 -0.0028 -0.6278
14868TIP3    H166095   6.074   0.377  14.861 -2.7260  1.6904  0.2334
14868TIP3    H266096   6.158   0.387  14.987  1.2921 -1.6279 -2.0468
14869TIP3   OH266097   5.725   1.696  12.652 -0.2717 -0.0879 -0.0911
14869TIP3    H166098   5.669   1.648  12.591 -1.1866  0.0194  0.6446
14869TIP3    H266099   5.797   1.636  12.672 -0.9854 -0.8536  0.2029
14870TIP3   OH266100   3.296   3.975   1.863  0.1872 -0.9258  0.1406
14870TIP3    H166101   3.238   4.036   1.909 -0.8250 -0.0977 -2.1947
14870TIP3    H266102   3.340   3.927   1.934 -0.6373  0.9498  1.9856
14871TIP3   OH266103   3.855   2.184   2.306 -0.1271 -0.2797 -0.2478
14871TIP3    H166104   3.844   2.089   2.297  0.0702 -0.2071 -1.3680
14871TIP3    H266105   3.841   2.202   2.399 -0.3543 -1.3830 -0.0688
14872TIP3   OH266106   0.751   2.242  12.832  0.2965 -0.1201 -0.1269
14872TIP3    H166107   0.664   2.213  12.805  0.2254  0.5005 -0.5779
14872TIP3    H266108   0.785   2.291  12.757  1.0054 -0.2921  0.0739
14873TIP3   OH266109   4.467   5.244   2.299 -0.5842 -0.2350 -0.0895
14873TIP3    H166110   4.523   5.309   2.342 -0.4474 -0.7659  0.5408
14873TIP3    H266111   4.399   5.296   2.256  0.5668  0.4302 -1.1249
14874TIP3   OH266112   5.537   0.780  14.884 -1.0055  0.4034 -0.1808
14874TIP3    H166113   5.505   0.825  14.962  1.3788 -1.5364  2.0383
14874TIP3    H266114   5.458   0.757  14.835 -2.6597  0.2916  2.4601
14875TIP3   OH266115   0.753   0.305  11.290  0.6488 -0.1238  0.3064
14875TIP3    H166116   0.838   0.307  11.246 -0.0833 -0.0347 -1.1564
14875TIP3    H266117   0.690   0.295  11.218 -0.5226 -0.9839  1.4343
14876TIP3   OH266118   3.099   1.437  11.996  0.3886 -0.0152  0.0013
14876TIP3    H166119   3.156   1.383  11.941  0.0588 -0.3117 -0.0566
14876TIP3    H266120   3.015   1.391  11.994 -0.2492  1.1649 -1.0712
14877TIP3   OH266121   1.093   1.425   2.063  0.2570 -0.6820  0.3417
14877TIP3    H166122   1.038   1.468   1.997 -1.1476  0.0252  1.9195
14877TIP3    H266123   1.173   1.478   2.066  0.9798 -1.6118 -1.8492
14878TIP3   OH266124   5.203   4.795   0.546  0.0563  0.0230  0.3596
14878TIP3    H166125   5.149   4.783   0.468 -0.7979 -1.8438  1.1978
14878TIP3    H266126   5.196   4.711   0.592  0.2788  1.2105  2.6034
14879TIP3   OH266127   5.504   4.388  12.727 -0.1287 -0.4153  0.4833
14879TIP3    H166128   5.451   4.309  12.731 -1.9738  0.8276  1.5943
14879TIP3    H266129   5.474   4.433  12.648 -0.4053  0.0656  0.8592
14880TIP3   OH266130   5.723   2.734  13.504 -0.4407 -0.3169  0.3792
14880TIP3    H166131   5.805   2.737  13.454 -1.3191 -0.3582 -1.1236
14880TIP3    H266132   5.746   2.766  13.591  0.4642  3.0621 -1.0193
14881TIP3   OH266133   0.920   0.039   2.216  0.2346  0.3302  1.0707
14881TIP3    H166134   0.832   0.075   2.211 -0.1386 -0.5697  1.0000
14881TIP3    H266135   0.929  -0.016   2.138  1.5580  1.9162  0.0746
14882TIP3   OH266136   6.004   4.529   4.876 -0.7762 -0.4122  0.1081
14882TIP3    H166137   5.932   4.493   4.824 -0.4935 -0.0395 -0.5514
14882TIP3    H266138   5.977   4.618   4.896 -1.1091 -0.7163  1.0399
14883TIP3   OH266139   4.857   4.610   5.174  0.1785 -0.2130 -0.2054
14883TIP3    H166140   4.824   4.532   5.219 -0.7984 -0.4579 -1.3252
14883TIP3    H266141   4.952   4.602   5.180  0.0806 -1.1878  0.2087
14884TIP3   OH266142   2.155   1.721   6.292  0.1689 -0.0937 -0.3269
14884TIP3    H166143   2.230   1.696   6.346 -0.1397  0.3606  0.3186
14884TIP3    H266144   2.130   1.808   6.324  0.9788  0.8845 -2.2681
14885TIP3   OH266145   0.211   3.269  12.993  0.7143 -0.2364 -0.0455
14885TIP3    H166146   0.212   3.302  13.083 -0.2001 -2.7807  0.9692
14885TIP3    H266147   0.233   3.176  13.002 -2.8185 -1.3816 -2.0581
14886TIP3   OH266148   2.664   0.690  12.354 -0.5381  0.2634  0.2505
14886TIP3    H166149   2.720   0.694  12.277  0.1011  1.7970  0.7841
14886TIP3    H266150   2.687   0.607  12.396  0.3441  0.2398 -0.2800
14887TIP3   OH266151   5.066   0.027  11.583  0.1994  0.1466 -0.3154
14887TIP3    H166152   5.063   0.116  11.549  1.7211  0.4269  0.2724
14887TIP3    H266153   4.990   0.021  11.641  0.2800  1.1741 -0.0924
14888TIP3   OH266154   6.620   1.695  12.630 -0.8875 -0.5006  0.3990
14888TIP3    H166155   6.633   1.680  12.537  1.8416 -1.4591  0.8982
14888TIP3    H266156   6.581   1.782  12.635 -0.3747 -0.1321 -1.5802
14889TIP3   OH266157   4.050   3.193  13.098 -0.2531 -0.2612  0.4774
14889TIP3    H166158   4.134   3.152  13.080 -0.0230  0.2646  0.3560
14889TIP3    H266159   4.061   3.234  13.184 -0.4691 -0.4198  0.5810
14890TIP3   OH266160   1.793   0.907   0.759 -0.2898 -0.0089  0.0863
14890TIP3    H166161   1.799   0.825   0.710 -0.1024 -0.1835  0.3989
14890TIP3    H266162   1.880   0.945   0.753 -0.3327  0.0880  0.0802
14891TIP3   OH266163   3.945   4.557   1.735 -0.2668  0.2613 -0.1463
14891TIP3    H166164   3.917   4.546   1.826  1.6298 -0.5398  0.3532
14891TIP3    H266165   3.866   4.538   1.684 -1.1176 -0.1551  1.2919
14892TIP3   OH266166   0.120   2.597   0.366 -0.0312  0.0810  0.7499
14892TIP3    H166167   0.108   2.550   0.284 -0.7887 -0.8616  1.3962
14892TIP3    H266168   0.057   2.558   0.426 -0.4461  1.6982  1.3957
14893TIP3   OH266169   4.771   5.235   4.547 -0.2869  0.1738  0.0077
14893TIP3    H166170   4.785   5.142   4.527 -0.1277  0.1312  0.3061
14893TIP3    H266171   4.744   5.236   4.639 -1.2554  0.3461 -0.2797
14894TIP3   OH266172   0.213   0.958  13.190  0.2781 -0.4433 -0.0730
14894TIP3    H166173   0.205   0.907  13.271  1.8931  0.3049  0.5956
14894TIP3    H266174   0.184   0.899  13.121 -1.5459 -0.9402  1.1049
14895TIP3   OH266175   5.292   4.849  13.876  0.1482  0.2418 -1.1111
14895TIP3    H166176   5.303   4.816  13.786 -1.4872 -1.9966 -0.5455
14895TIP3    H266177   5.201   4.879  13.879  0.4333  1.0507 -0.4296
14896TIP3   OH266178   0.356   1.284  16.751  0.0906 -0.1257 -0.0095
14896TIP3    H166179   0.385   1.201  16.789  0.7489  0.2588  0.3554
14896TIP3    H266180   0.266   1.295  16.781 -0.4123 -1.2959 -1.0692
14897TIP3   OH266181   2.740   3.687   6.273 -0.7013  0.6099  0.5266
14897TIP3    H166182   2.824   3.723   6.300 -0.9919 -0.4503  2.9805
14897TIP3    H266183   2.676   3.734   6.327 -1.4816 -0.1881  0.3017
14898TIP3   OH266184   6.575   5.141   0.024  0.1586 -0.1476 -0.6292
14898TIP3    H166185   6.541   5.204   0.087  0.5208 -0.1878 -0.3924
14898TIP3    H266186   6.647   5.098   0.070 -1.2801 -2.0670 -0.0836
14899TIP3   OH266187   5.508   0.595  14.130  0.6280  0.1029  0.2065
14899TIP3    H166188   5.530   0.528  14.065  0.0406 -3.1542  3.2337
14899TIP3    H266189   5.583   0.595  14.190  0.0353  1.2504  0.9505
14900TIP3   OH266190   3.402   5.374  14.066  0.2997  0.2648 -0.6726
14900TIP3    H166191   3.411   5.414  13.979  0.4068 -0.4335 -0.9843
14900TIP3    H266192   3.486   5.392  14.109 -0.3921  2.1633 -0.0511
14901TIP3   OH266193   5.578   5.855  11.465 -0.0849 -0.9642  0.1887
14901TIP3    H166194   5.627   5.829  11.387 -1.3392 -0.6597 -0.7101
14901TIP3    H266195   5.492   5.815  11.454 -0.1601 -1.1971  1.5799
14902TIP3   OH266196   2.257   4.460   3.508  0.3391  0.0798  0.2296
14902TIP3    H166197   2.307   4.492   3.433  0.3143 -2.9848 -1.1544
14902TIP3    H266198   2.165   4.469   3.481  0.3560 -2.3140 -0.7016
14903TIP3   OH266199   3.349   4.858   4.127 -0.4343 -0.5162 -0.6129
14903TIP3    H166200   3.422   4.910   4.092 -2.0804  2.1143 -0.2242
14903TIP3    H266201   3.287   4.922   4.160 -1.4042 -2.8091  2.2586
14904TIP3   OH266202   4.591   6.078  12.699 -0.1002  0.6919 -0.1481
14904TIP3    H166203   4.543   6.042  12.624 -1.0846 -0.6149  1.0799
14904TIP3    H266204   4.652   6.140  12.660 -1.1680  0.6563 -1.9627
14905TIP3   OH266205   6.447   0.565  15.169  0.1437  0.2162  0.5461
14905TIP3    H166206   6.392   0.565  15.247  0.8536  0.3849  1.0486
14905TIP3    H266207   6.474   0.473  15.158 -1.6977 -0.1876 -0.7421
14906TIP3   OH266208   5.923   5.395  13.218  0.1737 -0.0733 -0.4977
14906TIP3    H166209   6.014   5.393  13.190  1.1341 -1.9218  2.5529
14906TIP3    H266210   5.924   5.363  13.308 -3.3390  1.0868  0.0644
14907TIP3   OH266211   6.609   6.678   2.239  0.0779  0.1593  0.0540
14907TIP3    H166212   6.522   6.698   2.274  0.6601  0.0543  1.5872
14907TIP3    H266213   6.637   6.600   2.286  1.0121  0.2036 -0.4165
14908TIP3   OH266214   3.144   5.737  16.675 -0.1502 -0.8403  0.1656
14908TIP3    H166215   3.191   5.654  16.673 -0.5607 -1.1015  1.0111
14908TIP3    H266216   3.177   5.782  16.753  2.4425  1.2245 -2.0249
14909TIP3   OH266217   2.504   4.559  17.234  0.0253 -0.0299 -0.2392
14909TIP3    H166218   2.537   4.543  17.146  0.1890 -0.9011 -0.0321
14909TIP3    H266219   2.411   4.537  17.229  0.2791 -1.2527  0.0805
14910TIP3   OH266220   2.467   0.656  14.688  0.1795 -0.1375 -0.4178
14910TIP3    H166221   2.435   0.631  14.775  0.5590 -3.6681 -1.2083
14910TIP3    H266222   2.390   0.692  14.644 -0.5316 -0.2615  0.7020
14911TIP3   OH266223   1.033   3.946  11.290 -0.1945  0.4345  0.0243
14911TIP3    H166224   0.953   3.999  11.281  0.5818  1.9520  1.7364
14911TIP3    H266225   1.047   3.940  11.385  0.1383 -2.2815 -0.1677
14912TIP3   OH266226   3.846   2.789   4.005 -0.1234 -0.4566  0.0184
14912TIP3    H166227   3.792   2.785   4.084  0.4005  0.8190  0.4573
14912TIP3    H266228   3.826   2.708   3.958 -3.6820  0.7267 -0.6707
14913TIP3   OH266229   3.985   6.715   0.597  0.4770 -0.0197  0.4659
14913TIP3    H166230   3.982   6.642   0.534 -0.2528  0.1272  0.3281
14913TIP3    H266231   3.923   6.779   0.562  0.0919  0.0754  1.3260
14914TIP3   OH266232   5.926   4.070   3.751 -0.4490  0.1318  0.8590
14914TIP3    H166233   5.841   4.070   3.707  0.7870  0.1736 -1.6413
14914TIP3    H266234   5.986   4.031   3.686  1.7676  1.7628  1.8691
14915TIP3   OH266235   2.255   1.804   5.394  0.1059 -0.3976  0.4513
14915TIP3    H166236   2.193   1.836   5.460 -0.7755  1.2059 -1.1010
14915TIP3    H266237   2.209   1.733   5.349 -0.3285  0.2735 -0.1797
14916TIP3   OH266238   4.605   1.997  15.462 -0.3548 -0.6195  0.1550
14916TIP3    H166239   4.610   2.079  15.413 -1.9508  0.2524  1.3827
14916TIP3    H266240   4.681   2.000  15.521 -1.0839  0.6013  1.0746
14917TIP3   OH266241   0.384   5.827  15.873  0.1013 -0.2451 -0.1905
14917TIP3    H166242   0.383   5.875  15.956 -0.0719 -0.2417 -0.1947
14917TIP3    H266243   0.313   5.763  15.881 -1.3892  1.2434 -1.2106
14918TIP3   OH266244   4.255   3.322  14.279 -0.0910 -0.5921  0.1407
14918TIP3    H166245   4.191   3.339  14.210 -1.5286  2.4400  2.1188
14918TIP3    H266246   4.338   3.352  14.243 -0.8606  1.1257 -0.2534
14919TIP3   OH266247   2.382   0.862   5.259  0.3834 -0.1680 -0.1786
14919TIP3    H166248   2.298   0.829   5.229  0.1275  0.4655 -0.1519
14919TIP3    H266249   2.400   0.812   5.339  0.7507 -1.3690 -1.0035
14920TIP3   OH266250   1.590   2.019  10.713  0.6704 -0.2780  0.4521
14920TIP3    H166251   1.558   2.109  10.725  2.0205  0.5830 -1.9469
14920TIP3    H266252   1.544   1.988  10.635 -0.2957 -1.9263  1.6681
14921TIP3   OH266253   6.759   2.292   1.080 -0.3831 -0.4329 -0.5027
14921TIP3    H166254   6.806   2.257   1.004 -1.4250  0.1213 -1.4175
14921TIP3    H266255   6.679   2.239   1.085 -1.3562  0.9491 -1.1209
14922TIP3   OH266256   2.213   4.629  14.177 -0.0794  0.2804  0.4794
14922TIP3    H166257   2.226   4.669  14.263 -2.1358  1.4934  0.2419
14922TIP3    H266258   2.266   4.683  14.118  0.8731 -0.2061  0.8674
14923TIP3   OH266259   0.504   2.118   4.825 -0.6210 -0.6404 -0.4818
14923TIP3    H166260   0.540   2.199   4.788 -0.8513 -0.7857 -1.0293
14923TIP3    H266261   0.573   2.085   4.882 -0.2371 -0.4379 -0.8197
14924TIP3   OH266262   3.440   1.935   1.854  0.1956 -0.3510 -0.3712
14924TIP3    H166263   3.527   1.911   1.822  0.2201 -0.9462  0.1236
14924TIP3    H266264   3.416   2.013   1.804  1.0629 -0.1211 -0.4343
14925TIP3   OH266265   4.324   2.944  10.856 -0.5779 -0.0815  0.1717
14925TIP3    H166266   4.351   2.852  10.853 -1.0051 -0.2513  1.3355
14925TIP3    H266267   4.404   2.993  10.837 -0.4644 -0.6944 -1.0365
14926TIP3   OH266268   4.007   3.060   4.741 -0.1861 -0.6023  0.5520
14926TIP3    H166269   3.951   3.132   4.769 -0.3029  0.1791 -1.6110
14926TIP3    H266270   3.945   2.992   4.712 -0.0668 -0.1612 -0.7974
14927TIP3   OH266271   6.447   3.059  13.168  0.3462 -0.1023 -0.3758
14927TIP3    H166272   6.534   3.085  13.199 -0.4732  2.2543  0.0418
14927TIP3    H266273   6.406   3.018  13.244  0.0619  1.3863  0.2830
14928TIP3   OH266274   6.738   0.063  17.036  0.5166 -0.1685  0.2564
14928TIP3    H166275   6.699   0.030  16.955  0.3046 -0.1175  0.3390
14928TIP3    H266276   6.681   0.136  17.062  1.1015  0.3846 -0.0257
14929TIP3   OH266277   1.611   4.695   0.734  0.2733 -0.2237  0.4108
14929TIP3    H166278   1.523   4.731   0.745  1.1619  1.9269  0.6327
14929TIP3    H266279   1.610   4.657   0.646 -1.3888 -1.7829  1.0687
14930TIP3   OH266280   1.584   0.385  14.394  0.0449  0.2180  0.0221
14930TIP3    H166281   1.498   0.390  14.435  0.5645  0.1329  1.1374
14930TIP3    H266282   1.568   0.344  14.309 -0.9806  0.0136  0.3143
14931TIP3   OH266283   2.935   1.994   2.935 -0.3228  0.1029 -0.1546
14931TIP3    H166284   2.844   1.967   2.946 -0.5974  0.2194 -1.9765
14931TIP3    H266285   2.929   2.083   2.901  0.5075  0.5339  0.7839
14932TIP3   OH266286   3.876   5.853  15.343 -0.5087 -0.4787  0.0506
14932TIP3    H166287   3.966   5.823  15.355 -1.0772 -2.3500 -0.2539
14932TIP3    H266288   3.883   5.925  15.281  0.9902  0.7040  1.5510
14933TIP3   OH266289   3.781   4.100   4.205  0.2906  0.2944 -0.1240
14933TIP3    H166290   3.766   4.107   4.299  1.9228  1.6022  0.0708
14933TIP3    H266291   3.733   4.022   4.178  1.0035 -0.9372  2.0655
14934TIP3   OH266292   1.616   0.961   5.665 -0.8662  0.1501  0.8004
14934TIP3    H166293   1.679   1.011   5.613  0.7249 -0.5690  2.0028
14934TIP3    H266294   1.537   0.958   5.610 -0.3123  2.1734 -0.1734
14935TIP3   OH266295   2.707   6.219   4.580  0.2279 -0.1337  0.2914
14935TIP3    H166296   2.646   6.232   4.507  1.0895  0.4412 -0.3313
14935TIP3    H266297   2.651   6.216   4.658 -0.6505 -0.2523 -0.3343
14936TIP3   OH266298   0.600   4.013  13.637  0.1016 -0.0967  0.6003
14936TIP3    H166299   0.556   3.928  13.637 -0.8972  0.3986 -0.4346
14936TIP3    H266300   0.529   4.076  13.630  0.8850  0.7915  0.6065
14937TIP3   OH266301   3.264   4.076   5.836 -0.8811  0.7205  0.2557
14937TIP3    H166302   3.274   4.095   5.929  1.7079  0.7864 -0.0031
14937TIP3    H266303   3.341   4.024   5.813 -0.8639  1.6944 -2.1095
14938TIP3   OH266304   4.040   2.464  12.423 -0.2691 -0.0357 -0.0313
14938TIP3    H166305   4.098   2.397  12.388  1.3227  0.8401  0.8724
14938TIP3    H266306   3.998   2.503  12.345 -0.1476 -1.1095 -0.6411
14939TIP3   OH266307   0.855   5.542   4.640  0.0296  0.2391 -0.1012
14939TIP3    H166308   0.942   5.545   4.679 -0.0287  2.2486 -0.0782
14939TIP3    H266309   0.838   5.449   4.626  1.1053 -0.3738  2.3187
14940TIP3   OH266310   2.859   0.685  13.854  0.1723 -0.0075  0.1007
14940TIP3    H166311   2.765   0.693  13.872  0.0192  0.9180 -1.0814
14940TIP3    H266312   2.892   0.775  13.862  0.8988 -0.2802  0.1646
14941TIP3   OH266313   3.310   1.483  11.613 -0.4339  0.1814  0.1686
14941TIP3    H166314   3.325   1.409  11.555 -1.3542  0.3441 -0.2888
14941TIP3    H266315   3.330   1.560  11.559  1.6402  0.2516  0.9812
14942TIP3   OH266316   1.081   0.380   3.859  0.0162  0.4171 -0.1317
14942TIP3    H166317   1.028   0.311   3.898 -2.2755  1.9206 -0.5043
14942TIP3    H266318   1.107   0.345   3.774 -0.7795 -0.1632 -0.1352
14943TIP3   OH266319   0.015   6.670   2.451 -0.2068  0.6258 -0.5747
14943TIP3    H166320   0.041   6.578   2.443 -0.8929  0.2330  1.4605
14943TIP3    H266321   0.091   6.713   2.492 -0.1839  0.8105 -0.8099
14944TIP3   OH266322   1.903   5.322   2.354  0.2058 -0.1893 -0.5067
14944TIP3    H166323   1.973   5.258   2.368  0.4881  0.2273  0.0077
14944TIP3    H266324   1.930   5.369   2.275 -0.0340 -0.7427 -0.9235
14945TIP3   OH266325   4.797   0.860   2.977  0.3997  0.3477  0.2440
14945TIP3    H166326   4.875   0.842   3.030 -0.4416  0.7030  1.6343
14945TIP3    H266327   4.768   0.947   3.006 -0.7821  0.0192  0.0639
14946TIP3   OH266328   1.688   1.499   0.546 -0.3315  0.1743 -0.1734
14946TIP3    H166329   1.743   1.570   0.579 -1.9283  0.4427  2.0606
14946TIP3    H266330   1.614   1.543   0.505 -0.7998 -0.1719  0.2895
14947TIP3   OH266331   0.253   0.050   5.091  0.3238 -0.3287  0.2809
14947TIP3    H166332   0.229  -0.037   5.121 -1.5023 -0.2446 -0.8848
14947TIP3    H266333   0.307   0.086   5.162 -0.6738 -1.5947  1.7005
14948TIP3   OH266334   6.449   5.912   2.065 -0.2423 -0.0836  0.4191
14948TIP3    H166335   6.424   5.885   2.153 -2.3129  1.1563  0.2452
14948TIP3    H266336   6.441   5.832   2.012  0.0965 -0.6139  1.1608
14949TIP3   OH266337   2.988   5.981   3.008  0.5354  0.4558  0.3186
14949TIP3    H166338   3.046   6.026   3.069  1.5593 -0.9997  0.4412
14949TIP3    H266339   3.031   5.897   2.992 -0.6927  0.0504 -0.9097
14950TIP3   OH266340   6.085   4.252  16.534  0.0250 -0.6324  0.1032
14950TIP3    H166341   6.064   4.234  16.626  1.2844  0.1186  0.5500
14950TIP3    H266342   6.075   4.168  16.490 -0.5607 -1.0020  0.9389
14951TIP3   OH266343   2.742   0.421   1.565 -0.2631  0.3625 -0.3220
14951TIP3    H166344   2.750   0.489   1.632  1.2701 -1.9277  1.9195
14951TIP3    H266345   2.817   0.434   1.508  0.4359  0.0946  0.5343
14952TIP3   OH266346   2.602   5.702  12.504 -0.0927  0.2255  0.1646
14952TIP3    H166347   2.589   5.629  12.564  2.6710 -1.9832 -1.7515
14952TIP3    H266348   2.525   5.699  12.446  1.7698 -3.7835 -2.3600
14953TIP3   OH266349   6.595   6.472  16.181  0.1753 -0.3365 -0.0802
14953TIP3    H166350   6.658   6.434  16.242 -0.8780  0.2384  1.4028
14953TIP3    H266351   6.524   6.505  16.236 -0.8745  0.0900 -1.6216
14954TIP3   OH266352   0.530   4.447   2.067 -0.2022 -0.1420  0.1664
14954TIP3    H166353   0.579   4.423   2.146 -2.8975 -0.7192  1.7369
14954TIP3    H266354   0.457   4.501   2.100 -2.1282 -1.4826 -1.7555
14955TIP3   OH266355   2.119   6.131  11.448 -0.1830  0.2681 -0.1096
14955TIP3    H166356   2.044   6.074  11.464 -0.5914  1.0397  0.7611
14955TIP3    H266357   2.194   6.071  11.442 -0.5513 -0.3345  1.1672
14956TIP3   OH266358   5.788   4.789   1.949 -0.1117  0.6543  0.5517
14956TIP3    H166359   5.869   4.746   1.923  0.5619  0.9000  2.2083
14956TIP3    H266360   5.719   4.739   1.905  0.9564  0.8093 -1.3425
14957TIP3   OH266361   1.587   2.571  16.586 -0.3419 -0.2092  0.6491
14957TIP3    H166362   1.651   2.641  16.596 -0.1670 -0.3466  0.4878
14957TIP3    H266363   1.535   2.574  16.667 -0.2647  0.0352  0.6911
14958TIP3   OH266364   2.602   5.368   1.967 -0.3082 -0.0089 -0.2756
14958TIP3    H166365   2.585   5.458   1.995  0.8061  0.2360 -0.3558
14958TIP3    H266366   2.539   5.352   1.897 -2.3154 -0.2185  1.5582
14959TIP3   OH266367   2.306   4.926  12.516  0.1776 -0.3297 -0.2212
14959TIP3    H166368   2.377   4.984  12.544 -0.1548  0.1662 -0.3905
14959TIP3    H266369   2.262   4.901  12.598  0.0062  0.0760 -0.1861
14960TIP3   OH266370   6.149   4.834  13.542  0.1989 -0.3578 -0.1017
14960TIP3    H166371   6.206   4.903  13.576 -0.2497  0.2527 -0.5670
14960TIP3    H266372   6.060   4.864  13.562 -0.0586 -0.1256 -1.5120
14961TIP3   OH266373   4.473   2.847   0.436  0.1036 -0.2101 -0.5376
14961TIP3    H166374   4.491   2.765   0.390 -0.5345 -0.0191 -1.1248
14961TIP3    H266375   4.457   2.911   0.367  1.2849  0.5731 -0.0907
14962TIP3   OH266376   0.956   3.415   1.443 -0.1571  0.1618  0.3935
14962TIP3    H166377   0.927   3.502   1.472  2.1981  1.4414 -0.9573
14962TIP3    H266378   0.875   3.374   1.411 -1.2363  2.0366  0.5796
14963TIP3   OH266379   6.084   4.984   3.590 -0.6646 -0.5149  0.8284
14963TIP3    H166380   6.037   4.993   3.673  2.1226  0.3954  2.3826
14963TIP3    H266381   6.089   4.889   3.576 -0.2266 -0.7295  2.2860
14964TIP3   OH266382   4.063   5.370  13.178 -0.1697  0.1918 -0.0821
14964TIP3    H166383   4.088   5.434  13.112  0.9437 -0.6654 -0.4885
14964TIP3    H266384   3.990   5.322  13.138 -0.2995  0.4805 -0.1973
14965TIP3   OH266385   0.777   4.543   4.335 -0.1887 -0.2342 -0.0860
14965TIP3    H166386   0.752   4.454   4.310 -0.2222  0.1082 -1.3362
14965TIP3    H266387   0.873   4.539   4.343  0.1608  0.2997 -3.1943
14966TIP3   OH266388   6.398   6.219   2.137 -0.3414  0.1526  0.4612
14966TIP3    H166389   6.422   6.127   2.122 -0.8910 -0.0161  0.6208
14966TIP3    H266390   6.442   6.267   2.067 -0.2468 -0.2596  0.2358
14967TIP3   OH266391   3.896   0.776   2.871  0.2107 -0.1074  0.2118
14967TIP3    H166392   3.828   0.778   2.937 -1.3785 -1.1220 -1.3386
14967TIP3    H266393   3.869   0.706   2.811  2.3133 -0.1434 -0.7442
14968TIP3   OH266394   1.418   4.153   3.064  0.5968  0.0867 -0.6510
14968TIP3    H166395   1.366   4.220   3.019  0.6208  0.1220 -0.6260
14968TIP3    H266396   1.496   4.201   3.095  1.2507 -0.2231 -1.7797
14969TIP3   OH266397   2.396   4.356   2.579  0.4236 -0.0140 -0.0876
14969TIP3    H166398   2.402   4.451   2.588  1.4521  0.0632 -1.4020
14969TIP3    H266399   2.487   4.326   2.577  0.1634 -0.7712 -2.0754
14970TIP3   OH266400   0.671   0.179   2.162 -0.3087  0.1870  0.1157
14970TIP3    H166401   0.684   0.268   2.194  0.9692 -0.2868  0.9565
14970TIP3    H266402   0.635   0.132   2.238 -2.7798  0.4169 -0.8787
14971TIP3   OH266403   0.155   6.629   5.208  0.2133 -0.1097  0.0605
14971TIP3    H166404   0.077   6.611   5.155  1.1598  1.0438 -1.7648
14971TIP3    H266405   0.217   6.560   5.183 -0.3342 -1.2881  1.8325
14972TIP3   OH266406   4.047   1.320  13.929 -0.2240  0.1858 -0.4781
14972TIP3    H166407   4.014   1.233  13.952  1.7578 -0.7670 -1.1209
14972TIP3    H266408   4.060   1.316  13.835  0.2339  1.0493 -0.4532
14973TIP3   OH266409   2.139   2.255  17.258 -0.6234  0.0727  0.0512
14973TIP3    H166410   2.061   2.274  17.310 -1.1019  0.8171 -0.9168
14973TIP3    H266411   2.118   2.172  17.214 -0.6132 -0.0459  0.2658
14974TIP3   OH266412   3.593   3.324  11.306  0.2078 -0.2411 -0.1862
14974TIP3    H166413   3.662   3.384  11.278  2.3181 -1.0333  3.0194
14974TIP3    H266414   3.626   3.237  11.283 -1.3436 -0.4457 -1.7836
14975TIP3   OH266415   6.531   1.256  14.341 -0.2849 -0.3314  0.3693
14975TIP3    H166416   6.548   1.175  14.294 -0.4568  1.1535 -2.3774
14975TIP3    H266417   6.436   1.269  14.333  0.0718  1.4470 -1.5698
14976TIP3   OH266418   3.333   2.701  14.371 -0.0031 -0.5906 -0.2937
14976TIP3    H166419   3.382   2.743  14.442  0.7909 -1.1132 -0.5298
14976TIP3    H266420   3.249   2.679  14.410  0.2533 -0.4329  0.3515
14977TIP3   OH266421   2.547   0.966  12.380 -0.2104  0.7833 -0.0088
14977TIP3    H166422   2.628   1.009  12.355  0.8103 -0.6309  0.7951
14977TIP3    H266423   2.557   0.875  12.350 -1.8738  0.7914 -0.7072
14978TIP3   OH266424   2.778   1.252  11.141  0.5410 -0.2948 -0.0553
14978TIP3    H166425   2.711   1.247  11.074 -0.8258 -0.8973  1.3191
14978TIP3    H266426   2.853   1.292  11.098 -0.7491  0.5079 -1.5728
14979TIP3   OH266427   2.925   5.589   3.961 -0.3424  0.8532 -0.3201
14979TIP3    H166428   2.866   5.582   4.037 -0.8386  0.0764 -0.7754
14979TIP3    H266429   2.895   5.521   3.901  1.1979  0.2600 -0.4370
14980TIP3   OH266430   3.633   0.671  16.807  0.8853 -0.6060 -0.2574
14980TIP3    H166431   3.708   0.710  16.761  0.6573 -0.9531 -0.9257
14980TIP3    H266432   3.564   0.667  16.742  1.0233 -2.4935 -0.3321
14981TIP3   OH266433   6.053   0.634   6.111  0.2766  0.8421 -0.5860
14981TIP3    H166434   5.981   0.577   6.087  1.4739 -0.0684 -2.1092
14981TIP3    H266435   6.114   0.629   6.037  0.8107  3.4121 -0.3560
14982TIP3   OH266436   4.918   3.633  11.808 -0.1619  0.3936 -0.2843
14982TIP3    H166437   4.823   3.644  11.801 -0.4509 -0.6244  1.7941
14982TIP3    H266438   4.940   3.570  11.738 -1.2012 -0.3218  0.0207
14983TIP3   OH266439   2.508   3.705   0.353 -0.0030 -0.2923  0.1436
14983TIP3    H166440   2.498   3.612   0.334 -0.1013 -0.2824  0.1489
14983TIP3    H266441   2.466   3.717   0.438  2.3252 -0.7579  1.4007
14984TIP3   OH266442   3.880   4.026  12.029 -0.6600  0.3088 -0.1409
14984TIP3    H166443   3.948   4.086  11.998  1.3586 -1.0072  1.5503
14984TIP3    H266444   3.799   4.077  12.026  0.5891  2.3136 -1.0466
14985TIP3   OH266445   1.157   6.413  13.547 -0.8250  0.1556  0.0257
14985TIP3    H166446   1.169   6.364  13.465 -0.8492  0.6680 -0.2873
14985TIP3    H266447   1.211   6.367  13.611 -2.1520 -1.3043  0.1567
14986TIP3   OH266448   1.993   3.285   4.280  0.6390  0.4598  0.7466
14986TIP3    H166449   2.020   3.205   4.325  0.0306 -0.4577 -0.4862
14986TIP3    H266450   2.025   3.356   4.336  1.0146 -0.6399  1.9569
14987TIP3   OH266451   3.701   5.744  12.787  0.1261  0.1911 -0.4579
14987TIP3    H166452   3.790   5.725  12.815 -0.6938 -1.7562  0.9532
14987TIP3    H266453   3.699   5.839  12.777  2.1343  0.3405  0.2905
14988TIP3   OH266454   5.931   5.303   2.470 -0.3877  0.4610 -0.1200
14988TIP3    H166455   5.871   5.352   2.414 -0.9626  0.9940  0.9643
14988TIP3    H266456   5.877   5.238   2.514  0.3714 -1.2064 -1.5630
14989TIP3   OH266457   0.472   2.740  12.567 -0.0291  0.2790 -0.0959
14989TIP3    H166458   0.488   2.793  12.645  0.3129  0.5490 -0.3513
14989TIP3    H266459   0.475   2.802  12.495  2.9855 -0.4940 -0.6654
14990TIP3   OH266460   4.757   3.621   1.923 -0.0762  0.5576 -0.3860
14990TIP3    H166461   4.782   3.597   2.012 -0.1766  1.0048 -0.2337
14990TIP3    H266462   4.841   3.637   1.879  0.0404 -1.0735 -0.7880
14991TIP3   OH266463   0.999   0.311   2.297  0.0866  0.0045 -0.0727
14991TIP3    H166464   0.981   0.217   2.288 -1.2191  0.1250  1.0501
14991TIP3    H266465   1.093   0.317   2.311 -0.2536 -1.4200  3.1530
14992TIP3   OH266466   6.724   5.412  12.735  0.4061  0.2460 -0.1016
14992TIP3    H166467   6.676   5.380  12.659 -2.7678  0.2192  1.7901
14992TIP3    H266468   6.753   5.333  12.780  1.5310  0.2451 -0.8237
14993TIP3   OH266469   3.538   5.454  15.019  0.4621 -0.7289 -0.1863
14993TIP3    H166470   3.506   5.417  15.101  0.7684 -0.4131  0.0795
14993TIP3    H266471   3.469   5.435  14.956 -0.4646  0.3151  0.4717
14994TIP3   OH266472   5.657   1.653   6.769 -0.4573  0.5156  0.2885
14994TIP3    H166473   5.591   1.698   6.822 -0.1717 -0.4337  1.4515
14994TIP3    H266474   5.641   1.560   6.784  2.2394  0.2912  1.9428
14995TIP3   OH266475   4.230   1.388   5.903 -0.2252  0.1438  0.0003
14995TIP3    H166476   4.144   1.393   5.944  0.0346  2.4760  0.3589
14995TIP3    H266477   4.212   1.399   5.809 -0.3136  0.9775  0.1062
14996TIP3   OH266478   4.258   0.298  13.404  0.1104 -0.2341  0.2381
14996TIP3    H166479   4.306   0.219  13.381 -2.4885 -1.5533 -0.8650
14996TIP3    H266480   4.308   0.370  13.365  1.0800 -1.5705 -1.0021
14997TIP3   OH266481   5.100   0.308  11.622 -0.2360 -0.3444 -0.6627
14997TIP3    H166482   5.030   0.298  11.687 -0.5665 -3.0350 -1.3665
14997TIP3    H266483   5.072   0.381  11.567 -2.0241 -0.7758 -0.3485
14998TIP3   OH266484   6.290   0.059  10.737  0.2190 -0.0429  0.4459
14998TIP3    H166485   6.355   0.127  10.756 -0.3216  0.2171  1.3938
14998TIP3    H266486   6.215   0.107  10.700 -1.3557  0.3098  3.8551
14999TIP3   OH266487   1.733   6.748   0.012  0.1497  0.4029 -0.3159
14999TIP3    H166488   1.818   6.759  -0.031  0.9771 -0.1251  1.1347
14999TIP3    H266489   1.754   6.709   0.097 -1.5188  0.5890  0.2046
15000TIP3   OH266490   6.636   5.758   4.274  0.2928  0.3028  0.0334
15000TIP3    H166491   6.602   5.777   4.186  1.3569 -2.7153 -1.0987
15000TIP3    H266492   6.644   5.663   4.277  1.1908  0.4115  3.0828
15001TIP3   OH266493   1.621   2.908   3.157 -0.3878 -0.0257 -0.7227
15001TIP3    H166494   1.664   2.971   3.215 -1.8244  1.3322 -1.1097
15001TIP3    H266495   1.658   2.926   3.071  1.3098 -1.6485 -0.3578
15002TIP3   OH266496   5.742   2.794  12.567 -0.1895 -0.3598  0.9309
15002TIP3    H166497   5.716   2.784  12.658 -0.5557 -0.1044  0.8559
15002TIP3    H266498   5.664   2.769  12.517 -0.0772 -0.2359  0.6934
15003TIP3   OH266499   5.198   2.812  11.993  0.3939 -0.0712  0.5936
15003TIP3    H166500   5.182   2.778  11.905  1.5395 -1.1766  0.7953
15003TIP3    H266501   5.291   2.794  12.009  0.2364  0.2912  1.9506
15004TIP3   OH266502   3.825   1.518  14.720  0.1310  0.1800 -0.3823
15004TIP3    H166503   3.802   1.609  14.700  0.8856  0.8610  1.7465
15004TIP3    H266504   3.920   1.518  14.732 -0.0179 -0.6206  0.9238
15005TIP3   OH266505   5.703   1.880   4.342 -0.1204  0.3699 -0.0748
15005TIP3    H166506   5.761   1.824   4.290  0.3760 -0.3220  1.2110
15005TIP3    H266507   5.702   1.963   4.294  0.8523 -0.0511 -0.8462
15006TIP3   OH266508   3.053   0.294   1.461 -0.8435 -0.1069 -0.3508
15006TIP3    H166509   3.041   0.384   1.430 -0.1428 -0.1088 -0.6512
15006TIP3    H266510   3.063   0.242   1.381  3.1155  0.1938 -0.1796
15007TIP3   OH266511   2.329   2.518  17.209 -0.1772  0.2117  0.3858
15007TIP3    H166512   2.405   2.566  17.242  0.6804  0.8703 -2.3830
15007TIP3    H266513   2.358   2.481  17.126 -1.8761 -2.3429  0.8849
15008TIP3   OH266514   4.355   0.603  13.710  0.1989  0.1309 -0.6660
15008TIP3    H166515   4.349   0.645  13.624  0.7849  0.7085 -0.4251
15008TIP3    H266516   4.430   0.544  13.703  0.5243  0.5109 -0.4117
15009TIP3   OH266517   2.371   4.061   3.071 -0.2895  0.2358  0.2886
15009TIP3    H166518   2.426   4.114   3.013 -1.4300  0.2243 -0.8202
15009TIP3    H266519   2.314   4.124   3.116 -0.7949  0.0695 -0.1134
15010TIP3   OH266520   1.860   1.095  11.003 -0.2760  0.0611  0.0893
15010TIP3    H166521   1.870   1.116  10.910 -1.9811  0.0098 -0.1259
15010TIP3    H266522   1.862   1.000  11.006 -3.3349 -0.0690 -0.3255
15011TIP3   OH266523   4.272   3.380  16.884 -0.3657 -0.4089  0.5953
15011TIP3    H166524   4.358   3.414  16.857 -0.9184  0.5292 -0.0030
15011TIP3    H266525   4.290   3.331  16.964  0.7433 -0.2603  0.4450
15012TIP3   OH266526   2.046   2.183  12.114  0.2172 -0.0590 -0.0863
15012TIP3    H166527   1.962   2.229  12.104  0.2099  0.2263  1.2556
15012TIP3    H266528   2.053   2.130  12.034 -0.6395  0.8747 -0.7935
15013TIP3   OH266529   1.036   5.127   3.082 -0.5123  0.1619  0.4877
15013TIP3    H166530   1.105   5.191   3.098 -0.4149 -0.1517  1.3998
15013TIP3    H266531   0.965   5.177   3.042 -0.0045  0.6098  0.1382
15014TIP3   OH266532   5.424   5.813  16.292 -0.2253 -0.1360 -0.0042
15014TIP3    H166533   5.410   5.870  16.216  1.7484  2.2825  1.3732
15014TIP3    H266534   5.492   5.752  16.263 -0.0786  0.2318 -0.4550
15015TIP3   OH266535   3.560   5.249  16.075 -0.2413 -0.2514 -1.1267
15015TIP3    H166536   3.522   5.163  16.058  0.2352 -0.8005  0.4555
15015TIP3    H266537   3.577   5.286  15.988 -0.0908 -1.9155 -1.8247
15016TIP3   OH266538   4.881   6.721  13.710 -0.2431  0.0520 -0.1285
15016TIP3    H166539   4.834   6.657  13.656  0.9266  0.6126 -1.8568
15016TIP3    H266540   4.887   6.799  13.655 -0.8076  1.3385  1.5927
15017TIP3   OH266541   1.478   6.285  12.602 -0.6213 -0.9009 -0.3660
15017TIP3    H166542   1.473   6.275  12.507 -0.9286 -0.8269 -0.3577
15017TIP3    H266543   1.492   6.378  12.616 -0.7374 -0.8883 -0.3321
15018TIP3   OH266544   6.818   5.622   1.258  0.3209 -0.0607 -0.2209
15018TIP3    H166545   6.788   5.554   1.318  0.3665 -0.0409 -0.1765
15018TIP3    H266546   6.898   5.656   1.297  0.3559 -0.0541 -0.2975
15019TIP3   OH266547   6.022   3.140  16.599 -1.0550 -0.0168 -0.2395
15019TIP3    H166548   5.989   3.204  16.536 -0.7076 -0.0246 -0.4336
15019TIP3    H266549   5.948   3.124  16.658 -1.8029 -0.9847 -1.4162
15020TIP3   OH266550   5.420   6.318  13.155 -0.5892  0.5695  0.3326
15020TIP3    H166551   5.432   6.378  13.230  2.8875 -1.5272  1.5873
15020TIP3    H266552   5.427   6.231  13.193  2.2230 -0.5406 -2.5416
15021TIP3   OH266553   4.008   3.310  15.884 -0.4015 -0.4606  0.1248
15021TIP3    H166554   3.978   3.334  15.972 -0.0133  0.3248  0.0446
15021TIP3    H266555   4.052   3.226  15.897 -2.3455 -1.4962  0.2890
15022TIP3   OH266556   2.933   5.536   5.480 -0.5670  0.1781  0.4805
15022TIP3    H166557   2.935   5.631   5.472  1.4735  0.1606  0.6852
15022TIP3    H266558   2.886   5.519   5.562 -0.2870  1.0263  0.8144
15023TIP3   OH266559   2.755   2.858  13.935 -0.4029  0.1696  0.6746
15023TIP3    H166560   2.728   2.785  13.991 -0.2921 -0.7586 -0.4709
15023TIP3    H266561   2.838   2.829  13.896 -1.8545 -0.3955 -2.1487
15024TIP3   OH266562   0.940   2.629  17.263 -0.5613  0.2286  0.4665
15024TIP3    H166563   1.025   2.609  17.300 -1.1224  0.5891  1.9903
15024TIP3    H266564   0.933   2.573  17.185  0.8255 -0.1893  0.6456
15025TIP3   OH266565   1.852   6.687  14.011 -0.2051  0.1623  0.1042
15025TIP3    H166566   1.785   6.672  14.077  0.6267 -0.2536  0.8582
15025TIP3    H266567   1.934   6.688  14.059  0.3834  0.1729 -0.8796
15026TIP3   OH266568   6.710   2.579  13.730 -0.0272  0.6752 -0.1971
15026TIP3    H166569   6.690   2.662  13.687 -2.6769 -0.8086 -1.9439
15026TIP3    H266570   6.650   2.575  13.804 -0.0789  0.2057 -0.2616
15027TIP3   OH266571   5.496   4.590   5.778  0.2802 -0.1194 -0.6644
15027TIP3    H166572   5.497   4.499   5.749  0.4788  0.0277 -1.1236
15027TIP3    H266573   5.588   4.614   5.787  0.2503  0.4524 -1.8622
15028TIP3   OH266574   6.694   4.070   4.676 -0.0927  0.3537  0.7659
15028TIP3    H166575   6.684   3.980   4.706 -0.7683  0.3134  0.4450
15028TIP3    H266576   6.615   4.115   4.707 -1.0373  0.1966 -1.2963
15029TIP3   OH266577   0.898   2.875   3.751  0.7708  0.4718 -0.8180
15029TIP3    H166578   0.911   2.905   3.661  2.4845  0.4408 -0.6008
15029TIP3    H266579   0.987   2.861   3.784  0.1528  0.5207  0.8923
15030TIP3   OH266580   5.848   1.285  11.676  0.2496 -0.6884  0.3429
15030TIP3    H166581   5.812   1.214  11.730  1.0953 -0.8418  0.7160
15030TIP3    H266582   5.852   1.248  11.587 -0.8201 -0.5535  0.2421
15031TIP3   OH266583   0.438   2.510  12.711  0.3801  0.1531  0.3403
15031TIP3    H166584   0.418   2.593  12.667  0.6157 -1.4813 -3.0533
15031TIP3    H266585   0.524   2.524  12.751 -0.3411  2.0645  1.2785
15032TIP3   OH266586   6.012   1.778  14.916 -0.4339  0.7106 -0.0660
15032TIP3    H166587   6.026   1.821  15.000  1.3259 -0.5752  0.3218
15032TIP3    H266588   6.015   1.849  14.852 -0.9669  1.5887  0.8616
15033TIP3   OH266589   5.403   5.762   2.049 -0.1587 -0.1415  0.7617
15033TIP3    H166590   5.439   5.678   2.077 -0.7360 -0.2449  1.2048
15033TIP3    H266591   5.363   5.744   1.964  1.8450  0.2346 -0.2917
15034TIP3   OH266592   4.606   5.799   6.000 -0.0289  0.4651 -0.2735
15034TIP3    H166593   4.564   5.829   5.920 -0.7691  1.6072  0.5225
15034TIP3    H266594   4.541   5.742   6.042  0.1762  0.2437 -0.2502
15035TIP3   OH266595   4.036   2.918   4.197 -0.0469  0.5093  0.5603
15035TIP3    H166596   4.116   2.887   4.155 -0.5830  0.6500 -0.5872
15035TIP3    H266597   3.966   2.891   4.138 -0.7528  1.3821  0.9916
15036TIP3   OH266598   5.824   2.935   5.400  0.4524 -0.1039 -0.2040
15036TIP3    H166599   5.899   2.914   5.455 -0.1154 -1.5223  0.0475
15036TIP3    H266600   5.752   2.886   5.437  0.0406 -1.0291 -2.1575
15037TIP3   OH266601   5.356   5.476   3.130  0.4190  0.0424 -0.5670
15037TIP3    H166602   5.429   5.531   3.160 -0.5978  1.3949 -0.5113
15037TIP3    H266603   5.283   5.501   3.187  0.0713 -1.7653 -0.1926
15038TIP3   OH266604   4.201   3.737   2.122  0.1172  0.7869  0.5999
15038TIP3    H166605   4.108   3.759   2.127 -0.0569  0.0721  0.5457
15038TIP3    H266606   4.225   3.758   2.031  1.0474  4.9650  1.7158
15039TIP3   OH266607   5.829   3.637   3.501  0.3771 -0.5010  0.2788
15039TIP3    H166608   5.784   3.632   3.585 -0.5933  0.1542 -0.1906
15039TIP3    H266609   5.784   3.707   3.454  1.5819 -0.1627 -0.3869
15040TIP3   OH266610   2.105   1.222   1.203  0.5067  0.2887  0.0827
15040TIP3    H166611   2.036   1.162   1.174  0.0460  1.4376 -1.2090
15040TIP3    H266612   2.139   1.181   1.283 -0.5695 -1.1153 -0.1509
15041TIP3   OH266613   2.645   2.219   2.898  0.2009 -0.3105  0.5080
15041TIP3    H166614   2.741   2.225   2.895  0.0314  2.9001  0.2972
15041TIP3    H266615   2.616   2.308   2.918 -2.8007 -0.9683 -0.7414
15042TIP3   OH266616   4.168   3.647  11.020 -0.1723 -0.0156 -0.0623
15042TIP3    H166617   4.096   3.628  11.081  0.0009  1.2915  0.5618
15042TIP3    H266618   4.225   3.707  11.068  1.1071 -0.6956 -0.7262
15043TIP3   OH266619   5.540   2.969   3.070  0.1320 -0.0264  0.1774
15043TIP3    H166620   5.602   3.004   3.135  0.7000 -0.5210 -0.0969
15043TIP3    H266621   5.474   2.924   3.122 -1.4496  2.7225  0.6391
15044TIP3   OH266622   3.466   3.809  13.785 -0.5675 -0.1852  0.7453
15044TIP3    H166623   3.500   3.754  13.714  0.5846  1.8177 -0.2874
15044TIP3    H266624   3.376   3.830  13.758  0.8389  3.0927 -1.7164
15045TIP3   OH266625   1.089   1.382  16.926  0.1747 -0.3159  0.6211
15045TIP3    H166626   1.123   1.306  16.974 -0.7409 -1.1403 -0.0068
15045TIP3    H266627   1.010   1.407  16.973  0.1769 -0.1000  0.5078
15046TIP3   OH266628   4.870   1.232  14.618 -0.1630 -0.5749 -0.1574
15046TIP3    H166629   4.791   1.281  14.596 -0.8997 -1.5971  0.1848
15046TIP3    H266630   4.908   1.281  14.691 -1.9356 -1.5694  1.4690
15047TIP3   OH266631   3.755   0.549  14.191 -0.2901  0.1245  0.4545
15047TIP3    H166632   3.675   0.510  14.156 -0.1532 -0.8063  1.1699
15047TIP3    H266633   3.826   0.498  14.152 -0.1473 -1.3104  2.5053
15048TIP3   OH266634   4.124   3.113   0.671  0.9654  0.2749  0.1928
15048TIP3    H166635   4.205   3.062   0.666  0.6297 -0.2984  0.5346
15048TIP3    H266636   4.124   3.167   0.591  0.8916 -0.9220 -0.6395
15049TIP3   OH266637   1.721   6.149  16.178  0.1718  0.1093  0.4322
15049TIP3    H166638   1.761   6.074  16.222  0.4197 -0.6723 -1.0857
15049TIP3    H266639   1.718   6.217  16.245  2.1112 -0.4882  1.1704
15050TIP3   OH266640   3.832   2.697  10.866  0.4157  0.2844  0.3906
15050TIP3    H166641   3.805   2.735  10.783 -0.4213  1.2753  1.0978
15050TIP3    H266642   3.925   2.718  10.873  0.0604  1.8867  0.5743
15051TIP3   OH266643   5.335   3.393  11.106  0.4714 -0.5326 -0.0435
15051TIP3    H166644   5.426   3.392  11.075  0.4780 -0.9510 -0.0176
15051TIP3    H266645   5.308   3.484  11.099  0.3277 -0.6872 -1.7195
15052TIP3   OH266646   5.039   4.677  15.304 -0.1444 -0.0845 -0.1765
15052TIP3    H166647   5.000   4.599  15.343 -0.5994 -0.2315 -0.9183
15052TIP3    H266648   5.117   4.694  15.357  1.8251 -2.9457 -1.9608
15053TIP3   OH266649   2.341   4.181  13.983  0.0236  0.1369  0.4581
15053TIP3    H166650   2.248   4.177  13.959  0.1263 -0.3621  0.1290
15053TIP3    H266651   2.341   4.197  14.077 -0.4014  0.0050  0.4828
15054TIP3   OH266652   2.022   1.824  13.186 -0.4110  0.4371 -0.1467
15054TIP3    H166653   2.085   1.893  13.208 -0.0901  0.2624 -0.5067
15054TIP3    H266654   1.968   1.815  13.265 -0.1172  0.7356  0.0909
15055TIP3   OH266655   3.549   2.330   3.175  0.1671  0.0654 -0.2304
15055TIP3    H166656   3.487   2.289   3.235 -2.1978  0.8795 -2.0626
15055TIP3    H266657   3.573   2.261   3.114  0.1836  0.0466 -0.2030
15056TIP3   OH266658   2.452   0.095   5.213  0.1375  0.0566  0.2030
15056TIP3    H166659   2.449   0.031   5.142  0.6077  1.2610 -0.9079
15056TIP3    H266660   2.543   0.122   5.218 -0.4278  2.1685 -0.7015
15057TIP3   OH266661   4.537   5.812   0.426  0.0977 -0.5310 -0.4446
15057TIP3    H166662   4.504   5.732   0.385  0.7743 -0.5847 -0.8943
15057TIP3    H266663   4.536   5.877   0.355  0.9178 -0.5232 -0.4534
15058TIP3   OH266664   3.069   1.597  14.572 -0.2192 -0.4623 -0.0661
15058TIP3    H166665   3.160   1.590  14.543  0.1120 -0.4700  0.9328
15058TIP3    H266666   3.032   1.510  14.558 -0.4796 -0.0977 -1.7590
15059TIP3   OH266667   5.214   4.971  11.623 -0.1709 -0.0105 -0.1458
15059TIP3    H166668   5.202   4.911  11.549  0.6355  0.8190 -0.9542
15059TIP3    H266669   5.127   4.979  11.662 -0.6296 -0.3283 -1.0932
15060TIP3   OH266670   6.132   1.852   3.264 -0.1908 -0.0807 -0.4036
15060TIP3    H166671   6.145   1.891   3.178  0.8750 -0.7369 -0.5544
15060TIP3    H266672   6.195   1.896   3.320  0.7432 -1.2790 -0.4878
15061TIP3   OH266673   5.972   0.690   3.231 -0.0529 -0.6222  0.1572
15061TIP3    H166674   5.954   0.754   3.300 -0.5621 -0.4434 -0.1419
15061TIP3    H266675   6.067   0.682   3.230 -0.0543 -0.8741  1.1148
15062TIP3   OH266676   5.067   4.767   2.724 -0.2558 -0.0171 -0.2744
15062TIP3    H166677   5.110   4.846   2.690  1.4042 -1.3308 -1.3307
15062TIP3    H266678   5.132   4.728   2.782 -0.6956 -1.1072 -0.5125
15063TIP3   OH266679   0.685   1.104   5.177 -0.2042 -0.1450  0.1315
15063TIP3    H166680   0.597   1.080   5.206 -0.6992  1.3428 -0.0820
15063TIP3    H266681   0.699   1.055   5.096 -0.7848 -0.4870  0.2395
15064TIP3   OH266682   2.906   1.735   0.904 -0.2817 -0.1356 -0.0062
15064TIP3    H166683   2.858   1.786   0.839 -0.7403 -0.3119  0.1964
15064TIP3    H266684   2.997   1.739   0.875 -0.6698 -1.3786 -1.4225
15065TIP3   OH266685   3.045   5.450  14.625 -0.3098  0.1273 -0.2005
15065TIP3    H166686   3.134   5.480  14.605 -0.6621  2.3099  1.2928
15065TIP3    H266687   2.992   5.482  14.552 -0.0374 -0.3043 -0.5908
15066TIP3   OH266688   4.040   2.303   4.240 -0.0284 -0.4948 -0.8169
15066TIP3    H166689   3.970   2.250   4.277  1.0043 -0.3326  1.4377
15066TIP3    H266690   4.110   2.298   4.304  1.1915  1.1990 -1.9810
15067TIP3   OH266691   6.236   0.731  16.926  0.5832  0.5146 -0.0466
15067TIP3    H166692   6.165   0.710  16.865 -1.3190  1.7741  1.6967
15067TIP3    H266693   6.238   0.656  16.986 -0.8249  1.4967  1.2723
15068TIP3   OH266694   1.559   2.353  14.657  0.4454 -0.0923  0.2160
15068TIP3    H166695   1.511   2.430  14.685  1.9433  0.4943  1.1841
15068TIP3    H266696   1.495   2.281  14.665 -0.5728  0.8278  0.4929
15069TIP3   OH266697   0.796   5.648   0.530 -0.9878 -0.3708  0.4851
15069TIP3    H166698   0.786   5.743   0.532 -0.9436 -0.3289 -0.6710
15069TIP3    H266699   0.887   5.633   0.554 -1.0402 -0.1321  0.8331
15070TIP3   OH266700   4.931   2.310   4.656 -0.3572 -0.2041 -0.0042
15070TIP3    H166701   4.902   2.233   4.705 -0.6170 -0.1428 -0.0631
15070TIP3    H266702   4.869   2.379   4.681  0.4033  0.2241  0.7477
15071TIP3   OH266703   4.729   0.899   1.728 -0.1697  0.5258  0.3035
15071TIP3    H166704   4.652   0.885   1.785 -0.2966  1.2361  0.3075
15071TIP3    H266705   4.801   0.859   1.776 -0.6903 -0.9680 -0.1171
15072TIP3   OH266706   1.535   3.632  14.188 -0.6689  0.5049 -0.1943
15072TIP3    H166707   1.571   3.705  14.240 -1.7938  1.5798 -0.9043
15072TIP3    H266708   1.587   3.632  14.108  0.6177 -0.7245  0.6180
15073TIP3   OH266709   1.224   0.476  15.638  0.1090 -0.3170  0.4883
15073TIP3    H166710   1.148   0.503  15.588  1.7311  1.3057 -1.1712
15073TIP3    H266711   1.190   0.457  15.725 -1.8772  2.2975  0.3445
15074TIP3   OH266712   1.308   3.077  11.604  0.0415 -0.1303 -0.3526
15074TIP3    H166713   1.220   3.090  11.570 -0.7354 -2.1933  0.8230
15074TIP3    H266714   1.335   2.992  11.568  1.9179  0.8733 -1.4258
15075TIP3   OH266715   1.697   3.770  12.707 -0.0272 -0.2581  0.8625
15075TIP3    H166716   1.642   3.736  12.778 -1.0892  1.2508  0.7687
15075TIP3    H266717   1.658   3.853  12.683  1.1257 -0.1089 -0.5917
15076TIP3   OH266718   1.582   4.611  15.737  0.6972  0.2964  0.0288
15076TIP3    H166719   1.619   4.555  15.805  1.2640  1.3568  0.6054
15076TIP3    H266720   1.526   4.552  15.686  1.7327 -0.9173  0.2649
15077TIP3   OH266721   2.265   2.636   5.975  0.2711 -0.1153 -0.6147
15077TIP3    H166722   2.342   2.654   6.029 -1.4722 -0.5194  2.1116
15077TIP3    H266723   2.270   2.542   5.958  0.3778 -0.1506 -0.3967
15078TIP3   OH266724   3.690   2.991  13.275 -0.6841  0.2173  0.0271
15078TIP3    H166725   3.626   3.005  13.205 -0.3872 -2.4064 -0.8541
15078TIP3    H266726   3.765   2.953  13.230 -0.0410 -0.4260  1.6218
15079TIP3   OH266727   0.503   4.235   0.330  0.3661 -0.1409  0.1077
15079TIP3    H166728   0.583   4.279   0.303  0.3040 -0.9046 -1.3908
15079TIP3    H266729   0.436   4.265   0.268 -0.6361  0.8514  1.6279
15080TIP3   OH266730   5.909   1.359   3.835 -0.0763  0.4068  0.0244
15080TIP3    H166731   5.814   1.362   3.851  0.2323  1.0822  1.8531
15080TIP3    H266732   5.943   1.437   3.878  0.9963  1.6636 -3.0057
15081TIP3   OH266733   2.364   6.363  16.306 -0.1081 -0.1378  0.2254
15081TIP3    H166734   2.371   6.272  16.277 -3.0098  0.2764 -2.0697
15081TIP3    H266735   2.418   6.368  16.385  1.3732 -3.4261 -0.5069
15082TIP3   OH266736   4.954   6.761  12.961 -0.5291  0.3523  0.1357
15082TIP3    H166737   4.929   6.778  13.052 -0.2251 -0.5674  0.3987
15082TIP3    H266738   4.878   6.787  12.910 -1.9851 -2.1555  0.8991
15083TIP3   OH266739   6.635   4.214  15.992 -0.2744 -0.5506  0.2383
15083TIP3    H166740   6.570   4.202  15.922 -1.2648  0.9126  0.8938
15083TIP3    H266741   6.592   4.271  16.055  1.2930 -0.3877  1.1713
15084TIP3   OH266742   6.011   0.271  16.431 -0.4533 -0.1535 -0.4384
15084TIP3    H166743   5.922   0.261  16.395 -1.8013  1.7732  2.2103
15084TIP3    H266744   6.045   0.349  16.387 -0.0961 -0.8318 -1.3766
15085TIP3   OH266745   3.094   2.666  11.365  0.2794  0.1716  0.8500
15085TIP3    H166746   3.116   2.594  11.424  1.1280 -0.8199 -0.6492
15085TIP3    H266747   3.148   2.739  11.396  2.2867 -0.9270  0.0811
15086TIP3   OH266748   4.863   4.024   3.127 -0.4240 -0.0737  0.0238
15086TIP3    H166749   4.941   3.982   3.162  0.5856  0.6895 -1.2597
15086TIP3    H266750   4.896   4.086   3.062 -2.0723  0.5579 -0.2440
15087TIP3   OH266751   4.935   4.978   4.516  0.7520 -0.1155 -0.0381
15087TIP3    H166752   4.936   4.957   4.609 -1.3979 -1.3840 -0.2804
15087TIP3    H266753   5.027   4.982   4.491  1.3247 -3.4878  1.3391
15088TIP3   OH266754   2.141   0.311   5.913  0.6639  0.3204 -0.4211
15088TIP3    H166755   2.161   0.314   5.819  0.5239  0.2690 -0.4536
15088TIP3    H266756   2.182   0.231   5.944  1.5114  0.8206 -0.2460
15089TIP3   OH266757   1.555   2.237   5.088 -0.3471 -0.4598  0.0398
15089TIP3    H166758   1.541   2.273   5.176 -0.5979 -0.6486  0.0775
15089TIP3    H266759   1.503   2.156   5.086  0.1439 -0.7755 -0.0755
15090TIP3   OH266760   5.325   3.617  12.439  0.3548 -0.1447 -0.2824
15090TIP3    H166761   5.282   3.532  12.434 -1.7368  0.9233 -1.1928
15090TIP3    H266762   5.301   3.651  12.526 -0.5703  0.3848 -0.7310
15091TIP3   OH266763   0.112   0.246   0.350 -0.4824  0.1283  0.5074
15091TIP3    H166764   0.055   0.322   0.364 -1.4664 -0.0142 -2.2777
15091TIP3    H266765   0.182   0.279   0.294  0.6447 -0.3755  1.6000
15092TIP3   OH266766   5.590   5.541  13.193 -0.2876 -0.4404 -0.0524
15092TIP3    H166767   5.628   5.615  13.240 -0.7320 -0.6052  0.5789
15092TIP3    H266768   5.589   5.569  13.101  0.5941 -0.1190  0.0306
15093TIP3   OH266769   1.447   2.585  13.132  0.2960 -0.6466 -0.9131
15093TIP3    H166770   1.504   2.613  13.060 -0.6889  0.2980 -1.3427
15093TIP3    H266771   1.358   2.602  13.099 -0.1368  0.6444  0.8595
15094TIP3   OH266772   3.558   3.698  11.336 -0.4011  0.8141 -0.1942
15094TIP3    H166773   3.502   3.632  11.295 -0.6024  2.2392 -2.3098
15094TIP3    H266774   3.644   3.657  11.341 -1.2873 -0.9010  1.8365
15095TIP3   OH266775   6.758   5.913  16.480  0.0594 -0.0980  0.1836
15095TIP3    H166776   6.678   5.966  16.476  0.2550  0.1868  0.0030
15095TIP3    H266777   6.751   5.855  16.404 -0.7119 -1.1426  1.0374
15096TIP3   OH266778   3.911   3.620   5.891  0.0371  0.3327 -0.4426
15096TIP3    H166779   3.877   3.550   5.835  0.5084 -0.3795  0.1629
15096TIP3    H266780   3.949   3.575   5.966 -2.0940  1.3452  1.3140
15097TIP3   OH266781   6.183   0.183   2.079  0.5931 -0.2638  1.0246
15097TIP3    H166782   6.197   0.145   1.993 -1.2197 -0.1220  0.6459
15097TIP3    H266783   6.182   0.108   2.139 -6.5801 -1.4479 -0.1381
15098TIP3   OH266784   5.701   1.089   2.200  0.9418  0.8328  1.0151
15098TIP3    H166785   5.752   1.142   2.138  1.1741 -0.6943 -0.1235
15098TIP3    H266786   5.614   1.083   2.161  1.3755 -1.0110  0.2790
15099TIP3   OH266787   2.207   1.555   2.137 -0.0050  1.1426 -0.5364
15099TIP3    H166788   2.132   1.599   2.177 -1.4641 -2.4712  0.9002
15099TIP3    H266789   2.169   1.492   2.076  1.5708 -2.8261  2.3035
15100TIP3   OH266790   6.400   6.057   4.663  0.4820  0.2546 -0.7974
15100TIP3    H166791   6.445   6.141   4.658  1.9374 -0.3934  1.1818
15100TIP3    H266792   6.457   5.996   4.616  0.6302 -0.1353 -0.1105
15101TIP3   OH266793   5.310   1.826   0.890  0.2787 -0.0463 -0.2533
15101TIP3    H166794   5.377   1.894   0.879  1.0492 -0.6867  0.3162
15101TIP3    H266795   5.227   1.873   0.887  0.7944  0.9159  0.0711
15102TIP3   OH266796   3.192   3.060   1.922  0.2187  0.0001 -0.0214
15102TIP3    H166797   3.243   3.008   1.984 -0.4740  1.0115  1.4271
15102TIP3    H266798   3.114   3.007   1.904  0.0341  0.0586  0.6038
15103TIP3   OH266799   1.850   5.665  13.114  0.1392 -0.9073 -0.0286
15103TIP3    H166800   1.891   5.612  13.182 -1.6745 -0.1676  1.7131
15103TIP3    H266801   1.911   5.737  13.099  0.0501 -0.4331  1.7103
15104TIP3   OH266802   3.186   1.832   5.588  0.1205 -0.8727 -0.0628
15104TIP3    H166803   3.120   1.893   5.555  0.4173 -0.3963  0.2242
15104TIP3    H266804   3.135   1.757   5.620 -0.1421 -1.5429 -1.9916
15105TIP3   OH266805   0.400   6.130  16.959 -0.4161  0.2166 -0.4856
15105TIP3    H166806   0.490   6.125  16.926 -0.2220 -0.0616  0.0667
15105TIP3    H266807   0.410   6.141  17.053 -0.9658 -0.1753 -0.3783
15106TIP3   OH266808   1.791   0.156  12.586  0.5800  0.2116  0.8336
15106TIP3    H166809   1.812   0.249  12.581  0.9285  0.1035  0.0255
15106TIP3    H266810   1.826   0.120  12.504 -0.7445 -0.3935  0.5148
15107TIP3   OH266811   5.219   3.077   4.791  0.3972 -0.2062  0.0518
15107TIP3    H166812   5.146   3.077   4.730  1.0513 -0.5239 -0.7468
15107TIP3    H266813   5.199   3.147   4.853 -0.0489  0.4256 -0.8013
15108TIP3   OH266814   5.097   0.156  13.947  0.2073 -0.1766  0.4225
15108TIP3    H166815   5.044   0.218  13.898 -0.8610 -2.3500 -1.2794
15108TIP3    H266816   5.182   0.155  13.902  0.1450 -0.1178  0.3055
15109TIP3   OH266817   1.356   2.659   5.487  0.3937 -0.7725 -0.1521
15109TIP3    H166818   1.261   2.666   5.497  0.5780 -0.3571  1.5501
15109TIP3    H266819   1.375   2.708   5.408 -0.7144 -0.0394  0.0115
15110TIP3   OH266820   1.995   1.869  13.471  0.1032  0.2023  0.6855
15110TIP3    H166821   2.087   1.862  13.445 -0.1314 -1.7576  0.3029
15110TIP3    H266822   1.991   1.829  13.558 -0.4123  0.2155  0.6707
15111TIP3   OH266823   3.125   0.153  11.740 -0.5022 -0.5978  0.5412
15111TIP3    H166824   3.058   0.100  11.784  0.1961 -2.8835 -1.0344
15111TIP3    H266825   3.176   0.089  11.690 -0.5558  1.7253 -2.6251
15112TIP3   OH266826   4.726   1.832   4.589 -0.6276 -0.5475 -0.0588
15112TIP3    H166827   4.770   1.751   4.565  2.4434  0.6430  1.1964
15112TIP3    H266828   4.679   1.811   4.669  1.1216 -0.8402  0.9245
15113TIP3   OH266829   4.924   3.207  16.135  0.5270  0.1480 -0.1817
15113TIP3    H166830   5.017   3.190  16.147  0.4018 -0.2497  0.2426
15113TIP3    H266831   4.880   3.135  16.180  0.0172 -0.5303 -1.7368
15114TIP3   OH266832   3.197   3.196   3.318 -0.1400  0.5113  0.5704
15114TIP3    H166833   3.193   3.228   3.408 -0.1265  2.3261 -0.0552
15114TIP3    H266834   3.235   3.268   3.268 -1.1445 -0.0558 -1.0769
15115TIP3   OH266835   4.955   3.823   2.045 -0.4539  0.4230  0.4920
15115TIP3    H166836   4.954   3.861   1.958 -0.8989 -1.8492 -0.5222
15115TIP3    H266837   4.912   3.888   2.101 -0.4637  1.7336 -1.0324
15116TIP3   OH266838   6.649   3.328   0.005 -0.0532 -0.0362  0.2940
15116TIP3    H166839   6.633   3.350  -0.087 -0.5195  0.9307  0.6057
15116TIP3    H266840   6.738   3.359   0.022  0.0495 -0.2545  0.1654
15117TIP3   OH266841   4.944   1.986  15.950  0.4116  0.4039 -0.0214
15117TIP3    H166842   4.873   1.949  16.002  0.4823  0.8447  0.3910
15117TIP3    H266843   5.014   2.003  16.013  0.8640  0.0285 -0.4149
15118TIP3   OH266844   0.813   3.149  11.943 -0.0939  0.0917 -0.0606
15118TIP3    H166845   0.759   3.213  11.988  0.1509  0.8048 -0.7753
15118TIP3    H266846   0.777   3.145  11.854 -0.3727 -1.0672  0.0980
15119TIP3   OH266847   3.943   5.197  14.967  0.2804 -0.2309 -0.0482
15119TIP3    H166848   3.946   5.250  14.887 -2.9796 -0.5659 -0.4560
15119TIP3    H266849   3.850   5.182  14.983  0.9800 -2.7599  2.1173
15120TIP3   OH266850   4.097   0.801   5.911  0.4675  0.0549  0.6712
15120TIP3    H166851   4.027   0.739   5.890  0.0365  0.8149 -0.2091
15120TIP3    H266852   4.124   0.778   6.000  0.4036 -1.4650  0.3087
15121TIP3   OH266853   1.785   5.318  16.751 -0.5451 -0.3972  0.1136
15121TIP3    H166854   1.874   5.328  16.715 -0.3977  0.6050  0.7410
15121TIP3    H266855   1.799   5.281  16.838 -0.7803 -0.7170  0.0188
15122TIP3   OH266856   2.541   6.435  10.744 -0.4164 -0.1540 -0.0756
15122TIP3    H166857   2.460   6.463  10.786  0.6020  1.4231  0.8930
15122TIP3    H266858   2.563   6.351  10.785 -1.9060 -0.9230 -0.8352
15123TIP3   OH266859   4.050   0.873  12.675  0.1169  0.2910  0.2195
15123TIP3    H166860   4.093   0.873  12.760  1.2500  1.4704 -0.3393
15123TIP3    H266861   3.979   0.936  12.684  0.7665  1.0559  0.0429
15124TIP3   OH266862   5.405   5.300   5.161  0.3703  0.0422  0.0387
15124TIP3    H166863   5.454   5.337   5.234  0.0353  0.1553  0.2074
15124TIP3    H266864   5.471   5.280   5.095  0.7234 -0.4823  0.5516
15125TIP3   OH266865   1.149   2.839   4.777 -0.0224 -0.4612  0.4598
15125TIP3    H166866   1.057   2.844   4.751 -0.0660 -1.0615  0.4913
15125TIP3    H266867   1.148   2.846   4.872 -0.0719 -0.9028  0.4928
15126TIP3   OH266868   4.033   0.513  11.597  0.2811  0.1539  0.0195
15126TIP3    H166869   4.105   0.557  11.553  2.5440 -0.7759  2.6193
15126TIP3    H266870   3.960   0.574  11.591  1.8958  2.0521 -0.8672
15127TIP3   OH266871   4.217   0.033   0.670 -0.2124 -0.1893  0.6505
15127TIP3    H166872   4.126   0.005   0.659 -0.0593 -0.8016  0.9672
15127TIP3    H266873   4.249  -0.017   0.745 -0.2406  1.5546  1.8654
15128TIP3   OH266874   0.415   3.592   0.679 -0.8896  0.6574  0.3890
15128TIP3    H166875   0.392   3.621   0.591 -1.4290 -0.7138  0.0731
15128TIP3    H266876   0.333   3.557   0.715  0.3404 -3.1129 -0.2923
15129TIP3   OH266877   2.407   5.916   1.672  0.0648 -0.6585  0.2008
15129TIP3    H166878   2.344   5.859   1.627 -0.9202  2.0165 -1.9174
15129TIP3    H266879   2.357   5.995   1.692  2.6587  1.3576 -1.1631
15130TIP3   OH266880   5.381   2.722   5.075 -0.1831 -0.2666 -0.7928
15130TIP3    H166881   5.444   2.705   5.145 -0.1517 -0.8011 -0.9479
15130TIP3    H266882   5.434   2.733   4.996 -0.3724 -2.6737 -1.2973
15131TIP3   OH266883   0.810   3.157   6.076 -0.4885 -0.3730  0.3233
15131TIP3    H166884   0.846   3.084   6.026 -1.0057 -0.6991  0.4258
15131TIP3    H266885   0.767   3.116   6.151 -1.8105 -0.0364 -0.2471
15132TIP3   OH266886   1.940   6.184   1.996  0.0395  0.2504  1.1684
15132TIP3    H166887   1.883   6.176   1.920 -0.6899 -0.1465  1.7538
15132TIP3    H266888   1.971   6.275   1.992  1.4698 -0.2787 -0.6103
15133TIP3   OH266889   1.059   6.551  14.865  0.4134 -0.5066 -0.6407
15133TIP3    H166890   1.031   6.539  14.774  0.1281 -0.5804 -0.5436
15133TIP3    H266891   1.061   6.646  14.877  3.3455 -0.3898 -1.6178
15134TIP3   OH266892   0.969   1.656  12.118  0.0239 -0.2999  0.5407
15134TIP3    H166893   0.943   1.638  12.028  0.2000 -0.2383  0.4782
15134TIP3    H266894   1.036   1.590  12.138 -1.5459 -1.6786  1.3520
15135TIP3   OH266895   5.417   2.089   1.818 -0.4147 -0.4858 -0.4135
15135TIP3    H166896   5.502   2.097   1.775  0.3967 -0.9183  1.0784
15135TIP3    H266897   5.357   2.063   1.748  0.3939  1.1241 -1.7504
15136TIP3   OH266898   4.796   4.603   4.032  0.3170  0.1722  0.1184
15136TIP3    H166899   4.724   4.545   4.059 -0.2759  0.0525 -1.6120
15136TIP3    H266900   4.838   4.630   4.114 -0.2508 -1.6196  1.0233
15137TIP3   OH266901   1.686   6.373  14.885 -0.3146  0.3779  0.0621
15137TIP3    H166902   1.602   6.330  14.899  0.7793 -1.8773 -0.2207
15137TIP3    H266903   1.749   6.302  14.873  1.6352  2.0218  0.1766
15138TIP3   OH266904   0.025   0.603   5.968  0.1243 -0.0762 -0.0814
15138TIP3    H166905   0.051   0.512   5.957 -0.0170 -0.0087 -1.0793
15138TIP3    H266906   0.055   0.627   6.055 -2.7926 -2.0622  1.5589
15139TIP3   OH266907   5.832   2.204  13.315  0.0305  0.5435 -0.8998
15139TIP3    H166908   5.748   2.212  13.362  1.4683  0.7994  1.7054
15139TIP3    H266909   5.866   2.294  13.313  0.2546  0.4336 -1.9326
15140TIP3   OH266910   0.005   1.323   2.570 -0.3558 -0.2615 -0.7345
15140TIP3    H166911   0.072   1.273   2.615 -0.2995 -0.4017 -0.9703
15140TIP3    H266912  -0.009   1.276   2.488  0.2476  0.5297 -1.2998
15141TIP3   OH266913   3.426   4.595  17.025 -0.3428 -0.0816  0.0467
15141TIP3    H166914   3.342   4.561  17.058 -0.5884  0.2324 -0.2500
15141TIP3    H266915   3.404   4.632  16.940 -0.1746  1.3201  0.6069
15142TIP3   OH266916   0.048   4.120   5.691  0.0168  0.0003 -0.2556
15142TIP3    H166917   0.008   4.046   5.736 -0.5041  0.9815  0.9005
15142TIP3    H266918  -0.009   4.136   5.616  0.8734 -1.6182 -1.2987
15143TIP3   OH266919   5.951   6.152   0.235  0.3649  0.3192 -0.4813
15143TIP3    H166920   6.042   6.123   0.229  0.3572  0.2379 -0.2585
15143TIP3    H266921   5.905   6.077   0.273  0.1630  0.2763 -0.8078
15144TIP3   OH266922   2.506   5.341   5.944  0.5943  0.3415  0.1281
15144TIP3    H166923   2.588   5.295   5.926  0.9005  0.8099  0.3376
15144TIP3    H266924   2.441   5.293   5.893  0.8608 -0.5260  0.5957
15145TIP3   OH266925   2.967   6.704  15.006 -0.3393 -0.0681 -0.3583
15145TIP3    H166926   3.006   6.665  14.928 -0.6913  0.2242 -0.6858
15145TIP3    H266927   3.004   6.655  15.079  1.4961  0.8980 -0.5938
15146TIP3   OH266928   0.317   4.472  13.756 -0.2835 -0.4709 -0.3937
15146TIP3    H166929   0.222   4.483  13.762 -0.0306  1.3049  0.9816
15146TIP3    H266930   0.336   4.479  13.663 -1.4634 -0.3767 -0.6401
15147TIP3   OH266931   2.043   3.784  12.481  0.1444 -0.3478 -0.2263
15147TIP3    H166932   2.014   3.870  12.450 -0.1411 -0.4105 -0.1396
15147TIP3    H266933   1.963   3.732  12.483 -0.0207 -0.0566  1.5902
15148TIP3   OH266934   6.261   4.126   3.370  0.7472 -0.1025  0.1918
15148TIP3    H166935   6.351   4.132   3.338  0.7536  0.0046  0.2287
15148TIP3    H266936   6.211   4.184   3.313  0.5496 -0.8092 -0.3607
15149TIP3   OH266937   3.463   4.912  15.584 -0.0665  0.5365  0.0943
15149TIP3    H166938   3.501   4.963  15.512  3.1084 -3.2352 -1.1143
15149TIP3    H266939   3.409   4.846  15.541 -0.7919  0.2985  1.3539
15150TIP3   OH266940   2.474   4.851   2.180  0.1677  0.1189  0.3790
15150TIP3    H166941   2.495   4.900   2.101 -1.5680 -0.7172 -0.6370
15150TIP3    H266942   2.518   4.766   2.168 -0.3704 -0.1297  0.1475
15151TIP3   OH266943   2.108   2.578  11.373 -0.4411  0.3481  0.3539
15151TIP3    H166944   2.038   2.514  11.359  0.2671 -0.1439 -1.1961
15151TIP3    H266945   2.073   2.660  11.339 -0.2905  0.1079 -0.3976
15152TIP3   OH266946   2.724   2.230   3.241 -0.1051 -0.1310 -0.5448
15152TIP3    H166947   2.791   2.180   3.288 -0.9008 -1.0645 -0.3600
15152TIP3    H266948   2.771   2.301   3.199  0.6883  0.5172  1.3795
15153TIP3   OH266949   0.642   1.696   2.225  0.6515 -0.4858  0.4391
15153TIP3    H166950   0.722   1.652   2.195  1.3093  1.2415 -0.3774
15153TIP3    H266951   0.667   1.740   2.306 -0.0403 -1.6370  1.3133
15154TIP3   OH266952   6.030   2.575   1.843  0.0052 -0.4150 -0.1358
15154TIP3    H166953   6.109   2.545   1.797  0.6854 -1.2131  1.5494
15154TIP3    H266954   6.062   2.611   1.925 -1.1651  1.5628 -0.5001
15155TIP3   OH266955   0.830   2.576   4.265 -0.1915 -0.0698 -0.2659
15155TIP3    H166956   0.742   2.585   4.227 -0.0681  0.1466 -0.4979
15155TIP3    H266957   0.887   2.565   4.190  0.1908  1.4129 -0.1993
15156TIP3   OH266958   2.775   1.410   0.901  0.3507 -0.0291  0.3455
15156TIP3    H166959   2.690   1.411   0.945  0.4217 -1.9607  0.5344
15156TIP3    H266960   2.818   1.491   0.930 -2.0781  1.8315 -1.0632
15157TIP3   OH266961   3.048   1.788  17.288 -0.2924  0.0880 -0.6249
15157TIP3    H166962   3.072   1.811  17.378  1.2310 -2.0617 -0.4401
15157TIP3    H266963   2.999   1.706  17.295  0.2415 -0.3527 -1.7767
15158TIP3   OH266964   3.067   2.542  13.236  0.2051  0.0933  0.5298
15158TIP3    H166965   3.072   2.545  13.332  0.8772 -1.5453  0.5712
15158TIP3    H266966   3.017   2.462  13.218 -1.2661  1.2209 -0.4742
15159TIP3   OH266967   1.660   1.592   3.221 -0.2324 -0.1476  0.2124
15159TIP3    H166968   1.590   1.625   3.165  0.2936 -0.6738 -0.7557
15159TIP3    H266969   1.614   1.542   3.289 -0.8702  0.5148  0.2782
15160TIP3   OH266970   0.422   4.011  13.004  0.4143  0.0777 -0.6797
15160TIP3    H166971   0.477   4.086  12.983  1.5916 -0.2159  1.2348
15160TIP3    H266972   0.398   4.023  13.096 -0.1845 -1.3950 -0.6263
15161TIP3   OH266973   3.383   0.763   5.109 -0.2317  0.2159  0.5658
15161TIP3    H166974   3.380   0.668   5.114  0.9719  0.2014  1.0321
15161TIP3    H266975   3.298   0.791   5.145 -1.0005 -0.6947 -0.5021
15162TIP3   OH266976   1.221   5.956   5.321 -0.1205 -0.2599 -0.6153
15162TIP3    H166977   1.181   5.996   5.245 -0.9698  0.4790  0.2061
15162TIP3    H266978   1.277   6.024   5.359  0.7130 -0.7894 -0.8675
15163TIP3   OH266979   0.072   3.123   2.755 -0.4451 -0.5256  0.1647
15163TIP3    H166980   0.126   3.045   2.741 -1.6995 -1.2377 -0.8745
15163TIP3    H266981   0.134   3.196   2.758  0.8108 -1.6467  1.9346
15164TIP3   OH266982   5.314   1.004   1.885  0.0580  0.5138  0.9218
15164TIP3    H166983   5.311   1.017   1.791  0.3791 -0.8386  0.7061
15164TIP3    H266984   5.223   1.003   1.913 -0.0106  1.7984  0.7648
15165TIP3   OH266985   2.931   5.380  15.328  0.0269 -0.7833  0.0151
15165TIP3    H166986   2.839   5.364  15.305  0.0578 -1.1599  0.1408
15165TIP3    H266987   2.955   5.459  15.279 -0.5591 -0.2908  0.5184
15166TIP3   OH266988   3.732   2.197  11.452 -0.4587 -0.0982  0.4764
15166TIP3    H166989   3.679   2.234  11.382 -0.6648 -3.7938 -1.4503
15166TIP3    H266990   3.785   2.270  11.483 -0.9060  1.8265 -3.0400
15167TIP3   OH266991   3.132   3.196   1.377  0.3417  0.1508 -0.1025
15167TIP3    H166992   3.086   3.204   1.460  2.1255  0.9091  0.8503
15167TIP3    H266993   3.185   3.116   1.386  0.2258  0.0054 -0.6677
15168TIP3   OH266994   5.019   5.952  13.255 -0.4401 -0.0746  0.8503
15168TIP3    H166995   5.104   5.943  13.212 -0.0883 -0.4305  1.6047
15168TIP3    H266996   5.041   5.968  13.347 -1.1973 -0.6670  1.1399
15169TIP3   OH266997   4.923   2.463  16.643 -0.2465  0.5518  0.4101
15169TIP3    H166998   4.908   2.557  16.632  0.0369  0.3352 -2.3123
15169TIP3    H266999   4.981   2.456  16.719 -0.2143  2.5888  0.5903
15170TIP3   OH267000   6.313   0.091   0.537  0.0606 -0.0797 -0.3302
15170TIP3    H167001   6.320   0.032   0.612  1.0495  0.3882 -0.0409
15170TIP3    H267002   6.219   0.103   0.523 -0.1268  0.6954  1.5219
15171TIP3   OH267003   0.137   5.373   1.624 -0.4354 -0.0668 -0.1585
15171TIP3    H167004   0.041   5.368   1.618 -0.3472 -0.2303 -1.6696
15171TIP3    H267005   0.154   5.404   1.713 -1.9807  2.5206 -0.7317
15172TIP3   OH267006   3.569   4.921  11.237  0.0923 -0.0311 -0.5484
15172TIP3    H167007   3.646   4.974  11.258 -0.5013  0.4635  0.4335
15172TIP3    H267008   3.506   4.984  11.203 -0.5912 -0.1257  0.5504
15173TIP3   OH267009   3.207   2.987   1.547  0.0151  0.0015  0.7562
15173TIP3    H167010   3.127   3.026   1.583 -0.4944 -1.1607  0.9216
15173TIP3    H267011   3.190   2.893   1.549  0.7945 -0.1830 -0.6110
15174TIP3   OH267012   1.456   3.188   6.651  0.5726 -0.1817 -0.2356
15174TIP3    H167013   1.507   3.155   6.725  1.9251  1.3723 -0.4462
15174TIP3    H267014   1.520   3.204   6.582 -0.3264  0.8655 -0.8499
15175TIP3   OH267015   4.224   2.796   3.584  0.0706 -0.2021  0.1697
15175TIP3    H167016   4.201   2.795   3.491 -0.7466 -1.4586  0.3569
15175TIP3    H267017   4.246   2.887   3.603 -0.2132  0.1538 -1.1442
15176TIP3   OH267018   2.832   6.334  16.229 -0.1620 -0.3201  0.1410
15176TIP3    H167019   2.825   6.291  16.144  1.2989 -1.0668  0.3777
15176TIP3    H267020   2.845   6.426  16.208 -0.0532 -0.4661 -0.4494
15177TIP3   OH267021   5.545   1.297  12.069  0.0160 -0.6741 -0.6776
15177TIP3    H167022   5.616   1.238  12.096  0.0941  0.2236  1.1875
15177TIP3    H267023   5.590   1.372  12.030  0.1188 -0.1036  0.5072
15178TIP3   OH267024   2.575   5.879   5.548  0.4413  0.6939  0.2165
15178TIP3    H167025   2.613   5.823   5.616  0.3429 -0.1667 -0.4268
15178TIP3    H267026   2.588   5.968   5.580 -0.0436  0.2825  1.5872
15179TIP3   OH267027   3.771   1.044  14.864  0.5328  0.2400  0.4439
15179TIP3    H167028   3.760   1.139  14.861  2.3773  0.5468  2.2147
15179TIP3    H267029   3.827   1.023  14.789 -0.0753  0.5011 -0.0875
15180TIP3   OH267030   4.386   0.287   5.262  0.8410 -0.0109  0.2028
15180TIP3    H167031   4.451   0.224   5.229  0.1743 -1.0732  0.8952
15180TIP3    H267032   4.320   0.233   5.305 -1.3662  0.9325 -1.8844
15181TIP3   OH267033   3.682   4.251  14.009  0.4002  0.2483  0.5715
15181TIP3    H167034   3.709   4.336  14.043 -0.5589  0.8194 -0.0810
15181TIP3    H267035   3.720   4.187  14.070  1.7530  1.1043  0.6392
15182TIP3   OH267036   6.472   3.973  11.946 -0.1093  0.2662 -0.5784
15182TIP3    H167037   6.485   3.978  12.041 -0.8055 -0.9171 -0.4131
15182TIP3    H267038   6.389   4.019  11.931  0.0321  0.5075 -0.6272
15183TIP3   OH267039   2.738   5.333   2.670  0.3052  0.8780 -0.0576
15183TIP3    H167040   2.744   5.327   2.765  0.4672  1.6047 -0.0245
15183TIP3    H267041   2.644   5.337   2.652  0.2312 -0.3281  0.0038
15184TIP3   OH267042   4.308   1.178  15.522 -0.2869  0.9551 -0.4959
15184TIP3    H167043   4.305   1.240  15.595 -1.5639 -0.9400  1.1425
15184TIP3    H267044   4.231   1.199  15.469  0.3183  1.9516 -1.0066
15185TIP3   OH267045   4.173   5.885  16.988 -0.1172 -0.1228 -0.0172
15185TIP3    H167046   4.220   5.868  16.906 -0.2116 -0.3156 -0.0334
15185TIP3    H267047   4.100   5.823  16.987 -0.4571  0.2762 -0.0631
15186TIP3   OH267048   1.498   4.203   1.022  0.0166  0.3624  0.1470
15186TIP3    H167049   1.556   4.144   1.070  0.7829  0.4434 -0.6895
15186TIP3    H267050   1.500   4.285   1.072 -1.0468 -0.2968  1.3077
15187TIP3   OH267051   4.113   3.996  16.577  0.6402 -0.8960 -0.2843
15187TIP3    H167052   4.100   3.911  16.620  0.3609 -0.6598  0.0942
15187TIP3    H267053   4.025   4.033  16.570  0.7446 -0.7059 -0.5947
15188TIP3   OH267054   3.404   1.609   5.439  0.5941  0.0645 -0.1572
15188TIP3    H167055   3.471   1.674   5.459 -0.1980  1.6924 -2.6973
15188TIP3    H267056   3.325   1.642   5.481  0.8836 -0.9314  1.2547
15189TIP3   OH267057   1.901   3.180   2.128  0.4726 -0.0957  0.0117
15189TIP3    H167058   1.896   3.132   2.211  0.2805  0.9764  0.6230
15189TIP3    H267059   1.838   3.252   2.138 -0.2773 -0.5152 -1.4303
15190TIP3   OH267060   1.452   5.576  12.585 -0.2588  0.2403  0.3283
15190TIP3    H167061   1.373   5.581  12.639 -1.1650  0.2490 -0.9764
15190TIP3    H267062   1.434   5.506  12.522  0.2262  1.1435 -0.8381
15191TIP3   OH267063   0.804   3.003   5.439 -0.1924 -0.7653 -0.1677
15191TIP3    H167064   0.892   2.969   5.456  0.3422  2.0108  2.9257
15191TIP3    H267065   0.816   3.097   5.429 -2.5853 -0.5884 -1.7004
15192TIP3   OH267066   0.167   3.912   5.921 -0.1952 -0.3924  0.0245
15192TIP3    H167067   0.129   3.947   6.002  0.6281 -2.1715  1.2158
15192TIP3    H267068   0.092   3.893   5.865 -0.7663  0.9784  0.3204
15193TIP3   OH267069   2.758   4.104   2.857  0.3872  0.4695 -0.1728
15193TIP3    H167070   2.663   4.109   2.856  0.4122  1.3805  0.6605
15193TIP3    H267071   2.785   4.167   2.924  1.5122 -0.7803  0.5955
15194TIP3   OH267072   5.372   3.949  16.445  0.6725 -0.1945  0.3769
15194TIP3    H167073   5.397   3.931  16.354  1.2566 -1.3379  0.7505
15194TIP3    H267074   5.356   4.043  16.448  1.0577 -0.0859 -0.8102
15195TIP3   OH267075   1.139   4.454   4.605 -0.3918 -0.2073 -0.0157
15195TIP3    H167076   1.221   4.417   4.637 -0.8417  0.6582  2.2640
15195TIP3    H267077   1.073   4.389   4.630 -0.5935 -0.1711 -0.4472
15196TIP3   OH267078   3.492   3.985  14.401  0.4064  0.2480  0.1141
15196TIP3    H167079   3.554   4.056  14.382 -0.0292  0.6068  0.0106
15196TIP3    H267080   3.434   3.983  14.324  0.1186  0.1060  0.3314
15197TIP3   OH267081   3.366   2.285   4.466  0.2263 -0.1633  0.5266
15197TIP3    H167082   3.448   2.238   4.481 -0.0184 -0.5518  0.6312
15197TIP3    H267083   3.299   2.217   4.458 -0.0922  0.1535  0.4615
15198TIP3   OH267084   6.350   3.151   5.228  0.0288  0.4411  0.0702
15198TIP3    H167085   6.386   3.191   5.149  1.7422 -2.3090 -0.5896
15198TIP3    H267086   6.382   3.206   5.299 -0.7934  2.4139 -1.0539
15199TIP3   OH267087   0.073   1.288  11.672  0.1465  0.4556 -0.4317
15199TIP3    H167088   0.013   1.238  11.727  1.3203  0.2992  0.7328
15199TIP3    H267089   0.051   1.262  11.583  0.0694 -1.3825  0.1081
15200TIP3   OH267090   5.512   3.191   2.086  0.4045  0.1135 -0.1905
15200TIP3    H167091   5.577   3.194   2.015 -0.5639  1.3032 -1.0465
15200TIP3    H267092   5.456   3.117   2.064 -0.1748  0.7668 -0.9240
15201TIP3   OH267093   5.934   2.613   3.242  0.2628  0.3083  0.5685
15201TIP3    H167094   5.939   2.674   3.168  1.2006 -1.0930 -0.5394
15201TIP3    H267095   5.964   2.530   3.206 -1.1879 -0.8673  2.0089
15202TIP3   OH267096   6.462   0.164   4.989 -0.2468  0.0759 -0.2089
15202TIP3    H167097   6.540   0.112   4.968  1.5322  1.4910  2.5762
15202TIP3    H267098   6.455   0.227   4.918 -0.6291 -1.9645 -2.0176
15203TIP3   OH267099   5.003   3.781  10.880 -0.1564  0.0595 -0.3004
15203TIP3    H167100   5.075   3.722  10.903  0.1114  0.6983  0.5609
15203TIP3    H267101   5.041   3.843  10.818  0.2604  0.8372  0.6967
15204TIP3   OH267102   1.555   1.433   3.489 -0.2039  0.3709  0.3213
15204TIP3    H167103   1.645   1.464   3.492  0.1113 -0.5410  0.1264
15204TIP3    H267104   1.519   1.456   3.574  0.2466  0.5945  0.4545
15205TIP3   OH267105   3.125   2.419   3.130  0.1487 -0.0629  0.0904
15205TIP3    H167106   3.128   2.489   3.065  2.1888 -0.1419  0.0653
15205TIP3    H267107   3.156   2.342   3.084 -0.3988 -0.5970  0.6041
15206TIP3   OH267108   6.666   1.440  11.179  0.1590 -0.4829  0.5294
15206TIP3    H167109   6.729   1.368  11.170 -0.0424 -0.5495 -0.4225
15206TIP3    H267110   6.595   1.405  11.232  0.2112 -0.8814  0.3317
15207TIP3   OH267111   6.575   6.365   1.594 -0.3536 -0.0734  0.1572
15207TIP3    H167112   6.642   6.317   1.641  1.1847  2.1241  0.2649
15207TIP3    H267113   6.606   6.369   1.503 -0.7904  0.1743  0.0123
15208TIP3   OH267114   1.535   5.459  13.810  0.5559  0.5241 -0.4521
15208TIP3    H167115   1.474   5.394  13.846 -0.8615  1.7510 -0.6250
15208TIP3    H267116   1.622   5.422  13.828 -0.1679 -0.0538  2.0655
15209TIP3   OH267117   1.444   5.132  12.255 -0.1412 -0.1296 -0.3841
15209TIP3    H167118   1.464   5.045  12.289  0.5747  0.0549 -0.3301
15209TIP3    H267119   1.475   5.192  12.323 -1.5518  0.1462  0.0426
15210TIP3   OH267120   3.900   3.220  16.579 -0.3107 -0.1512  0.3259
15210TIP3    H167121   3.959   3.270  16.635 -0.5310 -0.7592  1.0984
15210TIP3    H267122   3.925   3.246  16.490  0.8996 -0.1466  0.6524
15211TIP3   OH267123   3.055   1.927  12.419  0.2641  0.3995 -0.1873
15211TIP3    H167124   3.040   1.835  12.440 -2.9498  0.6664 -0.9222
15211TIP3    H267125   3.083   1.927  12.327  0.9155  0.1075  0.0143
15212TIP3   OH267126   0.767   2.214  14.655 -0.6946 -0.1982 -0.1644
15212TIP3    H167127   0.699   2.240  14.718 -2.2463  0.1782 -1.9578
15212TIP3    H267128   0.788   2.294  14.608  1.2171 -0.2592  0.5311
15213TIP3   OH267129   0.169   2.227  16.810  0.0172 -0.4487  0.0379
15213TIP3    H167130   0.208   2.314  16.814  0.7493 -0.7599 -0.1776
15213TIP3    H267131   0.244   2.167  16.815 -0.5099 -1.0674  0.6062
15214TIP3   OH267132   3.518   2.426   4.133 -0.3933 -0.5296 -0.3535
15214TIP3    H167133   3.585   2.437   4.201 -0.4779 -0.2665 -0.3138
15214TIP3    H267134   3.560   2.370   4.067  1.1732  2.5918 -2.1170
15215TIP3   OH267135   0.414   4.043   3.391 -0.2322  0.2639  0.6856
15215TIP3    H167136   0.403   4.117   3.331  1.2977  0.1779  0.2820
15215TIP3    H267137   0.487   3.993   3.355 -1.2484 -1.4579  0.9556
15216TIP3   OH267138   6.291   1.343   3.497  0.0386  0.7913 -0.3659
15216TIP3    H167139   6.366   1.286   3.517 -0.3704  0.9056  1.6775
15216TIP3    H267140   6.229   1.324   3.568 -0.1640  3.6631  0.2605
15217TIP3   OH267141   4.923   2.621  12.156 -0.5774  0.0308 -0.0809
15217TIP3    H167142   4.870   2.695  12.182  0.1694  1.1262 -1.5606
15217TIP3    H267143   5.013   2.649  12.173 -0.3135 -0.6857 -0.2666
15218TIP3   OH267144   1.362   0.117  14.502  0.3962  0.2012  0.3901
15218TIP3    H167145   1.309   0.039  14.491  0.5273  0.4084 -1.8453
15218TIP3    H267146   1.452   0.087  14.489  0.8555 -0.1023  3.8941
15219TIP3   OH267147   5.450   4.682   1.563  0.2430 -0.4875 -0.1639
15219TIP3    H167148   5.411   4.616   1.619  2.1702 -3.6698 -2.4000
15219TIP3    H267149   5.422   4.658   1.474 -0.6364  2.8918 -0.8865
15220TIP3   OH267150   4.410   1.058  15.188  0.5258  0.1038 -0.0770
15220TIP3    H167151   4.449   1.052  15.102  0.2437  0.0927 -0.2066
15220TIP3    H267152   4.440   1.142  15.223 -0.1596  0.5721 -0.5903
15221TIP3   OH267153   0.088   0.393  14.491 -0.5913  0.2921 -0.1451
15221TIP3    H167154   0.180   0.387  14.518 -1.0274 -2.3136  0.8989
15221TIP3    H267155   0.071   0.312  14.445 -2.4900  0.5800 -0.0069
15222TIP3   OH267156   0.059   3.276  14.838 -0.7157  0.4874  0.1175
15222TIP3    H167157   0.049   3.355  14.891  1.6531 -0.0716  1.4961
15222TIP3    H267158   0.134   3.230  14.877 -0.2899 -1.0470 -2.3673
15223TIP3   OH267159   6.339   4.575   3.359 -0.7078 -0.3235 -0.1457
15223TIP3    H167160   6.257   4.547   3.399 -0.0118 -0.9072  0.8946
15223TIP3    H267161   6.365   4.502   3.304 -0.4154 -0.5175  0.2473
15224TIP3   OH267162   5.933   3.461   0.743  0.2487 -0.0304 -1.0304
15224TIP3    H167163   5.969   3.544   0.711  1.1986 -0.1776 -0.3469
15224TIP3    H267164   5.971   3.450   0.830  1.1271 -1.8121 -1.6108
15225TIP3   OH267165   1.389   4.816  14.092 -0.4405 -0.9228  0.2703
15225TIP3    H167166   1.361   4.827  14.183 -0.6686  0.4613  0.0424
15225TIP3    H267167   1.440   4.895  14.074 -0.2272 -1.2974 -0.7353
15226TIP3   OH267168   1.932   2.021   4.536 -0.1940 -0.3250 -0.0564
15226TIP3    H167169   1.905   2.077   4.608 -2.1359 -2.7734  1.2317
15226TIP3    H267170   1.893   2.061   4.458  1.1592  1.8386  0.3575
15227TIP3   OH267171   3.723   2.175   1.408 -0.3909 -0.1177  0.4083
15227TIP3    H167172   3.804   2.220   1.386 -0.0680 -0.5356  0.7460
15227TIP3    H267173   3.746   2.116   1.480 -0.9407 -0.4013  0.3578
15228TIP3   OH267174   1.066   6.368   4.157 -0.2902  0.3237 -0.3715
15228TIP3    H167175   1.012   6.404   4.228 -0.0639  1.3701 -0.7266
15228TIP3    H267176   1.031   6.280   4.143 -0.0085 -0.0908  1.3966
15229TIP3   OH267177   5.159   0.836   0.356 -0.4948 -0.7169  0.3112
15229TIP3    H167178   5.209   0.773   0.407 -0.8216 -1.3815 -0.1716
15229TIP3    H267179   5.087   0.862   0.413  0.6139  0.5565  1.1616
15230TIP3   OH267180   5.863   3.268   2.199  0.8311 -0.0802 -0.1386
15230TIP3    H167181   5.876   3.212   2.122 -0.1789 -0.9505  0.3216
15230TIP3    H267182   5.860   3.207   2.273  1.4400  0.7268  0.5562
15231TIP3   OH267183   4.230   3.117  15.877 -0.1761  0.0469 -0.2631
15231TIP3    H167184   4.321   3.145  15.879 -0.1983  0.2040 -1.2046
15231TIP3    H267185   4.234   3.025  15.851 -0.2523 -0.0800  0.1828
15232TIP3   OH267186   0.503   2.117  15.924  0.2963  0.1615 -0.0395
15232TIP3    H167187   0.410   2.102  15.907  0.2675 -0.0350  0.2798
15232TIP3    H267188   0.505   2.171  16.003  0.4754 -0.6557  0.5196
15233TIP3   OH267189   3.615   3.064   4.961 -0.0608 -0.0698  0.0075
15233TIP3    H167190   3.605   3.002   5.033  0.4531  0.1427  0.2619
15233TIP3    H267191   3.694   3.036   4.915  0.4217  0.6569  0.3859
15234TIP3   OH267192   0.868   1.984   2.334 -0.4000  0.9670 -0.6515
15234TIP3    H167193   0.859   2.059   2.394  0.1349  0.1190  0.5141
15234TIP3    H267194   0.800   1.923   2.361  0.8390 -0.0980  0.1478
15235TIP3   OH267195   2.966   2.743   6.626 -0.9276 -0.3770  0.4506
15235TIP3    H167196   3.029   2.674   6.604 -1.4437 -0.0366 -2.2736
15235TIP3    H267197   2.888   2.696   6.657 -0.2991 -0.8973  1.2497
15236TIP3   OH267198   3.310   0.932   3.374 -0.0930 -0.2749  0.0147
15236TIP3    H167199   3.336   0.883   3.296 -0.7172 -2.5832  1.2044
15236TIP3    H267200   3.385   0.925   3.433 -0.5279 -0.5585  0.5374
15237TIP3   OH267201   3.680   3.361   3.793  0.1921  0.3312 -0.0970
15237TIP3    H167202   3.599   3.329   3.834 -0.2157 -0.2511 -1.3375
15237TIP3    H267203   3.713   3.286   3.745  0.9268  0.8767 -0.4428
15238TIP3   OH267204   4.134   1.548   4.442  0.1458  0.2191  0.6621
15238TIP3    H167205   4.194   1.618   4.416  0.7860 -1.3936 -2.4924
15238TIP3    H267206   4.180   1.500   4.511  1.0685  0.9697  0.5675
15239TIP3   OH267207   4.704   4.314  15.421  0.3043  0.2778 -0.2824
15239TIP3    H167208   4.702   4.403  15.455 -0.6644  0.7034 -1.3738
15239TIP3    H267209   4.614   4.298  15.392  0.4014 -1.1631  0.1733
15240TIP3   OH267210   0.128   6.135   6.735  0.7751 -0.0234  0.1273
15240TIP3    H167211   0.095   6.081   6.664  1.1508  2.3456 -1.8985
15240TIP3    H267212   0.220   6.149   6.715  0.7643  1.1088  0.7796
15241TIP3   OH267213   5.528   4.487  13.748 -0.1939 -0.1716 -0.2213
15241TIP3    H167214   5.467   4.417  13.770 -0.0991 -0.2873 -0.3247
15241TIP3    H267215   5.615   4.452  13.769 -0.0271 -0.6166 -1.5998
15242TIP3   OH267216   2.111   3.198   0.477 -0.2005 -0.9124 -0.1104
15242TIP3    H167217   2.101   3.293   0.484  1.7239 -0.7121  0.0767
15242TIP3    H267218   2.139   3.170   0.564  1.2370 -1.3775 -0.6999
15243TIP3   OH267219   0.916   2.903  17.156  0.0350 -0.1825  0.3069
15243TIP3    H167220   0.877   2.933  17.238 -0.7291 -0.5794  0.0899
15243TIP3    H267221   0.905   2.808  17.157 -0.7388 -0.1069 -0.6396
15244TIP3   OH267222   1.658   2.049  13.157  0.5573  0.2231  0.6012
15244TIP3    H167223   1.594   1.993  13.114  0.0458  0.9422  0.4109
15244TIP3    H267224   1.636   2.137  13.127  0.1049  0.7557  2.4658
15245TIP3   OH267225   1.590   2.865  11.628 -0.3825  0.4268 -0.0909
15245TIP3    H167226   1.621   2.955  11.626  0.3656  0.2464  2.0902
15245TIP3    H267227   1.546   2.853  11.543  0.7968  2.3515 -1.0200
15246TIP3   OH267228   5.846   0.634   0.764 -0.2634 -0.0541  0.3009
15246TIP3    H167229   5.836   0.558   0.707 -2.5436 -1.9391  3.0767
15246TIP3    H267230   5.786   0.699   0.726  0.2134 -0.3199 -0.9459
15247TIP3   OH267231   1.501   4.008  16.045 -0.3230  0.1759  0.1838
15247TIP3    H167232   1.532   4.031  15.957 -2.8372  1.0047 -0.5511
15247TIP3    H267233   1.580   3.993  16.096  1.1873 -0.9199 -2.3916
15248TIP3   OH267234   5.267   6.075   4.142  0.1451 -0.0645  0.4553
15248TIP3    H167235   5.284   6.119   4.226 -0.3310 -1.9088  1.5501
15248TIP3    H267236   5.228   6.143   4.087 -0.8982  0.7983  2.2159
15249TIP3   OH267237   1.347   4.564   4.372 -0.2412  0.7701 -0.1629
15249TIP3    H167238   1.407   4.633   4.345  1.4833 -0.5536  0.1613
15249TIP3    H267239   1.351   4.564   4.468  2.2266 -1.7920 -0.1895
15250TIP3   OH267240   3.326   3.303  17.138  0.5146 -0.5053 -0.2487
15250TIP3    H167241   3.416   3.335  17.127  0.5963 -0.2119  1.2444
15250TIP3    H267242   3.301   3.274  17.050  2.1440 -0.7751 -0.6485
15251TIP3   OH267243   5.980   3.571   2.814 -0.3900 -0.4959 -0.1614
15251TIP3    H167244   6.075   3.574   2.808 -0.5288  1.5555 -1.6200
15251TIP3    H267245   5.951   3.551   2.725 -1.4349  2.1954 -0.4626
15252TIP3   OH267246   3.623   2.670  15.956 -0.2796  0.3155 -0.7682
15252TIP3    H167247   3.555   2.611  15.921 -1.2382  1.2648 -0.5185
15252TIP3    H267248   3.595   2.757  15.928 -0.9430  1.0817  2.1895
15253TIP3   OH267249   5.819   6.552   4.218  0.6203 -0.2382 -0.5019
15253TIP3    H167250   5.831   6.488   4.289 -0.6103 -1.4123 -1.3377
15253TIP3    H267251   5.828   6.500   4.138 -1.0102  0.5275 -1.1858
15254TIP3   OH267252   1.426   4.596   2.460  0.5366 -0.2885  0.0284
15254TIP3    H167253   1.374   4.604   2.540  1.2377  3.0100  0.2477
15254TIP3    H267254   1.388   4.660   2.401  1.6701 -0.8684 -1.3508
15255TIP3   OH267255   3.849   5.621  13.097 -0.1823 -0.0027  0.9009
15255TIP3    H167256   3.828   5.528  13.103 -1.1000  0.1938  0.7458
15255TIP3    H267257   3.929   5.630  13.150  0.3830 -1.0141  0.2362
15256TIP3   OH267258   4.138   2.902  10.337 -0.0591 -0.2373  0.4016
15256TIP3    H167259   4.157   2.881  10.428  0.6318  0.5023  0.4289
15256TIP3    H267260   4.135   2.816  10.293 -1.2662 -0.6507  1.2719
15257TIP3   OH267261   4.647   4.848  11.438  0.0032 -0.4436  0.5639
15257TIP3    H167262   4.597   4.929  11.439 -0.1151 -0.5141  0.2069
15257TIP3    H267263   4.716   4.863  11.373 -0.8050 -1.1061 -0.4550
15258TIP3   OH267264   0.683   0.292   1.742 -0.7881 -0.6276 -0.2153
15258TIP3    H167265   0.752   0.285   1.676 -1.5546  0.0971 -1.1030
15258TIP3    H267266   0.667   0.202   1.770 -1.3539 -1.0818 -1.9650
15259TIP3   OH267267   0.590   2.890   0.214  0.4640  0.0368 -0.2871
15259TIP3    H167268   0.632   2.804   0.205 -0.5306 -0.3658 -1.1819
15259TIP3    H267269   0.565   2.914   0.125 -1.1162  0.3177  0.2285
15260TIP3   OH267270   2.250   4.101  15.524  0.1142 -0.1195  0.3282
15260TIP3    H167271   2.208   4.050  15.455  0.9386  0.4714 -0.6352
15260TIP3    H267272   2.213   4.189  15.515 -1.4312 -0.5670  2.0951
15261TIP3   OH267273   5.018   0.712  14.775 -0.1636  0.0015  0.3638
15261TIP3    H167274   4.940   0.768  14.769  0.4284  0.5321 -3.3106
15261TIP3    H267275   4.985   0.624  14.755  0.2743  0.3704 -2.1534
15262TIP3   OH267276   0.623   4.486   3.894  0.4421  0.3901 -0.0309
15262TIP3    H167277   0.584   4.521   3.974 -0.2324 -2.7818  1.0843
15262TIP3    H267278   0.696   4.432   3.925  0.0485 -1.0183 -1.5547
15263TIP3   OH267279   3.900   0.832  13.297 -0.0042 -0.4593  0.3301
15263TIP3    H167280   3.854   0.873  13.224  0.1279 -1.9285 -0.6044
15263TIP3    H267281   3.970   0.894  13.319 -1.6057  1.1671  0.9032
15264TIP3   OH267282   2.704   1.635   5.084  0.0801  0.1860  0.0043
15264TIP3    H167283   2.717   1.633   4.990 -3.5366 -0.3227 -0.5434
15264TIP3    H267284   2.788   1.607   5.121  2.1551  2.2641 -2.9607
15265TIP3   OH267285   1.681   3.714   2.318 -0.4567 -0.1257 -0.0824
15265TIP3    H167286   1.744   3.650   2.351  0.3302  1.3738  1.4105
15265TIP3    H267287   1.633   3.743   2.395 -4.0334 -2.2801 -1.3863
15266TIP3   OH267288   3.851   2.109   5.933 -0.5151  0.4354  0.5653
15266TIP3    H167289   3.766   2.087   5.970 -1.0291  0.9426 -0.3064
15266TIP3    H267290   3.835   2.123   5.840  0.4583  0.8570  0.4466
15267TIP3   OH267291   5.768   2.817   3.632  0.2436  0.6826  0.0389
15267TIP3    H167292   5.686   2.834   3.679  1.1645 -0.5391  2.2107
15267TIP3    H267293   5.809   2.902   3.623 -0.4664  1.0820  0.5211
15268TIP3   OH267294   5.589   1.790  16.210 -0.5002  0.0578  0.2791
15268TIP3    H167295   5.500   1.761  16.233 -0.8241  0.9209  0.1259
15268TIP3    H267296   5.576   1.876  16.170  0.4518  0.3857  0.6764
15269TIP3   OH267297   2.028   6.443   1.934  0.0697  0.0202  0.0164
15269TIP3    H167298   2.104   6.495   1.959 -0.6299  1.0161  0.1223
15269TIP3    H267299   2.047   6.413   1.845  0.3501  0.7191 -0.1568
15270TIP3   OH267300   0.652   5.743   1.244  0.3185  0.1966 -0.3598
15270TIP3    H167301   0.585   5.792   1.197  1.8049  1.2880 -1.3953
15270TIP3    H267302   0.729   5.800   1.242  1.7062 -1.6371 -0.4911
15271TIP3   OH267303   3.647   5.420  14.459 -0.2563 -0.8241  0.1789
15271TIP3    H167304   3.653   5.392  14.550 -1.4696 -0.4730  0.3827
15271TIP3    H267305   3.571   5.371  14.425  0.2565 -1.0321 -0.6668
15272TIP3   OH267306   4.252   1.479  14.067  0.2854 -0.0883 -0.5507
15272TIP3    H167307   4.248   1.567  14.028  0.0196  0.3779  0.5240
15272TIP3    H267308   4.177   1.433  14.029 -0.6459  0.7265  0.2578
15273TIP3   OH267309   2.756   6.727   1.699  0.1951  0.4181 -0.2486
15273TIP3    H167310   2.692   6.797   1.688 -0.6051 -0.2025  0.3888
15273TIP3    H267311   2.841   6.769   1.686 -0.3282  1.3176 -0.7632
15274TIP3   OH267312   3.196   6.054   0.506 -0.2799 -0.1665 -0.5155
15274TIP3    H167313   3.186   6.137   0.552  1.6134  1.3676 -2.7711
15274TIP3    H267314   3.199   6.078   0.413 -0.2898 -2.7995 -1.2326
15275TIP3   OH267315   3.270   3.340  14.294 -0.5048 -0.6909 -0.1416
15275TIP3    H167316   3.253   3.337  14.388 -1.6657 -0.4514 -0.3393
15275TIP3    H267317   3.224   3.264  14.259  2.2254 -2.4011 -0.1764
15276TIP3   OH267318   3.160   3.670  13.699 -0.3807  0.2440 -0.1791
15276TIP3    H167319   3.068   3.693  13.716 -0.3564  0.4251 -0.2891
15276TIP3    H267320   3.178   3.597  13.758 -0.3974  0.6359  0.3217
15277TIP3   OH267321   3.983   2.492   3.682 -0.0141 -0.0662 -0.6177
15277TIP3    H167322   3.998   2.521   3.592  0.0760 -1.0654 -0.9319
15277TIP3    H267323   4.068   2.459   3.711 -0.3704 -1.0207 -0.6469
15278TIP3   OH267324   3.685   4.234  12.391 -0.2940 -0.4850  0.5481
15278TIP3    H167325   3.623   4.203  12.325 -0.9548 -2.6776  2.1517
15278TIP3    H267326   3.767   4.190  12.369  0.5291  1.7196 -1.0303
15279TIP3   OH267327   1.241   5.442   3.852  0.0173 -0.1720 -0.5616
15279TIP3    H167328   1.250   5.414   3.943  0.5012  0.2520 -0.4788
15279TIP3    H267329   1.264   5.535   3.853 -1.4196  0.2096 -0.8541
15280TIP3   OH267330   2.462   5.359   2.324  0.3803 -0.3406 -0.6558
15280TIP3    H167331   2.527   5.301   2.283 -0.2506  0.1035 -2.3476
15280TIP3    H267332   2.383   5.347   2.271 -0.5758  0.0259  0.6467
15281TIP3   OH267333   5.796   5.093   6.073 -0.1644 -0.0921  0.5345
15281TIP3    H167334   5.822   5.049   5.992  1.6291  0.6385  0.6897
15281TIP3    H267335   5.874   5.089   6.128 -0.4098  2.0644  1.0642
15282TIP3   OH267336   5.644   1.991  15.489 -0.3172  0.0360 -0.3153
15282TIP3    H167337   5.592   1.914  15.513  0.5432  0.0524  1.6671
15282TIP3    H267338   5.703   2.004  15.563 -1.0818  3.1461 -0.2016
15283TIP3   OH267339   1.331   6.676   0.021  0.0480 -0.5189  0.0878
15283TIP3    H167340   1.263   6.655  -0.042  0.4289  3.0165 -1.6671
15283TIP3    H267341   1.409   6.630  -0.011 -0.8482 -2.5012  0.6709
15284TIP3   OH267342   1.708   3.977   5.175  0.5107 -0.0098 -0.1436
15284TIP3    H167343   1.771   4.048   5.194 -0.1891 -0.0181  2.3136
15284TIP3    H267344   1.622   4.018   5.184  0.1174 -0.7752 -0.3762
15285TIP3   OH267345   3.480   3.878   2.054  0.0494 -0.0645 -0.4654
15285TIP3    H167346   3.430   3.834   2.123  1.0486  1.5008  1.2989
15285TIP3    H267347   3.539   3.937   2.101  0.1738  1.6431 -2.6858
15286TIP3   OH267348   5.015   6.615   2.448 -0.0109  0.1452 -0.3116
15286TIP3    H167349   4.950   6.549   2.471  0.4266 -0.3031 -0.3346
15286TIP3    H267350   5.010   6.622   2.352  0.8659 -0.8501 -0.4517
15287TIP3   OH267351   1.852   6.516   2.100 -0.3904  0.0641  0.1635
15287TIP3    H167352   1.912   6.474   2.039 -1.6863 -2.0943  0.3330
15287TIP3    H267353   1.909   6.566   2.159  1.1114 -0.7606 -0.5618
15288TIP3   OH267354   4.776   0.517   3.221  0.4742 -0.0997 -0.4520
15288TIP3    H167355   4.732   0.482   3.143  1.5824  1.1572 -1.6891
15288TIP3    H267356   4.845   0.454   3.240 -0.0263 -0.5941 -0.2874
15289TIP3   OH267357   0.338   1.645   5.823  0.4272  0.1908  0.9877
15289TIP3    H167358   0.408   1.611   5.879  0.5217 -1.9388 -0.3660
15289TIP3    H267359   0.275   1.574   5.818 -0.4264  1.0204 -0.1795
15290TIP3   OH267360   3.337   4.354   5.958  0.2763 -0.6733 -0.2696
15290TIP3    H167361   3.345   4.375   5.865  0.6182  0.6256  0.0383
15290TIP3    H267362   3.272   4.284   5.962  0.1366 -0.6145 -1.4730
15291TIP3   OH267363   1.451   4.778   4.923 -0.1443  0.0502 -0.2190
15291TIP3    H167364   1.434   4.765   5.017  0.4954  0.9083  0.0189
15291TIP3    H267365   1.365   4.766   4.882 -0.5389  0.2339  0.5373
15292TIP3   OH267366   2.785   2.200   6.667  0.3085 -0.5544 -0.0690
15292TIP3    H167367   2.840   2.145   6.611  0.7857  1.0195 -1.1570
15292TIP3    H267368   2.848   2.253   6.717 -0.1953  0.8632 -0.9216
15293TIP3   OH267369   3.790   2.735  16.754 -0.1087  0.1198 -0.0373
15293TIP3    H167370   3.860   2.792  16.723  0.4602  0.0831  1.1402
15293TIP3    H267371   3.766   2.771  16.840  0.9942 -2.0363  1.1997
15294TIP3   OH267372   2.321   1.954  13.294  0.1223  0.1112 -0.1344
15294TIP3    H167373   2.325   1.893  13.368  0.4396  0.1864 -0.0908
15294TIP3    H267374   2.373   1.913  13.225 -1.5338 -0.7573 -0.9072
15295TIP3   OH267375   6.303   4.646   2.358 -0.2296 -0.0081  0.5033
15295TIP3    H167376   6.259   4.568   2.324 -1.4941 -0.1058  2.2490
15295TIP3    H267377   6.319   4.626   2.450  0.5519  1.3187  0.6778
15296TIP3   OH267378   0.307   1.984   3.328 -0.1479 -0.4394  0.8551
15296TIP3    H167379   0.402   1.979   3.315 -0.0739  0.0720  1.1820
15296TIP3    H267380   0.296   2.051   3.396 -0.6927 -1.0873  1.3989
15297TIP3   OH267381   3.951   4.993   2.209 -0.1580 -0.5279 -0.8649
15297TIP3    H167382   4.032   4.944   2.191  0.0347 -1.2292  1.6806
15297TIP3    H267383   3.882   4.939   2.170  0.4683 -0.6753 -1.7798
15298TIP3   OH267384   6.131   6.726  14.863  0.3987 -0.1435  0.0918
15298TIP3    H167385   6.182   6.802  14.835 -0.0110 -0.3405 -1.2299
15298TIP3    H267386   6.126   6.733  14.958  0.8523  1.1720  0.0165
15299TIP3   OH267387   3.668   4.946   3.396 -0.2445  0.3476  0.2123
15299TIP3    H167388   3.655   4.956   3.302 -0.8266  0.5294  0.3106
15299TIP3    H267389   3.637   5.029   3.433 -1.6793 -0.4013  0.7159
15300TIP3   OH267390   3.933   1.565  15.976  0.0006 -0.4070  0.2124
15300TIP3    H167391   3.980   1.611  16.045  0.1513 -1.2425  0.6746
15300TIP3    H267392   3.849   1.540  16.016  0.2801 -1.3081  0.2562
15301TIP3   OH267393   1.137   2.419  16.251 -0.2582 -0.0114 -0.4502
15301TIP3    H167394   1.182   2.339  16.226  1.2783  0.9940 -1.0329
15301TIP3    H267395   1.157   2.431  16.344  0.5249  0.3181 -0.6532
15302TIP3   OH267396   0.523   4.984  14.818 -0.4433  0.2557  0.5915
15302TIP3    H167397   0.525   5.001  14.912 -0.1984 -0.3295  0.6937
15302TIP3    H267398   0.486   5.064  14.780  1.4199  1.3360  0.9887
15303TIP3   OH267399   4.998   1.913   3.043 -0.9720  0.7392  0.4932
15303TIP3    H167400   4.918   1.877   3.083  1.1247 -3.0221  1.5038
15303TIP3    H267401   5.055   1.933   3.117  0.9843 -1.5283 -0.3284
15304TIP3   OH267402   6.762   4.403  12.982 -0.6500  0.3293  0.3002
15304TIP3    H167403   6.715   4.478  12.944 -0.5809  0.0342 -0.3802
15304TIP3    H267404   6.719   4.326  12.943 -0.7505  0.0080  1.0278
15305TIP3   OH267405   3.623   1.880   0.960  0.1885  0.1351  0.7636
15305TIP3    H167406   3.563   1.849   0.892  1.8660 -1.4900 -0.0109
15305TIP3    H267407   3.567   1.892   1.037 -1.6820  1.7346 -0.7880
15306TIP3   OH267408   1.834   2.844   4.119 -0.2417 -0.0251 -0.2951
15306TIP3    H167409   1.755   2.791   4.116 -0.3193  0.1413 -1.3199
15306TIP3    H267410   1.900   2.791   4.074 -0.2674  0.6407 -1.1411
15307TIP3   OH267411   5.667   1.725  14.402 -0.0596  0.1817 -0.4707
15307TIP3    H167412   5.690   1.741  14.311 -1.1968  0.3380 -0.7391
15307TIP3    H267413   5.751   1.717  14.447  0.5188  1.6358 -1.2530
15308TIP3   OH267414   2.941   5.124  10.343  0.3665 -0.3514  0.1528
15308TIP3    H167415   3.033   5.142  10.322  0.8461  0.3549  2.6394
15308TIP3    H267416   2.913   5.059  10.278  1.8782  1.2486 -2.1636
15309TIP3   OH267417   0.497   4.496  11.170 -0.2711 -0.7047 -0.0695
15309TIP3    H167418   0.541   4.494  11.255 -0.2525  0.3702 -0.0575
15309TIP3    H267419   0.549   4.438  11.114  2.0158  1.6557 -0.4829
15310TIP3   OH267420   5.979   6.013   2.914 -0.8814 -0.3027  0.4010
15310TIP3    H167421   5.949   6.010   3.005 -0.1972 -2.0132  0.5874
15310TIP3    H267422   5.942   5.935   2.874 -0.3693 -0.0680 -0.5444
15311TIP3   OH267423   1.195   0.789  13.792  0.1954 -0.1623 -0.2707
15311TIP3    H167424   1.158   0.712  13.748  0.0903  0.2564 -0.9230
15311TIP3    H267425   1.205   0.853  13.722  0.0480  0.5049  0.3213
15312TIP3   OH267426   6.399   1.841   4.967 -0.2198 -0.1540 -0.5788
15312TIP3    H167427   6.345   1.762   4.963 -0.5897  0.1270 -1.2365
15312TIP3    H267428   6.447   1.840   4.884 -0.7607  0.6900 -0.9047
15313TIP3   OH267429   0.155   0.829  14.771 -0.0028 -0.1248  0.0203
15313TIP3    H167430   0.111   0.765  14.715  1.3610 -0.0773 -1.1439
15313TIP3    H267431   0.248   0.820  14.749  0.2366  2.0566  0.0237
15314TIP3   OH267432   6.469   6.546  11.949 -0.2375 -0.2689  0.3513
15314TIP3    H167433   6.545   6.572  12.000  1.1785 -1.3371 -1.1624
15314TIP3    H267434   6.454   6.454  11.972  0.0654 -0.5920 -0.7144
15315TIP3   OH267435   2.746   6.013  16.225 -0.8559 -0.3554 -0.0595
15315TIP3    H167436   2.768   6.098  16.263  0.5320 -1.1560  0.9743
15315TIP3    H267437   2.803   6.006  16.148  1.0676 -1.4997  1.4052
15316TIP3   OH267438   5.286   6.661  12.136 -0.4824 -0.1979  0.0457
15316TIP3    H167439   5.301   6.737  12.081 -2.5624  0.5705  0.5257
15316TIP3    H267440   5.374   6.635  12.165  0.4102  0.7434 -1.7700
15317TIP3   OH267441   6.012   5.045  12.776 -0.4273  0.5645 -0.0307
15317TIP3    H167442   6.074   5.116  12.763 -0.1233  0.3004 -0.0386
15317TIP3    H267443   5.982   5.022  12.687  0.0551  0.1714 -0.0939
15318TIP3   OH267444   1.214   1.598   6.740  0.1877 -0.6502 -0.1954
15318TIP3    H167445   1.137   1.549   6.769  1.5374 -2.4660  0.4236
15318TIP3    H267446   1.227   1.571   6.649  0.7179 -1.1930  0.0350
15319TIP3   OH267447   0.732   1.646   1.307  0.2637 -0.2838  0.0728
15319TIP3    H167448   0.647   1.609   1.283  0.8451 -1.2424 -0.5813
15319TIP3    H267449   0.716   1.695   1.387 -0.7279 -1.2370  0.4703
15320TIP3   OH267450   6.097   4.770   5.826  0.7655 -0.3635  0.9893
15320TIP3    H167451   6.167   4.816   5.778 -0.3564  1.5213  1.0854
15320TIP3    H267452   6.127   4.680   5.832  2.0726 -0.1046 -1.0980
15321TIP3   OH267453   4.831   2.680  16.538 -0.4639  0.9455  0.1527
15321TIP3    H167454   4.769   2.629  16.485 -0.3269  0.4761  0.4391
15321TIP3    H267455   4.868   2.744  16.478 -2.7129  2.5746  0.4307
15322TIP3   OH267456   1.572   5.719  13.950  0.0905  0.6161 -0.1730
15322TIP3    H167457   1.606   5.682  14.031  0.3380  0.0068 -0.5487
15322TIP3    H267458   1.584   5.649  13.885  0.5664  1.3661 -0.8949
15323TIP3   OH267459   6.640   6.044   2.357 -0.8088  0.6417  0.0822
15323TIP3    H167460   6.720   6.031   2.306 -1.4400  1.0776 -1.0471
15323TIP3    H267461   6.637   6.139   2.372 -2.1246  0.8995 -1.6101
15324TIP3   OH267462   1.026   6.346   4.935 -1.5177  0.3377  0.5955
15324TIP3    H167463   1.037   6.441   4.938  0.7866  0.2361 -2.5663
15324TIP3    H267464   1.115   6.311   4.938 -2.3653 -1.8101  2.6439
15325TIP3   OH267465   2.962   3.382  15.551  0.0007 -0.7016  0.2947
15325TIP3    H167466   3.015   3.303  15.542 -2.0354 -1.9575 -1.0908
15325TIP3    H267467   3.002   3.445  15.491  0.1739 -1.5020 -0.4405
15326TIP3   OH267468   5.600   3.305   4.500  0.1628 -0.3851  0.0069
15326TIP3    H167469   5.574   3.215   4.516  0.8710 -0.4755  0.6758
15326TIP3    H267470   5.645   3.303   4.416 -0.3661 -0.5411 -0.2760
15327TIP3   OH267471   3.129   2.492   6.527 -0.4200  0.1496  0.0950
15327TIP3    H167472   3.054   2.482   6.467  0.3431  1.8352 -1.1613
15327TIP3    H267473   3.201   2.446   6.483  0.1867  1.5380 -0.3758
15328TIP3   OH267474   2.119   1.079   1.991  0.2291  0.1655  0.5111
15328TIP3    H167475   2.058   1.010   2.016 -3.0632  2.4573 -0.8469
15328TIP3    H267476   2.165   1.045   1.915  0.0019 -1.2550  1.0001
15329TIP3   OH267477   1.907   2.095  13.267 -0.9055  0.2865 -0.7927
15329TIP3    H167478   1.854   2.031  13.219 -1.6377 -1.4599  2.1754
15329TIP3    H267479   1.848   2.129  13.334 -0.6254  4.4417 -2.5063
15330TIP3   OH267480   3.825   2.046   5.608  0.1386  0.5157 -0.3242
15330TIP3    H167481   3.871   1.965   5.632 -0.4842  0.3238  0.2452
15330TIP3    H267482   3.746   2.016   5.564  0.0012  0.8216 -0.2857
15331TIP3   OH267483   1.426   5.998   4.840  0.5175 -0.3295  0.1519
15331TIP3    H167484   1.442   6.035   4.927  0.6767 -1.5314  0.6471
15331TIP3    H267485   1.509   5.955   4.817 -0.8878 -3.8825  1.3704
15332TIP3   OH267486   5.623   1.843  11.495  0.0798  0.2314  0.1995
15332TIP3    H167487   5.554   1.822  11.559 -0.7758 -2.1859 -1.4217
15332TIP3    H267488   5.619   1.938  11.486 -0.8439  0.4708  2.5496
15333TIP3   OH267489   0.643   6.686  17.061 -0.0288  0.5563 -0.2286
15333TIP3    H167490   0.556   6.712  17.090  0.2536  1.2613  0.0020
15333TIP3    H267491   0.654   6.729  16.976 -0.3000 -0.3558 -0.7356
15334TIP3   OH267492   2.076   3.030   1.983  0.2968 -0.2731  0.1019
15334TIP3    H167493   2.027   3.097   2.030  0.4784  0.1240 -0.2743
15334TIP3    H267494   2.085   2.959   2.046 -0.4216 -0.1901  0.3012
15335TIP3   OH267495   4.066   5.183  13.856  0.0659  0.1370 -0.4663
15335TIP3    H167496   4.075   5.276  13.875  1.2842 -0.0974  0.2448
15335TIP3    H267497   4.029   5.146  13.936 -3.0061  0.3809 -1.7094
15336TIP3   OH267498   1.879   3.347   0.109  0.1417  0.9255  0.4891
15336TIP3    H167499   1.968   3.378   0.124  0.2538  1.1164 -0.4914
15336TIP3    H267500   1.846   3.403   0.038  0.5793 -1.5934 -1.7745
15337TIP3   OH267501   0.930   5.265   5.649  0.2593  0.4480  0.0057
15337TIP3    H167502   0.955   5.260   5.741  0.1852 -0.6965 -0.0326
15337TIP3    H267503   0.906   5.357   5.636  0.3908  0.6447  1.0924
15338TIP3   OH267504   4.379   2.699   1.377  1.2217 -0.1407 -0.1817
15338TIP3    H167505   4.316   2.751   1.427  0.5763 -0.0778 -1.0540
15338TIP3    H267506   4.440   2.763   1.341  1.3602 -0.1364  0.0568
15339TIP3   OH267507   5.456   2.843  11.995  0.0750 -0.1217 -0.1597
15339TIP3    H167508   5.503   2.914  12.039  0.3495  0.1066 -0.8197
15339TIP3    H267509   5.524   2.792  11.951  0.2873 -2.7799  3.0420
15340TIP3   OH267510   0.688   4.961   0.967  0.2101  0.9345 -0.0130
15340TIP3    H167511   0.610   5.017   0.973 -1.6680 -1.4625 -1.1969
15340TIP3    H267512   0.656   4.873   0.989  3.1781  0.3257  2.2094
15341TIP3   OH267513   3.386   3.925   2.525 -0.2739  0.3015  0.4337
15341TIP3    H167514   3.460   3.926   2.586  0.2229 -3.1634 -0.0325
15341TIP3    H267515   3.322   3.983   2.566  0.4918 -1.0125  3.7199
15342TIP3   OH267516   3.569   1.124  10.980  0.3485  0.4851 -0.3489
15342TIP3    H167517   3.640   1.083  10.930 -0.5369  1.5157 -2.4799
15342TIP3    H267518   3.502   1.056  10.985  0.2502  0.5304 -0.9821
15343TIP3   OH267519   0.964   1.434  12.380 -0.0475 -0.6679  0.4646
15343TIP3    H167520   0.992   1.358  12.431  0.8340 -0.6554  0.0137
15343TIP3    H267521   1.003   1.509  12.426 -0.2416 -0.5527  0.4430
15344TIP3   OH267522   1.939   2.020  14.332 -0.9411  0.1330  0.6357
15344TIP3    H167523   1.892   2.099  14.307  1.2773  1.5662  0.8652
15344TIP3    H267524   1.895   1.950  14.285 -3.0361  1.4840  0.5425
15345TIP3   OH267525   5.199   3.490   0.619 -0.6946  0.1637  0.6231
15345TIP3    H167526   5.267   3.511   0.682 -0.7007  0.3984  0.5526
15345TIP3    H267527   5.235   3.420   0.565 -0.3322  0.6060  0.2879
15346TIP3   OH267528   3.958   6.680  16.444 -0.2803  0.2614  0.0597
15346TIP3    H167529   3.980   6.677  16.351  1.3623  2.0113  0.3520
15346TIP3    H267530   3.904   6.602  16.459  1.4592 -1.3535 -1.8207
15347TIP3   OH267531   1.549   1.828  14.035 -0.0774 -0.1628  0.2342
15347TIP3    H167532   1.510   1.894  13.977 -0.0155 -0.2686  0.0718
15347TIP3    H267533   1.576   1.758  13.976  0.2666 -0.1350  0.3587
15348TIP3   OH267534   5.891   6.202  16.953  0.1968 -0.5079 -0.2033
15348TIP3    H167535   5.809   6.153  16.947  1.1657 -2.2621  0.5515
15348TIP3    H267536   5.926   6.201  16.863 -0.2262 -0.4458 -0.3685
15349TIP3   OH267537   3.026   1.594   1.643  0.2676  0.1338  0.3454
15349TIP3    H167538   2.947   1.633   1.680  0.4126  1.2318 -0.4903
15349TIP3    H267539   3.013   1.601   1.548  0.6543 -1.1323  0.1899
15350TIP3   OH267540   0.872   3.296  10.905 -0.3345 -0.6765  0.3167
15350TIP3    H167541   0.877   3.221  10.848  0.1487 -0.2865 -0.1515
15350TIP3    H267542   0.893   3.371  10.850 -0.2433 -0.2550  0.9088
15351TIP3   OH267543   6.263   2.819  17.123 -0.0318 -0.1365 -0.4122
15351TIP3    H167544   6.306   2.902  17.101 -1.2209  0.6423  0.1497
15351TIP3    H267545   6.237   2.782  17.039 -2.1136  1.4921 -0.5149
15352TIP3   OH267546   3.171   4.609   2.523  0.2392 -0.3927  0.0437
15352TIP3    H167547   3.257   4.583   2.492  0.4351  1.3834 -0.9690
15352TIP3    H267548   3.110   4.547   2.482  0.9056 -0.8272 -0.2825
15353TIP3   OH267549   5.255   5.355   6.322 -0.2758  0.6484 -0.1023
15353TIP3    H167550   5.237   5.405   6.242 -1.9930  1.5245  0.8032
15353TIP3    H267551   5.199   5.395   6.389  0.6608 -0.4776  1.4046
15354TIP3   OH267552   6.141   5.256  12.663  0.1004 -0.5608 -0.1855
15354TIP3    H167553   6.136   5.351  12.662  1.7878 -0.4377  0.7476
15354TIP3    H267554   6.140   5.230  12.571 -0.3694  0.3601 -0.4365
15355TIP3   OH267555   1.764   5.025   5.568  0.3517  0.1507 -0.5155
15355TIP3    H167556   1.754   4.951   5.628  2.3468 -0.3846 -0.8315
15355TIP3    H267557   1.682   5.073   5.577 -0.2183 -1.0637  1.0899
15356TIP3   OH267558   0.552   2.205  11.191  0.2248  0.2712  0.2483
15356TIP3    H167559   0.493   2.186  11.119  0.1793  1.1148  0.0562
15356TIP3    H267560   0.636   2.225  11.149  0.0780  1.2123  0.4049
15357TIP3   OH267561   5.568   6.806  14.253 -1.0770 -0.4661 -0.5724
15357TIP3    H167562   5.572   6.788  14.347  2.3620  2.1071 -0.1387
15357TIP3    H267563   5.610   6.730  14.212  1.6947  0.5117  0.3497
15358TIP3   OH267564   2.574   4.123  12.723 -0.1115  0.5090  0.1128
15358TIP3    H167565   2.544   4.093  12.809  0.0821  0.3677  0.1323
15358TIP3    H267566   2.619   4.206  12.740  2.0812 -0.6985  0.5119
15359TIP3   OH267567   2.990   4.967   4.320 -0.2962 -0.2175 -0.3296
15359TIP3    H167568   2.982   4.904   4.248  0.7037  0.4539 -1.0344
15359TIP3    H267569   3.065   5.021   4.297 -0.5336  0.6028  0.7674
15360TIP3   OH267570   6.573   3.524  14.802  0.0411 -0.4821 -0.2938
15360TIP3    H167571   6.617   3.529  14.887  0.4580  2.2392 -0.6202
15360TIP3    H267572   6.643   3.538  14.738 -0.5427 -0.8890 -1.0405
15361TIP3   OH267573   1.845   1.662   0.729 -0.2012  0.0143 -0.0335
15361TIP3    H167574   1.897   1.741   0.715 -2.9653  2.0551  0.7595
15361TIP3    H267575   1.874   1.629   0.814  0.8722  0.2094 -0.3109
15362TIP3   OH267576   1.709   4.664  16.309 -0.2937  0.5330 -0.0350
15362TIP3    H167577   1.700   4.714  16.228 -0.8713  1.1133  0.3828
15362TIP3    H267578   1.671   4.579  16.289  1.8384 -0.2180 -1.1477
15363TIP3   OH267579   5.991   4.980  11.036 -0.3086  0.4903  0.1425
15363TIP3    H167580   5.924   4.958  11.100 -0.1948  0.6777  0.3273
15363TIP3    H267581   5.966   5.066  11.003 -0.6267  0.1877 -0.4099
15364TIP3   OH267582   1.796   2.459   3.327 -0.0399 -0.2958  0.0180
15364TIP3    H167583   1.821   2.544   3.364  0.5126  0.1399 -1.3287
15364TIP3    H267584   1.775   2.406   3.403 -0.1238  0.9632  0.8981
15365TIP3   OH267585   2.683   1.501  13.582 -0.4114  0.2346 -0.9647
15365TIP3    H167586   2.641   1.441  13.644 -0.5905  1.0024 -0.3296
15365TIP3    H267587   2.775   1.502  13.608 -0.4101  0.2405 -0.9694
15366TIP3   OH267588   0.387   0.896   2.889 -0.3276 -0.3963  0.0654
15366TIP3    H167589   0.315   0.835   2.872  0.1193 -0.5433 -1.3507
15366TIP3    H267590   0.465   0.842   2.889 -0.2519 -0.3275  2.1982
15367TIP3   OH267591   2.431   4.969  13.051 -0.3848 -0.4359  0.3202
15367TIP3    H167592   2.520   4.969  13.085  0.1713 -0.3288 -1.0897
15367TIP3    H267593   2.391   4.890  13.089  0.1807 -0.2805  1.2608
15368TIP3   OH267594   6.004   2.953   1.450 -0.2768 -0.2876 -0.4941
15368TIP3    H167595   6.022   2.931   1.542  2.0245  0.7685 -0.6514
15368TIP3    H267596   6.017   3.048   1.446 -1.0128 -0.2419 -1.7841
15369TIP3   OH267597   2.491   1.339   3.013 -0.3136 -0.1211  0.0482
15369TIP3    H167598   2.546   1.309   3.085  0.7322 -0.6903 -0.9726
15369TIP3    H267599   2.497   1.435   3.017  1.1690 -0.1852 -0.3622
15370TIP3   OH267600   0.061   3.305   5.165 -0.1780  0.6600  0.3463
15370TIP3    H167601   0.096   3.253   5.092  0.9191 -0.3653  1.5825
15370TIP3    H267602  -0.006   3.250   5.203  0.2870  0.5700  1.0380
15371TIP3   OH267603   4.485   1.190   3.998 -0.1008  0.2984  0.6833
15371TIP3    H167604   4.448   1.102   3.989  1.1158 -0.2513  0.8559
15371TIP3    H267605   4.565   1.176   4.050 -0.1824  1.5809  1.1630
15372TIP3   OH267606   1.512   5.865  15.517 -0.6069  0.7418 -0.5824
15372TIP3    H167607   1.581   5.801  15.496  0.6174  1.7796  0.1609
15372TIP3    H267608   1.439   5.812  15.547  0.4796 -0.3038  0.2884
15373TIP3   OH267609   5.026   0.017  10.778  0.1817  0.0306 -0.4975
15373TIP3    H167610   4.963  -0.052  10.758 -1.0978  0.9345  0.2560
15373TIP3    H267611   5.081  -0.019  10.847 -1.5067  0.2901  1.0411
15374TIP3   OH267612   1.902   2.975   0.472  0.0619 -0.0893  0.4041
15374TIP3    H167613   1.916   3.065   0.443 -1.6352  0.4938  1.3329
15374TIP3    H267614   1.833   2.941   0.416  0.1379 -0.5511  0.5818
15375TIP3   OH267615   2.301   3.091   3.231 -0.2512 -0.2263 -0.0355
15375TIP3    H167616   2.240   3.160   3.256 -0.0036  0.1747 -0.5180
15375TIP3    H267617   2.388   3.127   3.249 -0.0500  0.2080 -1.7615
15376TIP3   OH267618   0.586   4.623   6.008 -0.2024  0.0867 -0.8615
15376TIP3    H167619   0.547   4.698   6.053 -1.2433  0.1913 -1.9204
15376TIP3    H267620   0.528   4.549   6.030 -0.2920 -0.0086 -1.3980
15377TIP3   OH267621   2.449   4.485  14.028 -0.6085  0.5141  0.4955
15377TIP3    H167622   2.371   4.456  13.980 -0.7123  0.9979  0.3594
15377TIP3    H267623   2.436   4.580  14.037  0.6467  0.8162 -0.7963
15378TIP3   OH267624   4.668   6.138  16.160 -0.0664 -0.2954 -0.1066
15378TIP3    H167625   4.574   6.153  16.162  0.0213  0.6179 -1.6632
15378TIP3    H267626   4.700   6.167  16.246 -1.1093 -0.0193  0.1856
15379TIP3   OH267627   1.716   0.294   2.712 -0.1684  0.2788 -0.3227
15379TIP3    H167628   1.649   0.228   2.694  0.0161  0.1909 -0.6805
15379TIP3    H267629   1.739   0.329   2.626 -0.3210  0.8656 -0.1313
15380TIP3   OH267630   5.805   2.765  14.427 -0.5512  0.3256  0.1362
15380TIP3    H167631   5.845   2.846  14.459 -1.7768  0.9589  0.0901
15380TIP3    H267632   5.713   2.772  14.453 -0.2851 -1.9219  1.8018
15381TIP3   OH267633   3.672   2.259   3.968 -0.0433  0.3951  0.1626
15381TIP3    H167634   3.701   2.212   4.046 -2.0669  0.7103  1.1536
15381TIP3    H267635   3.642   2.190   3.908 -1.1027  0.2962  0.7960
15382TIP3   OH267636   5.329   1.726  16.228  0.1352 -0.3062 -0.3913
15382TIP3    H167637   5.312   1.633  16.210 -1.7993 -0.0471 -0.0185
15382TIP3    H267638   5.288   1.771  16.154 -1.6226  0.3984  0.9934
15383TIP3   OH267639   4.130   6.207  10.842 -0.0420 -0.5061 -0.1177
15383TIP3    H167640   4.162   6.118  10.830  1.5715 -0.0079  0.4104
15383TIP3    H267641   4.156   6.253  10.762  1.5502  0.1826  0.7935
15384TIP3   OH267642   2.426   5.570   1.414 -0.0126  0.1540 -0.7823
15384TIP3    H167643   2.361   5.567   1.484  1.1107  1.3521  0.3449
15384TIP3    H267644   2.505   5.532   1.453  1.3932  3.2184 -0.4850
15385TIP3   OH267645   2.406   2.050   3.969  0.3854  0.5621 -0.1724
15385TIP3    H167646   2.360   2.039   3.886  1.5302 -0.0634 -0.7453
15385TIP3    H267647   2.417   1.960   4.001  0.2253  0.7839  0.4956
15386TIP3   OH267648   4.136   1.786  12.092 -0.2345 -0.2701 -0.2972
15386TIP3    H167649   4.142   1.805  11.998  1.0702  1.8873  0.1868
15386TIP3    H267650   4.087   1.860  12.128 -2.9243 -2.3129  0.4004
15387TIP3   OH267651   1.712   2.906  17.102 -1.3352 -0.5910  0.4602
15387TIP3    H167652   1.793   2.856  17.117  0.4309  1.6793 -1.1270
15387TIP3    H267653   1.713   2.974  17.169  0.7722  2.5832 -2.6344
15388TIP3   OH267654   5.391   0.501   2.688 -0.1037  0.2804  0.4215
15388TIP3    H167655   5.438   0.420   2.667 -1.6601 -0.8505  1.1921
15388TIP3    H267656   5.391   0.550   2.606 -2.2565 -2.1156 -1.1130
15389TIP3   OH267657   3.590   3.883   3.764 -0.2141 -0.1885  0.1110
15389TIP3    H167658   3.612   3.813   3.703  1.7600  1.0891 -0.7011
15389TIP3    H267659   3.666   3.941   3.763 -1.5549  1.6659  1.1882
15390TIP3   OH267660   5.448   1.844   6.871 -0.1589  0.1915 -0.0996
15390TIP3    H167661   5.355   1.847   6.847  0.0562  1.4196 -0.8411
15390TIP3    H267662   5.463   1.927   6.917  0.7436  0.3175 -0.6147
15391TIP3   OH267663   0.014   0.078   1.193  0.5753 -0.1914 -0.4806
15391TIP3    H167664   0.046   0.094   1.105  0.9615 -0.9902 -0.4883
15391TIP3    H267665   0.090   0.088   1.249  0.3734  0.1122 -0.2570
15392TIP3   OH267666   1.662   0.188  14.912 -0.7833  0.1865 -0.5134
15392TIP3    H167667   1.582   0.190  14.859 -0.6627 -0.3952 -0.7221
15392TIP3    H267668   1.684   0.095  14.918 -1.1262  0.1928  1.0486
15393TIP3   OH267669   3.624   3.809  14.719  0.1529 -0.2682  0.3313
15393TIP3    H167670   3.679   3.731  14.715  0.7893  0.2048 -0.2178
15393TIP3    H267671   3.685   3.883  14.715 -0.3484  0.2809  2.0261
15394TIP3   OH267672   0.746   0.284   4.833 -0.0499  0.1326 -0.5698
15394TIP3    H167673   0.827   0.334   4.822  0.2812 -0.4552 -0.8449
15394TIP3    H267674   0.740   0.267   4.927  0.8542 -0.9886 -0.7076
15395TIP3   OH267675   2.436   2.064   3.179 -0.3570 -0.1369 -0.1380
15395TIP3    H167676   2.516   2.111   3.156  0.0364 -0.6366  0.2070
15395TIP3    H267677   2.445   2.044   3.272  0.0401 -1.9652 -0.5574
15396TIP3   OH267678   2.904   4.396  11.704 -0.6792  0.2187 -0.3860
15396TIP3    H167679   2.887   4.468  11.644 -0.9075  0.7387  0.2942
15396TIP3    H267680   2.860   4.321  11.664 -0.3961  0.4399 -1.1247
15397TIP3   OH267681   0.965   5.477  17.090  0.4656  0.6424 -0.3500
15397TIP3    H167682   0.959   5.561  17.135 -0.1855  0.0293  0.7373
15397TIP3    H267683   1.019   5.423  17.148  0.0397 -0.0002 -0.5460
15398TIP3   OH267684   6.660   2.611   1.316  0.7520  0.2577 -0.1927
15398TIP3    H167685   6.572   2.614   1.278  0.3393  0.0653  0.7305
15398TIP3    H267686   6.686   2.703   1.325  0.0636  0.3536  0.8499
15399TIP3   OH267687   5.780   1.933   4.050  0.0054  0.0511 -0.3217
15399TIP3    H167688   5.853   1.926   4.112 -0.2105  0.3318 -0.0324
15399TIP3    H267689   5.773   2.027   4.032 -0.2849  0.0255 -0.3466
15400TIP3   OH267690   6.009   1.969   1.976 -0.2455 -0.0065  0.2030
15400TIP3    H167691   6.030   1.982   2.068 -2.2667 -0.1090  0.7024
15400TIP3    H267692   5.921   1.931   1.977  0.2569 -1.2988 -1.7135
15401TIP3   OH267693   5.715   0.819   0.624  0.0044 -0.3229 -0.0476
15401TIP3    H167694   5.754   0.897   0.584  2.5888 -1.1597  0.7304
15401TIP3    H267695   5.621   0.838   0.625  0.4816  2.4200 -0.6290
15402TIP3   OH267696   2.128   0.584   4.686 -0.2949 -0.7280  0.2503
15402TIP3    H167697   2.090   0.565   4.772 -0.1764 -1.0369  0.2353
15402TIP3    H267698   2.116   0.678   4.675 -1.8420 -0.9653 -0.1488
15403TIP3   OH267699   3.947   1.726  11.639  0.5981 -0.4133 -0.4333
15403TIP3    H167700   3.987   1.651  11.595 -0.0066 -1.2870  0.4851
15403TIP3    H267701   3.894   1.687  11.709 -0.7421  0.7881 -0.7540
15404TIP3   OH267702   5.708   5.555   3.479 -0.2489 -0.3198 -0.0337
15404TIP3    H167703   5.638   5.566   3.544 -0.4031  1.0285 -0.4157
15404TIP3    H267704   5.786   5.536   3.531 -0.8812 -1.7820  0.3997
15405TIP3   OH267705   0.622   0.275  11.716  0.2442  0.2685  0.0247
15405TIP3    H167706   0.694   0.301  11.659  0.3932  0.8754  0.4909
15405TIP3    H267707   0.544   0.287  11.662  0.6042 -2.2065 -1.1330
15406TIP3   OH267708   2.135   2.698   3.613 -0.0346 -0.4555  0.4835
15406TIP3    H167709   2.100   2.711   3.525  0.8055 -0.5881  0.1237
15406TIP3    H267710   2.118   2.606   3.632  1.7999 -1.0015 -0.4475
15407TIP3   OH267711   2.149   1.500  13.390  0.2740 -0.2761  0.3176
15407TIP3    H167712   2.129   1.408  13.407  1.1725 -0.5997 -0.3497
15407TIP3    H267713   2.117   1.515  13.301  0.8885 -0.1691  0.1135
15408TIP3   OH267714   1.003   2.427  15.564  0.2640  0.8574 -0.6634
15408TIP3    H167715   1.010   2.521  15.553  1.0252  0.8298 -0.4346
15408TIP3    H267716   0.909   2.409  15.563  0.1193  1.6264 -0.6151
15409TIP3   OH267717   5.640   6.529  14.700 -0.7314 -0.0463 -0.6208
15409TIP3    H167718   5.557   6.499  14.736 -0.8679  0.5545 -0.4345
15409TIP3    H267719   5.706   6.474  14.742 -1.0289 -0.4970 -0.7410
15410TIP3   OH267720   5.169   6.156   0.015  0.1352 -0.5531 -0.3581
15410TIP3    H167721   5.230   6.189   0.081  0.5111  2.0557 -1.9205
15410TIP3    H267722   5.221   6.094  -0.036  0.9507  0.2305 -0.5021
15411TIP3   OH267723   5.234   6.179  11.757  0.3441 -0.4355  0.0498
15411TIP3    H167724   5.264   6.173  11.667  2.1416  0.0788  0.6029
15411TIP3    H267725   5.310   6.154  11.810 -1.0361 -1.9332  1.4064
15412TIP3   OH267726   3.952   5.976   0.483 -0.2543  0.3261 -0.8603
15412TIP3    H167727   3.966   5.917   0.557  0.5994  0.2339 -1.0884
15412TIP3    H267728   3.926   5.919   0.411 -0.7224  0.3755 -0.7308
15413TIP3   OH267729   6.600   4.955  13.187 -0.7999 -0.0414 -0.2172
15413TIP3    H167730   6.694   4.949  13.170 -1.0115 -1.5002 -0.9561
15413TIP3    H267731   6.573   5.035  13.143  0.3634  1.2739  1.3627
15414TIP3   OH267732   4.252   4.506  12.175  0.2525 -0.1534  0.0566
15414TIP3    H167733   4.220   4.421  12.205  1.0729  0.0164  1.4920
15414TIP3    H267734   4.199   4.569  12.223 -0.3583  0.1518 -1.0143
15415TIP3   OH267735   2.719   6.527  10.581 -0.2974 -0.9513 -0.3355
15415TIP3    H167736   2.723   6.610  10.628 -0.3318 -0.9161 -0.3949
15415TIP3    H267737   2.646   6.480  10.622 -1.0011 -0.4927 -1.0435
15416TIP3   OH267738   1.177   4.318   0.492 -0.6475  0.3273 -0.2780
15416TIP3    H167739   1.190   4.310   0.397 -1.9047  1.7181 -0.5889
15416TIP3    H267740   1.259   4.353   0.525 -0.2023 -0.1617 -0.8538
15417TIP3   OH267741   0.577   3.961   5.368  0.3245  0.0387 -0.0926
15417TIP3    H167742   0.605   3.882   5.414  1.4767  0.9541  0.7903
15417TIP3    H267743   0.653   4.019   5.370 -0.3406  0.9781 -1.1849
15418TIP3   OH267744   1.936   0.903  12.528  0.0611 -0.5978 -0.1395
15418TIP3    H167745   2.008   0.846  12.503  0.7387 -0.0592  0.5716
15418TIP3    H267746   1.864   0.876  12.471  0.9589 -0.8042 -1.2038
15419TIP3   OH267747   1.178   4.206  10.543 -0.1472 -0.1205  0.0685
15419TIP3    H167748   1.100   4.163  10.508  0.8923 -1.6426 -0.4097
15419TIP3    H267749   1.245   4.195  10.476  1.2391 -1.1406  1.5663
15420TIP3   OH267750   1.414   2.426  13.784  0.3905 -0.2652  0.4209
15420TIP3    H167751   1.419   2.351  13.843  2.7738  0.5543  1.2881
15420TIP3    H267752   1.328   2.417  13.742 -0.2111 -2.3319  2.0120
15421TIP3   OH267753   3.072   6.210  17.018  0.1821  0.5053  0.2022
15421TIP3    H167754   3.150   6.175  17.061  1.7811  0.6864 -2.4271
15421TIP3    H267755   3.087   6.193  16.925 -2.1293  2.1282 -0.4959
15422TIP3   OH267756   2.169   4.764  12.685 -0.5810  0.0376 -0.4173
15422TIP3    H167757   2.077   4.763  12.660 -0.9177 -4.4640  0.5245
15422TIP3    H267758   2.168   4.756  12.780  0.7308 -2.5875 -0.5800
15423TIP3   OH267759   6.301   3.427   1.764  0.1180  0.0004 -0.1935
15423TIP3    H167760   6.350   3.345   1.774 -0.8433 -0.4996  0.5197
15423TIP3    H267761   6.253   3.416   1.682  0.7753  0.2674 -0.6149
15424TIP3   OH267762   2.478   3.806   4.156  0.4787 -0.4181 -0.2262
15424TIP3    H167763   2.540   3.871   4.122 -1.6242  1.5018 -0.5800
15424TIP3    H267764   2.485   3.814   4.251  0.2750  0.2994 -0.2665
15425TIP3   OH267765   6.284   1.075   3.932 -0.5709  0.0263  0.1659
15425TIP3    H167766   6.215   1.118   3.883 -1.6437  0.9001  2.3521
15425TIP3    H267767   6.242   1.048   4.014  1.1242 -1.4891  0.5789
15426TIP3   OH267768   0.130   0.976   6.105 -0.1141  0.1672 -1.0279
15426TIP3    H167769   0.044   0.996   6.141  0.9402  0.3372  1.4838
15426TIP3    H267770   0.168   0.914   6.167  1.6656  0.2756 -1.9850
15427TIP3   OH267771   6.455   4.717   3.633 -0.0812  0.4775 -0.0877
15427TIP3    H167772   6.387   4.685   3.693  0.7742 -1.8046 -0.3009
15427TIP3    H267773   6.406   4.743   3.555 -0.7106 -1.4772 -0.3735
15428TIP3   OH267774   0.124   6.337  12.457  0.5163 -0.1486  0.0888
15428TIP3    H167775   0.052   6.395  12.433  0.7724 -0.0204 -0.3633
15428TIP3    H267776   0.097   6.250  12.427 -0.6143 -0.5794  2.2461
15429TIP3   OH267777   5.630   4.358  15.669  0.3487  0.1171 -0.3679
15429TIP3    H167778   5.687   4.354  15.745  1.5473  1.2231 -1.1854
15429TIP3    H267779   5.624   4.451  15.648 -0.3012 -0.1368 -1.3821
15430TIP3   OH267780   4.864   1.351  12.161  0.5613 -0.0016 -0.3430
15430TIP3    H167781   4.943   1.383  12.205 -0.0277  0.4245  0.4374
15430TIP3    H267782   4.806   1.428  12.159 -0.3192 -0.6475  0.2457
15431TIP3   OH267783   1.763   6.755  11.493 -0.1488 -0.5299  0.1413
15431TIP3    H167784   1.765   6.686  11.559 -0.9727  0.2458  0.9889
15431TIP3    H267785   1.684   6.736  11.441 -0.1658 -0.4516  0.1370
15432TIP3   OH267786   2.154   1.709   0.002  0.0120  0.0321  0.3484
15432TIP3    H167787   2.244   1.690  -0.024 -0.2348 -0.7203  0.0142
15432TIP3    H267788   2.101   1.663  -0.063 -0.6134  0.0907  0.8141
15433TIP3   OH267789   2.064   6.607  11.427  0.3780  0.2762 -0.4481
15433TIP3    H167790   2.034   6.531  11.476 -0.3738  1.1336  0.4564
15433TIP3    H267791   1.983   6.648  11.396  0.7855  0.5807 -1.1147
15434TIP3   OH267792   3.253   6.119   4.316 -0.3396 -0.0947 -0.0808
15434TIP3    H167793   3.338   6.160   4.327 -0.2014  0.0422 -1.5257
15434TIP3    H267794   3.253   6.046   4.378  0.1537  0.9104  1.1345
15435TIP3   OH267795   4.914   2.348   5.284  0.0230 -0.4830  0.0945
15435TIP3    H167796   5.006   2.368   5.304 -0.0452 -0.2262  0.1584
15435TIP3    H267797   4.907   2.254   5.296  0.8276 -0.8463 -2.0298
15436TIP3   OH267798   3.587   6.332  14.473 -0.1963  0.1213  0.2253
15436TIP3    H167799   3.650   6.403  14.487  0.3623  0.0779 -1.8798
15436TIP3    H267800   3.520   6.345  14.540  1.0022  1.3826  1.1957
15437TIP3   OH267801   3.985   0.461   5.256 -0.3163  0.7056 -0.1050
15437TIP3    H167802   4.027   0.446   5.171 -1.5169  1.6706 -0.8906
15437TIP3    H267803   4.027   0.539   5.290  1.5068 -0.7627  1.0854
15438TIP3   OH267804   1.206   6.357  10.895  0.9836  0.5449  0.2784
15438TIP3    H167805   1.242   6.370  10.808  0.4953 -1.9927 -0.3370
15438TIP3    H267806   1.116   6.326  10.880  0.7628  0.4416  1.6699
15439TIP3   OH267807   0.132   0.964  12.685  0.6867 -1.1587  0.3920
15439TIP3    H167808   0.117   0.870  12.687  1.0377 -1.3406 -2.8442
15439TIP3    H267809   0.046   1.001  12.663  0.9981 -0.8915 -0.3926
15440TIP3   OH267810   1.772   1.757   2.038 -0.1987  0.3056 -0.4775
15440TIP3    H167811   1.723   1.831   2.072  0.5516  0.1820  0.8886
15440TIP3    H267812   1.860   1.768   2.072  0.1541 -0.7083 -1.0300
15441TIP3   OH267813   1.425   2.907   3.545  0.6689 -0.2673  0.6547
15441TIP3    H167814   1.441   2.852   3.469 -1.6529  0.1949 -0.1951
15441TIP3    H267815   1.503   2.963   3.550  1.5182 -1.3111 -0.4662
15442TIP3   OH267816   1.537   6.615   6.054  0.8705  0.0237  0.2820
15442TIP3    H167817   1.525   6.698   6.100 -0.8786  1.2662 -2.3157
15442TIP3    H267818   1.469   6.558   6.089 -1.6292  1.5317 -1.9386
15443TIP3   OH267819   1.190   3.450   5.349  0.4733  0.2842 -0.5024
15443TIP3    H167820   1.121   3.503   5.310 -0.0770 -0.4139 -0.4829
15443TIP3    H267821   1.158   3.360   5.341  0.4238  0.1197  1.4161
15444TIP3   OH267822   4.655   0.797  17.168 -0.0424  0.1621  0.8781
15444TIP3    H167823   4.682   0.800  17.260 -1.6519 -0.1796  1.3775
15444TIP3    H267824   4.600   0.874  17.157  0.0404  0.1292  0.2384
15445TIP3   OH267825   5.670   4.012   2.087  0.2742  0.6024  0.3402
15445TIP3    H167826   5.630   4.090   2.050  0.2554  1.6712  2.5433
15445TIP3    H267827   5.745   3.994   2.031  1.0181  2.9540  0.5408
15446TIP3   OH267828   3.893   2.532   4.158  0.0178 -0.3908  0.0733
15446TIP3    H167829   3.841   2.502   4.083  0.9423  0.0966 -0.7600
15446TIP3    H267830   3.939   2.453   4.188  0.6648 -0.3058 -0.6888
15447TIP3   OH267831   5.697   2.491  12.181 -0.0142 -0.7982 -0.4858
15447TIP3    H167832   5.735   2.409  12.149  0.5435  0.0980 -2.1430
15447TIP3    H267833   5.766   2.556  12.168 -1.0421  0.2543 -0.6984
15448TIP3   OH267834   2.294   5.128  14.296 -0.5498 -0.1283  0.1967
15448TIP3    H167835   2.349   5.106  14.372 -2.8739  0.3047  2.0601
15448TIP3    H267836   2.215   5.076  14.308 -2.0926  2.0016 -0.4507
15449TIP3   OH267837   4.071   0.249  16.954 -0.7435  0.7179  0.1649
15449TIP3    H167838   3.985   0.221  16.987 -0.2322 -0.7645  0.2908
15449TIP3    H267839   4.055   0.274  16.864 -1.1566 -0.4560 -0.1090
15450TIP3   OH267840   6.389   5.991  16.190 -0.1996 -0.4804 -0.2498
15450TIP3    H167841   6.375   6.085  16.175  0.0243 -0.4020  0.0136
15450TIP3    H267842   6.484   5.979  16.180 -0.4550 -1.0342 -2.1504
15451TIP3   OH267843   2.115   1.720   3.605 -0.1164 -0.6166  0.2994
15451TIP3    H167844   2.122   1.809   3.569  0.1747 -0.0826  1.6701
15451TIP3    H267845   2.021   1.708   3.618 -0.2874 -1.0605 -1.2319
15452TIP3   OH267846   1.508   3.586   2.015 -0.0288 -0.2449 -0.0507
15452TIP3    H167847   1.454   3.541   2.081  0.6351 -0.1854  0.5303
15452TIP3    H267848   1.532   3.669   2.056  0.6159 -0.3250 -0.2705
15453TIP3   OH267849   1.109   2.109  16.315  0.2430 -0.2365 -0.3124
15453TIP3    H167850   1.082   2.079  16.401 -1.8103 -1.1790 -1.2685
15453TIP3    H267851   1.028   2.126  16.268  1.3452  2.4031 -1.3426
15454TIP3   OH267852   0.945   6.787   5.404  0.7484  0.4607 -0.1346
15454TIP3    H167853   0.913   6.804   5.315  0.6133  0.2236 -0.1340
15454TIP3    H267854   0.882   6.832   5.461  0.9338  0.7594 -0.1634
15455TIP3   OH267855   5.038   0.821   3.101  0.4695  0.3362  0.0089
15455TIP3    H167856   5.133   0.810   3.098  0.8389  3.2624 -0.5690
15455TIP3    H267857   5.014   0.791   3.189  2.0278  0.2060  0.4102
15456TIP3   OH267858   4.094   3.908   5.050 -0.5784 -0.4943 -0.0310
15456TIP3    H167859   4.072   3.816   5.068 -1.3052 -0.0781  1.2560
15456TIP3    H267860   4.185   3.917   5.080 -0.5269 -0.7807 -0.1011
15457TIP3   OH267861   5.538   5.431  16.890  0.5430  0.5272  0.3382
15457TIP3    H167862   5.450   5.397  16.873  0.6989 -0.2762  1.1048
15457TIP3    H267863   5.582   5.427  16.805  0.1958 -0.1486  0.1896
15458TIP3   OH267864   0.451   2.184  16.839  0.4152  0.5843  0.5712
15458TIP3    H167865   0.537   2.203  16.800  0.6873 -0.3023  0.7195
15458TIP3    H267866   0.446   2.089  16.840 -0.0185  0.6082  1.7831
15459TIP3   OH267867   0.937   1.804  13.646 -0.2897  0.0046  0.1539
15459TIP3    H167868   0.899   1.794  13.733  2.5098  1.5480  1.6067
15459TIP3    H267869   0.891   1.739  13.592 -2.5206 -0.5141  2.5996
15460TIP3   OH267870   5.570   6.727   0.912  0.1041  0.2266 -0.5198
15460TIP3    H167871   5.530   6.795   0.965 -0.2906 -0.5779  0.2245
15460TIP3    H267872   5.504   6.657   0.909  1.4979 -1.1903  0.8814
15461TIP3   OH267873   5.993   3.846   2.071  0.0469 -0.3482  0.2296
15461TIP3    H167874   5.945   3.767   2.097  2.0526 -1.8456 -0.4864
15461TIP3    H267875   5.955   3.872   1.988  1.3286 -2.3361 -1.0238
15462TIP3   OH267876   0.742   6.012   1.054  0.2257 -0.0417  0.3777
15462TIP3    H167877   0.742   5.949   0.983 -0.7814  0.2097  0.1328
15462TIP3    H267878   0.781   6.091   1.017  1.3472 -0.4758  0.6406
15463TIP3   OH267879   4.097   2.670  14.904 -0.3149 -0.2931 -0.0915
15463TIP3    H167880   4.065   2.655  14.815  0.5262 -1.6809 -0.1797
15463TIP3    H267881   4.185   2.633  14.905  0.3971  1.3547  0.8182
15464TIP3   OH267882   5.282   4.328  14.684  0.3944 -0.3896 -0.0968
15464TIP3    H167883   5.319   4.404  14.638  0.0427 -1.2557 -1.8519
15464TIP3    H267884   5.189   4.347  14.690  0.1715 -1.0409 -1.2907
15465TIP3   OH267885   3.941   0.259  16.674 -0.3233 -0.0457  0.2437
15465TIP3    H167886   3.996   0.181  16.665 -1.8112 -0.9494 -1.3616
15465TIP3    H267887   3.916   0.281  16.584 -1.6472  1.0285  0.8537
15466TIP3   OH267888   6.353   1.213  13.620 -0.6468 -0.3889  0.4160
15466TIP3    H167889   6.353   1.142  13.684  0.9673 -1.7166 -0.9908
15466TIP3    H267890   6.440   1.209  13.580 -0.7446  2.0041 -0.1320
15467TIP3   OH267891   2.181   6.644  13.780 -0.0002  0.5772  0.0630
15467TIP3    H167892   2.113   6.593  13.737  0.8462 -0.3614 -0.1656
15467TIP3    H267893   2.232   6.682  13.708  0.2186  0.6164  0.2380
15468TIP3   OH267894   6.439   1.712  14.258 -0.2937 -0.2775  0.5289
15468TIP3    H167895   6.464   1.752  14.341 -1.0118  1.3597 -0.0279
15468TIP3    H267896   6.385   1.637  14.282 -0.9170  0.4907  1.5290
15469TIP3   OH267897   3.267   3.611  14.229  0.1397 -0.1041 -0.3513
15469TIP3    H167898   3.270   3.528  14.276 -0.8382 -0.3860 -0.7713
15469TIP3    H267899   3.338   3.604  14.165  1.0688  0.0310  0.6642
15470TIP3   OH267900   6.684   0.529  16.031  0.1636 -0.9725 -0.5055
15470TIP3    H167901   6.646   0.534  16.119  0.6862 -0.7492 -0.2912
15470TIP3    H267902   6.621   0.575  15.975  1.2333  1.4601  0.2275
15471TIP3   OH267903   4.493   5.910  13.853  0.2094 -0.0520 -0.6121
15471TIP3    H167904   4.571   5.957  13.824  1.3906 -0.7932  1.2736
15471TIP3    H267905   4.525   5.823  13.879 -1.5224 -0.9919 -1.5107
15472TIP3   OH267906   4.345   5.766  17.170  0.3205 -0.2003  0.4463
15472TIP3    H167907   4.268   5.803  17.126  0.7264 -0.5859 -0.5999
15472TIP3    H267908   4.406   5.747  17.100  1.5307  0.4348  1.3134
15473TIP3   OH267909   6.811   5.365  12.360  0.3077 -0.1555  0.0437
15473TIP3    H167910   6.740   5.330  12.414 -0.4826 -0.3987 -1.1120
15473TIP3    H267911   6.781   5.350  12.270  1.1269  1.1712 -0.4603
15474TIP3   OH267912   1.432   1.063   3.174  0.1633 -0.2338  0.2645
15474TIP3    H167913   1.430   1.156   3.197 -1.0995 -0.4312  0.9884
15474TIP3    H267914   1.524   1.040   3.176  0.5582  1.1991 -0.6979
15475TIP3   OH267915   0.167   6.817   6.222 -0.1586  0.3545 -0.2121
15475TIP3    H167916   0.199   6.831   6.311  2.8482 -0.3335 -1.1174
15475TIP3    H267917   0.077   6.849   6.223  0.6307  2.6591  2.4173
15476TIP3   OH267918   1.160   0.836  15.725 -0.3906  0.6864  0.3182
15476TIP3    H167919   1.243   0.789  15.727  0.9117  2.9350  0.8934
15476TIP3    H267920   1.173   0.905  15.660 -1.8057  1.0359  0.3972
15477TIP3   OH267921   0.785   0.626  11.867  0.0774  0.5465 -0.1388
15477TIP3    H167922   0.782   0.717  11.897  4.4487  0.8516 -0.3205
15477TIP3    H267923   0.751   0.630  11.777 -0.1772  1.9019  0.0023
15478TIP3   OH267924   4.645   4.605   1.420 -0.6670 -0.6511 -0.4534
15478TIP3    H167925   4.677   4.515   1.420 -2.2254 -1.2255  0.4854
15478TIP3    H267926   4.699   4.650   1.356  1.8077 -1.6533  0.8665
15479TIP3   OH267927   6.691   0.963  14.565 -0.1464  0.2322 -0.4029
15479TIP3    H167928   6.644   0.965  14.648  0.4222  0.4463 -0.0871
15479TIP3    H267929   6.779   0.993  14.586  0.0042  0.2771 -1.0806
15480TIP3   OH267930   1.563   2.072  11.644 -0.3297  0.1173  0.2760
15480TIP3    H167931   1.589   2.029  11.725  0.1916  0.5414  0.3365
15480TIP3    H267932   1.553   2.001  11.581  0.0731 -0.1368  0.4951
15481TIP3   OH267933   4.547   1.318  11.343  0.4441 -0.5415  0.4390
15481TIP3    H167934   4.631   1.272  11.337 -0.0545 -1.5079  0.7266
15481TIP3    H267935   4.496   1.266  11.405 -0.9353 -0.8625 -0.9448
15482TIP3   OH267936   5.393   3.620  14.005 -0.0370  0.2061  0.1735
15482TIP3    H167937   5.358   3.531  14.007  0.8818 -0.2628 -2.4960
15482TIP3    H267938   5.488   3.609  14.015  0.1171  0.8313 -0.5505
15483TIP3   OH267939   5.885   3.970   0.434 -0.3006  0.1456 -0.5828
15483TIP3    H167940   5.894   3.912   0.358  0.2160  1.6800 -1.7190
15483TIP3    H267941   5.949   3.937   0.497 -0.3731 -0.8386 -1.0199
15484TIP3   OH267942   0.489   3.484  13.773 -0.1353 -0.3607 -0.8103
15484TIP3    H167943   0.434   3.413  13.807 -0.1482 -0.6632 -1.4388
15484TIP3    H267944   0.544   3.441  13.707  0.8562 -0.0579 -0.1760
15485TIP3   OH267945   4.434   2.323   4.752  0.2760  0.4835  0.5078
15485TIP3    H167946   4.383   2.299   4.829  2.3190 -0.7366  1.5204
15485TIP3    H267947   4.403   2.265   4.682 -0.5416  0.5702  0.7985
15486TIP3   OH267948   5.929   2.296  10.696  0.4110  0.3368 -0.3600
15486TIP3    H167949   5.994   2.365  10.680  0.3636  1.0208  2.1533
15486TIP3    H267950   5.964   2.219  10.652  2.0565  1.1491 -0.5149
15487TIP3   OH267951   4.785   1.086  12.231  0.1552  0.5186 -0.9558
15487TIP3    H167952   4.710   1.127  12.275 -0.7541 -1.3538 -0.7071
15487TIP3    H267953   4.826   1.157  12.183 -1.0642  1.8336 -0.0983
15488TIP3   OH267954   1.547   6.247  13.594  0.3616 -0.6481 -0.0135
15488TIP3    H167955   1.500   6.246  13.678  1.2693  0.3131  0.5176
15488TIP3    H267956   1.566   6.155  13.577 -1.3851 -1.0162 -0.0589
15489TIP3   OH267957   0.810   0.461  12.476 -0.2431 -0.6244 -0.2393
15489TIP3    H167958   0.873   0.529  12.502 -0.9552 -0.0005 -0.1169
15489TIP3    H267959   0.862   0.381  12.469  0.6416 -0.0243 -0.5811
15490TIP3   OH267960   4.317   5.496  16.656  0.6185  0.1251  0.1318
15490TIP3    H167961   4.371   5.455  16.724  1.5865 -0.1354 -0.7799
15490TIP3    H267962   4.237   5.442  16.654 -0.0696  1.0211  2.0790
15491TIP3   OH267963   2.512   2.722   2.506 -0.5703  0.3576  0.4790
15491TIP3    H167964   2.597   2.746   2.469 -0.6142 -0.5889 -0.2330
15491TIP3    H267965   2.533   2.678   2.588 -0.4043  0.6859  0.6164
15492TIP3   OH267966   0.871   5.964   4.358  0.1527 -0.5207  0.2167
15492TIP3    H167967   0.886   5.900   4.288 -0.0204  0.9259 -1.1876
15492TIP3    H267968   0.959   5.994   4.381  0.1358 -0.0390 -0.3235
15493TIP3   OH267969   6.673   0.811   2.510 -0.0919 -0.1105 -0.3070
15493TIP3    H167970   6.716   0.878   2.457  0.6938  0.0861  0.5840
15493TIP3    H267971   6.732   0.736   2.506 -0.3603 -0.3254 -0.2627
15494TIP3   OH267972   3.716   4.150   3.127 -0.3567  0.0808 -0.2590
15494TIP3    H167973   3.715   4.077   3.189  0.9156  2.2691  2.4994
15494TIP3    H267974   3.801   4.144   3.085  0.0610  0.3890  0.5255
15495TIP3   OH267975   1.681   5.451  13.178  0.2392  0.5843  0.1473
15495TIP3    H167976   1.701   5.459  13.271 -1.3004 -1.1579  0.6696
15495TIP3    H267977   1.739   5.514  13.135  0.5753  1.8093  2.3265
15496TIP3   OH267978   0.864   3.807   0.482  0.3896 -0.4856 -0.6685
15496TIP3    H167979   0.956   3.790   0.462  0.2971 -1.6329 -0.1629
15496TIP3    H267980   0.858   3.902   0.486  1.1523 -0.3228 -2.6027
15497TIP3   OH267981   1.333   4.630   0.793 -0.3374  0.2130  0.7769
15497TIP3    H167982   1.392   4.667   0.859 -1.0919  0.5973  1.2408
15497TIP3    H267983   1.291   4.706   0.752 -1.6520 -0.1083  1.5105
15498TIP3   OH267984   5.053   4.989  15.295  0.1189  0.2026  0.4633
15498TIP3    H167985   5.104   4.929  15.349 -1.1274 -0.7347  0.6347
15498TIP3    H267986   4.967   4.993  15.339 -1.0385 -0.8875 -1.6282
15499TIP3   OH267987   2.774   0.261  15.534 -0.0412  0.2574 -0.1235
15499TIP3    H167988   2.709   0.290  15.470 -0.5075 -1.1667 -0.3134
15499TIP3    H267989   2.837   0.334  15.539 -1.6838  1.6991  0.1348
15500TIP3   OH267990   4.374   0.007  13.380  0.5253 -0.4319  0.1641
15500TIP3    H167991   4.469   0.006  13.363  0.8698 -2.4636  2.0055
15500TIP3    H267992   4.365  -0.032  13.466 -2.2167 -2.7336 -1.1076
15501TIP3   OH267993   2.672   2.247  14.642 -0.0235 -0.8346 -0.4093
15501TIP3    H167994   2.586   2.263  14.682  1.2086  0.4442  1.8174
15501TIP3    H267995   2.697   2.160  14.671  0.1628 -0.5325  0.3642
15502TIP3   OH267996   3.406   2.091  16.943 -0.7301 -0.2906  0.1665
15502TIP3    H167997   3.446   2.066  17.026  0.0578 -0.4610 -0.2513
15502TIP3    H267998   3.382   2.007  16.902 -0.2750 -0.2543 -0.1799
15503TIP3   OH267999   2.256   6.401  11.937  0.7833 -0.8761  0.1353
15503TIP3    H168000   2.213   6.318  11.913 -1.9743 -0.3564  3.0274
15503TIP3    H268001   2.282   6.438  11.853  1.1678 -4.1784 -1.3064
15504TIP3   OH268002   0.758   0.305  14.124  0.0981 -0.3744 -0.6504
15504TIP3    H168003   0.791   0.320  14.213 -0.4813  1.5942 -0.7344
15504TIP3    H268004   0.795   0.377  14.073 -0.0016 -1.1941 -1.8869
15505TIP3   OH268005   0.364   6.635  14.587 -0.2969 -0.3467 -0.3358
15505TIP3    H168006   0.421   6.635  14.663 -0.6854  0.1596 -0.0430
15505TIP3    H268007   0.295   6.697  14.608  1.1253  1.9738 -2.2642
15506TIP3   OH268008   0.168   3.564   3.286  0.1958  0.3055  0.2530
15506TIP3    H168009   0.152   3.474   3.313  0.2141  0.6036  1.2649
15506TIP3    H268010   0.081   3.600   3.269  0.1880  0.1093 -0.1458
15507TIP3   OH268011   0.646   5.239   0.242  0.1645  0.0595 -0.1604
15507TIP3    H168012   0.704   5.163   0.230 -0.0488 -0.1011 -0.1843
15507TIP3    H268013   0.564   5.201   0.276  0.0460  0.2758 -0.2054
15508TIP3   OH268014   3.826   6.463   5.741 -0.1380  0.0361  0.3450
15508TIP3    H168015   3.895   6.398   5.728  0.1163  0.2015  0.8776
15508TIP3    H268016   3.745   6.414   5.729  0.0738 -0.1032 -0.5462
15509TIP3   OH268017   0.358   5.344   0.912 -0.2737 -0.0846 -0.2021
15509TIP3    H168018   0.349   5.357   0.818  0.2921  0.6490 -0.1607
15509TIP3    H268019   0.278   5.382   0.949 -0.9033 -1.1492 -0.4402
15510TIP3   OH268020   3.314   3.495   0.816  0.1380 -0.3915 -0.1623
15510TIP3    H168021   3.394   3.488   0.867 -0.3023  0.5597  0.6790
15510TIP3    H268022   3.249   3.447   0.866 -0.5453  1.4059  0.7280
15511TIP3   OH268023   3.008   5.594   0.460  0.3052 -0.0194 -0.0613
15511TIP3    H168024   3.061   5.556   0.389  0.2970 -0.8342  0.3638
15511TIP3    H268025   3.012   5.529   0.530  2.5138  1.9186  1.7244
15512TIP3   OH268026   3.575   4.343   1.581  0.4990  0.0372  0.1753
15512TIP3    H168027   3.577   4.254   1.617  1.1149  0.9751  2.5449
15512TIP3    H268028   3.663   4.377   1.597  0.9369  0.3537 -2.6679
15513TIP3   OH268029   0.599   2.886   3.132 -0.4551 -0.1941  0.2911
15513TIP3    H168030   0.679   2.902   3.181 -0.7627 -0.6293  0.9481
15513TIP3    H268031   0.562   2.973   3.116  0.5530  0.0629 -0.7194
15514TIP3   OH268032   2.591   4.963  13.923  0.2222  0.2050 -0.0698
15514TIP3    H168033   2.564   5.052  13.949 -0.1892 -0.1004  0.5526
15514TIP3    H268034   2.665   4.943  13.979  1.4226  0.8296 -1.4060
15515TIP3   OH268035   4.703   3.312   1.740  0.4122 -0.1962 -0.1351
15515TIP3    H168036   4.658   3.230   1.721 -0.9012  0.3202  0.6949
15515TIP3    H268037   4.742   3.338   1.656 -2.2895  0.2217 -1.3258
15516TIP3   OH268038   2.814   0.618  13.605 -0.1808  0.1575  0.0610
15516TIP3    H168039   2.806   0.611  13.700 -3.3616 -0.2179 -0.1768
15516TIP3    H268040   2.889   0.563  13.583  0.7239  0.4258  2.3631
15517TIP3   OH268041   4.286   4.153   2.368 -0.1346  0.1867 -0.3396
15517TIP3    H168042   4.211   4.197   2.408 -0.0292  0.4018 -0.3754
15517TIP3    H268043   4.264   4.147   2.275 -0.9104 -1.3988 -0.0688
15518TIP3   OH268044   3.419   3.096  12.662 -0.1583  0.1104  0.0375
15518TIP3    H168045   3.488   3.069  12.722 -1.2352  0.9214  1.6985
15518TIP3    H268046   3.455   3.171  12.615  0.0166  0.6965  1.0907
15519TIP3   OH268047   1.482   1.201  14.251  0.5306  0.4768 -0.7610
15519TIP3    H168048   1.498   1.179  14.343  1.1062 -1.4690 -1.3119
15519TIP3    H268049   1.414   1.140  14.223  0.3949  1.0284 -1.6408
15520TIP3   OH268050   4.675   2.666   3.796  0.1045 -0.2236  0.3685
15520TIP3    H168051   4.592   2.702   3.765  0.0562 -0.8906 -0.3077
15520TIP3    H268052   4.650   2.587   3.845  0.2179  0.5594  1.7034
15521TIP3   OH268053   4.897   3.461   6.697 -0.6571  0.2769 -0.2981
15521TIP3    H168054   4.962   3.490   6.761 -1.7353  1.1740  0.4110
15521TIP3    H268055   4.911   3.367   6.690 -1.9276 -0.2228  2.9225
15522TIP3   OH268056   5.722   6.186   1.806 -0.0602  0.1233 -0.3266
15522TIP3    H168057   5.627   6.196   1.814 -0.1619 -0.2128 -1.0455
15522TIP3    H268058   5.737   6.177   1.712  0.4464 -2.1628 -0.0555
15523TIP3   OH268059   1.991   0.263   0.733  0.4880  0.6480 -0.3611
15523TIP3    H168060   1.914   0.313   0.759  0.5593  0.6076 -0.0773
15523TIP3    H268061   1.968   0.226   0.648  0.0007  0.2100 -0.0392
15524TIP3   OH268062   2.960   3.768  15.736 -0.3286 -0.0719  0.1258
15524TIP3    H168063   2.893   3.816  15.688 -0.6660  0.0204  0.6835
15524TIP3    H268064   3.031   3.831  15.749 -0.3907  0.0082  0.0683
15525TIP3   OH268065   4.278   1.670   2.928 -0.1358 -0.5002  0.1464
15525TIP3    H168066   4.198   1.644   2.883 -0.3316  0.6891 -0.2123
15525TIP3    H268067   4.272   1.765   2.935  1.7927 -0.2632 -0.9543
15526TIP3   OH268068   2.830   5.177  14.523  0.3293  0.6869  0.1816
15526TIP3    H168069   2.851   5.205  14.434 -0.2882  0.2879 -0.0922
15526TIP3    H268070   2.760   5.236  14.551  0.0726  0.3885  0.1640
15527TIP3   OH268071   0.177   3.860   2.717  0.0904 -0.6215 -0.7676
15527TIP3    H168072   0.133   3.809   2.784  0.1921 -0.5925 -0.6795
15527TIP3    H268073   0.122   3.849   2.639  0.9577 -2.1444 -1.1754
15528TIP3   OH268074   0.966   4.617  16.176  0.4240 -0.0149 -0.0830
15528TIP3    H168075   1.049   4.627  16.131  1.3998 -1.3005  1.3527
15528TIP3    H268076   0.980   4.656  16.262 -0.3652 -0.4662  0.2578
15529TIP3   OH268077   2.012   5.794  11.125  0.4112  0.2222 -0.4766
15529TIP3    H168078   2.017   5.889  11.114  1.6445  0.3035  0.6341
15529TIP3    H268079   1.918   5.775  11.124  0.0434  1.7251  1.3356
15530TIP3   OH268080   4.520   1.924   2.743 -0.1825  0.0129 -0.3414
15530TIP3    H168081   4.562   1.935   2.658  2.1053  0.2251  0.7845
15530TIP3    H268082   4.589   1.894   2.801 -0.9725  2.7788  2.1676
15531TIP3   OH268083   0.895   3.755   0.869  0.7419 -0.0038  0.0812
15531TIP3    H168084   0.805   3.729   0.851  0.8891 -0.8415  0.5027
15531TIP3    H268085   0.948   3.681   0.840  1.2608  0.2948  0.2484
15532TIP3   OH268086   1.417   3.525   2.561  0.3468  0.5135 -0.7046
15532TIP3    H168087   1.394   3.600   2.616 -1.2541  0.3241 -1.1146
15532TIP3    H268088   1.512   3.519   2.569  0.3643  1.8332  0.3068
15533TIP3   OH268089   1.449   6.794  11.633  0.0755  0.3101 -0.4994
15533TIP3    H168090   1.452   6.775  11.539 -0.4327  0.1356 -0.4820
15533TIP3    H268091   1.455   6.709  11.675  2.3473  0.5330 -0.3214
15534TIP3   OH268092   1.611   0.567  13.540 -0.0037 -0.0800  0.4563
15534TIP3    H168093   1.568   0.505  13.599 -2.1658  0.8856 -0.0128
15534TIP3    H268094   1.538   0.605  13.489  1.4987  1.2245 -0.7746
15535TIP3   OH268095   6.318   0.623   5.942 -0.0055  0.0372  0.3271
15535TIP3    H168096   6.264   0.640   5.866  1.8073  1.1933 -0.7351
15535TIP3    H268097   6.286   0.539   5.976 -0.8023 -0.5111 -1.7192
15536TIP3   OH268098   2.069   1.799  15.918  0.2731 -0.2121 -0.2000
15536TIP3    H168099   2.110   1.717  15.889  1.5656  1.0612 -2.0775
15536TIP3    H268100   2.008   1.822  15.848 -0.0481  0.4616  0.2911
15537TIP3   OH268101   4.256   2.916  15.349  0.5826 -0.7227  0.3340
15537TIP3    H168102   4.338   2.874  15.375  1.2287  0.3062 -0.0085
15537TIP3    H268103   4.247   2.896  15.256  1.8519  1.3918 -0.2998
15538TIP3   OH268104   2.588   3.703   2.275  0.3646 -0.0883 -0.7540
15538TIP3    H168105   2.629   3.788   2.256 -0.4160  0.4703  0.0277
15538TIP3    H268106   2.517   3.697   2.211 -0.2441  0.3376 -0.1311
15539TIP3   OH268107   3.598   3.622   3.682  0.1093 -0.2441 -0.3047
15539TIP3    H168108   3.611   3.541   3.732  2.4758  0.3558  0.0805
15539TIP3    H268109   3.646   3.608   3.600 -1.2762 -0.0456 -1.1732
15540TIP3   OH268110   0.314   1.381   0.413  0.3548 -0.2109  0.4712
15540TIP3    H168111   0.249   1.450   0.427  0.1656 -0.7732  2.4558
15540TIP3    H268112   0.267   1.315   0.362 -0.0758  0.2273  0.2911
15541TIP3   OH268113   3.643   3.123  16.600 -0.0147  0.1503  0.0856
15541TIP3    H168114   3.731   3.152  16.623 -0.3384  2.5503 -1.5087
15541TIP3    H268115   3.586   3.164  16.665 -0.1258  0.1359 -0.0012
15542TIP3   OH268116   0.564   1.375  11.630 -0.4756  0.2920 -1.0226
15542TIP3    H168117   0.617   1.433  11.575 -0.3097  0.9825 -0.1388
15542TIP3    H268118   0.475   1.383  11.594 -0.3223  0.5547 -1.3476
15543TIP3   OH268119   1.578   0.199   3.106 -0.5012 -0.3303  0.0141
15543TIP3    H168120   1.543   0.119   3.066 -0.4846  0.5767 -1.8603
15543TIP3    H268121   1.547   0.270   3.050 -1.1666  1.0675  2.1074
15544TIP3   OH268122   4.931   5.797  14.724  0.4281 -0.4621  0.2215
15544TIP3    H168123   4.962   5.706  14.714 -0.3983 -0.5096 -2.2293
15544TIP3    H268124   4.837   5.792  14.707  0.7828  1.2051 -2.4733
15545TIP3   OH268125   3.359   0.001   0.694 -0.0225  0.3560  0.3484
15545TIP3    H168126   3.370  -0.077   0.748 -1.3854 -0.1459 -0.0840
15545TIP3    H268127   3.385   0.074   0.751  0.5343 -0.3408  0.9897
15546TIP3   OH268128   1.115   6.560   1.874 -0.2043  0.5869 -0.5841
15546TIP3    H168129   1.165   6.607   1.807 -1.6776 -0.4972 -2.4664
15546TIP3    H268130   1.076   6.486   1.828  1.2433 -1.9627  2.1049
15547TIP3   OH268131   2.905   0.361  12.983 -0.5692  0.1041  0.2497
15547TIP3    H168132   2.856   0.310  13.047  1.3759  1.7682  3.2141
15547TIP3    H268133   2.856   0.444  12.977 -1.2815 -0.4082 -1.1919
15548TIP3   OH268134   2.554   3.348  11.965  0.2000 -0.3331 -0.0135
15548TIP3    H168135   2.471   3.319  11.928 -0.2403  0.0370  0.6897
15548TIP3    H268136   2.536   3.434  12.002  0.9882 -0.0850 -0.1949
15549TIP3   OH268137   4.545   0.260   1.384  0.4730  0.4121 -0.1862
15549TIP3    H168138   4.580   0.188   1.332  2.6925  0.4318  1.1808
15549TIP3    H268139   4.451   0.244   1.387  0.5468 -0.6335 -2.5745
15550TIP3   OH268140   2.466   4.109  13.720  0.6197  0.0990  0.2193
15550TIP3    H168141   2.525   4.168  13.768 -0.0997  1.7936 -0.9471
15550TIP3    H268142   2.382   4.120  13.764  0.6392 -0.5805  0.4268
15551TIP3   OH268143   6.049   1.356   0.685  0.1632 -0.1907  0.4442
15551TIP3    H168144   5.977   1.408   0.650  1.1186 -0.5568 -2.1399
15551TIP3    H268145   6.125   1.414   0.682  0.6179 -0.7871  0.2737
15552TIP3   OH268146   5.823   4.469  17.189  0.0107  0.2986 -0.4098
15552TIP3    H168147   5.739   4.430  17.215  0.0369 -0.0267 -0.8033
15552TIP3    H268148   5.884   4.439  17.256 -0.2914  0.9730  0.1739
15553TIP3   OH268149   5.913   5.372   1.229  0.2358 -0.4593  0.1186
15553TIP3    H168150   5.879   5.447   1.181  0.3032 -1.6542 -1.8364
15553TIP3    H268151   5.860   5.298   1.200  1.3359 -1.4931  0.6835
15554TIP3   OH268152   3.168   5.002  12.293  0.2323  0.1236  0.3858
15554TIP3    H168153   3.202   5.008  12.382  0.2475 -0.4481  0.4231
15554TIP3    H268154   3.224   4.936  12.251  0.6200  0.8410 -0.2287
15555TIP3   OH268155   3.330   2.581   0.751  0.4425 -0.3826 -0.1443
15555TIP3    H168156   3.340   2.516   0.820 -0.1296 -0.7071 -0.3687
15555TIP3    H268157   3.242   2.615   0.762  0.7543  0.3875 -0.0026
15556TIP3   OH268158   6.478   4.435   1.483 -0.0487 -0.3752  0.0412
15556TIP3    H168159   6.517   4.395   1.405 -0.4248  0.4346 -0.5754
15556TIP3    H268160   6.552   4.453   1.541  0.7180  2.3538 -1.6653
15557TIP3   OH268161   4.841   4.764   3.324 -0.0189  0.0393  0.1805
15557TIP3    H168162   4.932   4.781   3.348  0.2723  0.1531 -1.0073
15557TIP3    H268163   4.807   4.712   3.397  1.2192 -0.6784  0.2708
15558TIP3   OH268164   5.021   0.372   4.105 -0.6632 -0.0912  0.3526
15558TIP3    H168165   5.030   0.279   4.127  0.3818 -0.1644 -0.3440
15558TIP3    H268166   5.081   0.417   4.165  0.1085 -0.0323 -0.4518
15559TIP3   OH268167   4.956   2.805  12.500 -0.2259  0.2241 -0.0897
15559TIP3    H168168   4.881   2.806  12.441 -0.1123 -2.2031 -0.3382
15559TIP3    H268169   4.954   2.717  12.538  1.4251  0.7726  1.2889
15560TIP3   OH268170   3.642   5.417   0.382 -0.1723 -0.1134  0.0530
15560TIP3    H168171   3.578   5.486   0.367 -0.1771 -0.1342 -0.0219
15560TIP3    H268172   3.668   5.428   0.473 -0.0299  0.1102 -0.0124
15561TIP3   OH268173   1.024   2.760   2.605 -0.0186  0.1909  0.0588
15561TIP3    H168174   0.937   2.721   2.609  0.1931 -0.1055  2.1877
15561TIP3    H268175   1.067   2.716   2.531 -1.4153 -0.1518 -0.5621
15562TIP3   OH268176   1.575   5.471  12.137  0.0264 -0.4119 -0.2131
15562TIP3    H168177   1.641   5.538  12.121 -1.0949  1.2864  1.8192
15562TIP3    H268178   1.537   5.453  12.051  2.6348 -0.9052 -1.2831
15563TIP3   OH268179   4.474   3.698   4.854 -0.1758 -0.1463  0.7188
15563TIP3    H168180   4.494   3.699   4.760  0.9560 -0.0166  0.9543
15563TIP3    H268181   4.407   3.630   4.863 -0.0604 -0.3805 -0.1429
15564TIP3   OH268182   3.739   6.453  12.806 -0.4516  0.5341 -1.3077
15564TIP3    H168183   3.820   6.405  12.789 -0.9605 -1.0727  0.6431
15564TIP3    H268184   3.671   6.386  12.811 -1.3573  1.5343  0.4179
15565TIP3   OH268185   4.752   4.094   3.363  0.5087  0.4826 -0.6739
15565TIP3    H168186   4.667   4.126   3.334  0.3406 -0.1813 -0.8992
15565TIP3    H268187   4.796   4.064   3.283 -0.0356 -1.5345 -0.2388
15566TIP3   OH268188   4.736   3.862   3.972 -0.0732 -0.2169 -0.7370
15566TIP3    H168189   4.802   3.928   3.951 -0.2530  0.5798  1.1242
15566TIP3    H268190   4.659   3.887   3.922 -0.5611  1.7569  0.9679
15567TIP3   OH268191   4.655   1.361   5.906 -0.4723 -0.0158  0.1056
15567TIP3    H168192   4.628   1.353   5.815 -3.0748 -0.9102  0.9196
15567TIP3    H268193   4.579   1.332   5.957  0.9775  0.3201  2.5618
15568TIP3   OH268194   4.906   0.541  13.107 -0.3123 -0.0737  0.4054
15568TIP3    H168195   4.908   0.596  13.185  1.2050 -0.0909  0.3796
15568TIP3    H268196   4.995   0.544  13.072 -1.0066  0.0567 -1.4195
15569TIP3   OH268197   3.469   2.668   1.932 -0.0913  0.0784 -0.1112
15569TIP3    H168198   3.409   2.712   1.992 -0.8279  1.8175 -2.0991
15569TIP3    H268199   3.556   2.683   1.970 -0.8114 -2.2859  2.6778
15570TIP3   OH268200   2.304   4.016  14.990 -0.7981 -0.2249  0.6184
15570TIP3    H168201   2.347   3.941  15.030 -2.5472 -1.7562 -0.2960
15570TIP3    H268202   2.333   4.014  14.899 -0.8406  0.2259  0.5950
15571TIP3   OH268203   4.244   0.211  15.750  0.0019 -0.2940 -0.4189
15571TIP3    H168204   4.306   0.177  15.813  0.6022  1.3028 -0.1229
15571TIP3    H268205   4.166   0.231  15.802  0.1587  0.1347 -0.3526
15572TIP3   OH268206   5.859   2.303   2.818  0.0833  0.3440 -0.0350
15572TIP3    H168207   5.878   2.348   2.900  0.7106  0.7735 -0.4071
15572TIP3    H268208   5.923   2.232   2.814 -0.4713 -0.1712  0.2324
15573TIP3   OH268209   1.780   4.803   1.712  0.6515 -0.3376  0.0345
15573TIP3    H168210   1.725   4.877   1.687 -3.4471 -2.9325  0.8147
15573TIP3    H268211   1.830   4.834   1.787 -0.6008  1.7983  0.0209
15574TIP3   OH268212   4.922   0.145  15.024  0.1922  0.0712 -0.3446
15574TIP3    H168213   4.966   0.210  14.970  0.6384  0.0953  0.0477
15574TIP3    H268214   4.978   0.136  15.101 -1.5112  1.6090  1.1167
15575TIP3   OH268215   6.707   2.930   4.052 -0.6297 -0.1214 -0.3751
15575TIP3    H168216   6.654   3.010   4.044  0.7822  0.9791  0.9685
15575TIP3    H268217   6.790   2.954   4.012  0.3100 -0.4229  1.3713
15576TIP3   OH268218   0.660   1.076  16.753  0.1716  0.2299 -0.2481
15576TIP3    H168219   0.723   1.146  16.774 -0.9297  0.7515  1.4361
15576TIP3    H268220   0.586   1.092  16.811 -1.1016 -0.9853 -1.4867
15577TIP3   OH268221   3.004   4.099  15.174  0.0968  0.2280 -0.0611
15577TIP3    H168222   3.066   4.170  15.190  0.8237 -0.5072  0.4588
15577TIP3    H268223   2.918   4.138  15.188  0.4918  1.0116  0.1917
15578TIP3   OH268224   4.097   0.035  13.382 -0.0787 -0.1133 -0.3870
15578TIP3    H168225   4.189   0.009  13.380 -0.0088  0.0340  0.6416
15578TIP3    H268226   4.092   0.103  13.448 -0.8922  0.0399 -0.5957
15579TIP3   OH268227   2.076   5.962  17.006  0.0886  0.7115 -0.0821
15579TIP3    H168228   2.105   5.877  17.039 -0.5412  1.0604  1.4118
15579TIP3    H268229   2.157   6.007  16.982  0.5286  0.2287  0.4662
15580TIP3   OH268230   3.855   1.169  12.173  0.3346  0.0907  0.5675
15580TIP3    H168231   3.818   1.201  12.091  0.2641  0.5286  0.7663
15580TIP3    H268232   3.928   1.228  12.191  1.8503 -1.4690 -0.4078
15581TIP3   OH268233   4.853   1.075   1.034 -0.0996 -0.0145  0.2195
15581TIP3    H168234   4.879   1.023   0.958  0.7032 -1.9002  1.7425
15581TIP3    H268235   4.780   1.129   1.002 -0.3174 -1.3667 -1.6593
15582TIP3   OH268236   4.073   3.849   3.615 -0.0783  0.1727 -0.1682
15582TIP3    H168237   4.037   3.936   3.599  1.0254  0.4473 -1.2603
15582TIP3    H268238   4.097   3.850   3.708 -2.1597  0.2348  0.3769
15583TIP3   OH268239   5.259   5.106   2.739 -0.6349 -0.0843  0.5341
15583TIP3    H168240   5.296   5.169   2.802 -1.6059 -0.6556  1.7014
15583TIP3    H268241   5.325   5.036   2.734  1.0542  1.6105 -1.7605
15584TIP3   OH268242   4.807   2.423  11.902 -0.5080  0.0884 -0.1750
15584TIP3    H168243   4.878   2.458  11.955 -0.1853 -0.7955 -0.0120
15584TIP3    H268244   4.833   2.442  11.812 -0.3361  0.2616 -0.0897
15585TIP3   OH268245   0.209   0.623   4.119 -0.4516  0.5500 -0.0422
15585TIP3    H168246   0.273   0.633   4.048  2.6259 -0.8731  2.4124
15585TIP3    H268247   0.152   0.551   4.091  0.6982  0.0363 -1.0790
15586TIP3   OH268248   1.360   5.494  14.206  0.2129  0.0991  0.5709
15586TIP3    H168249   1.345   5.400  14.195 -0.7629  0.1782  1.1023
15586TIP3    H268250   1.381   5.504  14.299  0.4598  0.3828  0.4848
15587TIP3   OH268251   5.917   6.749   3.099  0.0628  0.3929  0.1615
15587TIP3    H168252   5.997   6.733   3.048  0.7165  0.1244  1.2504
15587TIP3    H268253   5.948   6.763   3.189 -1.2597 -2.1106  1.0792
15588TIP3   OH268254   1.956   3.312  14.993  0.0259  0.2758  1.3166
15588TIP3    H168255   1.891   3.382  14.983  0.3949  0.6269  1.3349
15588TIP3    H268256   1.906   3.235  15.018 -0.7240 -0.1676 -1.3618
15589TIP3   OH268257   3.142   1.239  14.402 -0.1372  0.7113  0.5264
15589TIP3    H168258   3.160   1.308  14.465 -2.3549  1.4496  0.4197
15589TIP3    H268259   3.053   1.258  14.371 -0.3464 -1.5292 -0.3618
15590TIP3   OH268260   5.329   1.337  15.715  0.1890 -0.2133  0.9120
15590TIP3    H168261   5.411   1.384  15.696 -0.0672 -0.2517 -0.3286
15590TIP3    H268262   5.302   1.370  15.801 -0.6138  2.8222 -0.4427
15591TIP3   OH268263   4.805   6.587   0.212 -0.1358 -0.6563 -0.0653
15591TIP3    H168264   4.849   6.549   0.288  0.5183 -1.2773 -0.7534
15591TIP3    H268265   4.728   6.632   0.249 -0.0764 -1.3448  0.9126
15592TIP3   OH268266   2.006   5.055  14.007 -0.0019  0.0240  0.0618
15592TIP3    H168267   1.981   5.011  14.088 -4.4797  1.1487 -0.6070
15592TIP3    H268268   2.034   4.984  13.948  0.6899 -1.0403  1.6492
15593TIP3   OH268269   4.617   2.024   5.776 -0.0658 -0.2003 -0.0644
15593TIP3    H168270   4.657   1.968   5.842  1.7386  1.0066 -0.0785
15593TIP3    H268271   4.584   2.099   5.824  2.6160  1.4194 -0.6370
15594TIP3   OH268272   6.479   3.165   3.100  0.3168  0.5584 -0.1000
15594TIP3    H168273   6.390   3.160   3.066  0.2914  0.6287 -0.0433
15594TIP3    H268274   6.528   3.212   3.032  0.5930 -0.6080 -0.7184
15595TIP3   OH268275   6.725   5.235   4.529  0.2593  0.0505 -0.5665
15595TIP3    H168276   6.735   5.217   4.435 -0.1455  1.8845 -0.9834
15595TIP3    H268277   6.813   5.263   4.557  0.5516 -1.1662 -0.2244
15596TIP3   OH268278   5.045   1.644   1.938 -0.5285  0.1545 -0.8852
15596TIP3    H168279   5.069   1.560   1.978  2.1954  1.3831  0.2249
15596TIP3    H268280   5.030   1.623   1.846 -1.1923 -1.7680 -0.3555
15597TIP3   OH268281   4.723   5.411  13.094  0.0415 -0.3167 -0.1153
15597TIP3    H168282   4.636   5.449  13.083  0.1004  0.0708  0.7218
15597TIP3    H268283   4.707   5.324  13.133 -0.0293 -0.6990 -0.9869
15598TIP3   OH268284   5.219   1.605  14.355  0.7358  0.0866  0.3409
15598TIP3    H168285   5.265   1.547  14.294  0.2673 -0.0977  0.1666
15598TIP3    H268286   5.230   1.564  14.440  0.1598 -0.4101  0.1794
15599TIP3   OH268287   2.317   2.948   1.453  0.3465 -0.2362 -0.3107
15599TIP3    H168288   2.380   3.020   1.461 -0.3305  0.3443 -0.1751
15599TIP3    H268289   2.294   2.946   1.361  1.3695 -1.1426 -0.5538
15600TIP3   OH268290   0.183   0.011  16.952 -0.0322 -0.4065  0.0845
15600TIP3    H168291   0.178  -0.069  16.900 -0.7601 -0.1318 -0.2680
15600TIP3    H268292   0.095   0.024  16.985 -0.1911  0.8819 -0.7990
15601TIP3   OH268293   0.446   2.569   1.307  0.1413  0.5944 -0.3833
15601TIP3    H168294   0.451   2.627   1.231 -1.0627  1.8190  0.4459
15601TIP3    H268295   0.530   2.525   1.310  1.3179  2.7669 -0.6655
15602TIP3   OH268296   3.639   6.457   0.828  0.2240  0.1004  0.1484
15602TIP3    H168297   3.570   6.483   0.767 -0.7167 -1.3151  0.5848
15602TIP3    H268298   3.654   6.535   0.882 -1.7423  0.1225  0.6997
15603TIP3   OH268299   0.203   2.738   1.393  0.5411 -0.5512  0.0392
15603TIP3    H168300   0.275   2.800   1.383  0.5446 -0.3734  1.1059
15603TIP3    H268301   0.135   2.772   1.335  1.6258 -1.2085 -1.6355
15604TIP3   OH268302   3.537   5.432  16.270  0.4438 -0.1023  0.2675
15604TIP3    H168303   3.610   5.491  16.253  1.3532 -0.7883  1.6631
15604TIP3    H268304   3.528   5.380  16.191  0.2915  1.2034 -0.5845
15605TIP3   OH268305   1.050   1.869  15.318  0.4757 -0.3689  0.0373
15605TIP3    H168306   1.045   1.779  15.286  0.2234 -0.4629  0.3413
15605TIP3    H268307   1.024   1.863  15.410  1.4681 -0.1493  0.3470
15606TIP3   OH268308   6.260   2.382   4.583  0.0511 -0.0451  0.2121
15606TIP3    H168309   6.191   2.401   4.520  0.1881  1.2050  0.4208
15606TIP3    H268310   6.251   2.288   4.601 -0.4628 -0.2521 -1.0807
15607TIP3   OH268311   1.083   5.286  16.447  0.1556  0.4316 -0.4663
15607TIP3    H168312   1.163   5.321  16.486  0.1891  0.4987 -0.5957
15607TIP3    H268313   1.104   5.275  16.354 -0.1815  1.0273 -0.6204
15608TIP3   OH268314   5.783   3.500   3.009  0.1249 -0.5857  0.5713
15608TIP3    H168315   5.719   3.477   2.942 -1.1898  0.4858  1.4480
15608TIP3    H268316   5.868   3.492   2.965 -0.6859 -0.5435 -1.0210
15609TIP3   OH268317   1.209   3.952   2.815 -0.0043  0.1213  0.2299
15609TIP3    H168318   1.131   3.999   2.844  0.0358  0.0170  0.5153
15609TIP3    H268319   1.185   3.860   2.822 -0.2884  0.1085 -0.9080
15610TIP3   OH268320   0.440   5.416  13.696  0.1043 -0.1174  0.1537
15610TIP3    H168321   0.394   5.471  13.632  0.4880  1.3840  1.1560
15610TIP3    H268322   0.501   5.365  13.643  0.9285  1.6283 -0.6300
15611TIP3   OH268323   3.752   5.690   4.969  0.0848 -0.3291  0.2246
15611TIP3    H168324   3.835   5.669   5.011 -1.0399 -0.1040  2.6279
15611TIP3    H268325   3.685   5.656   5.028 -1.5548  0.2713 -1.2348
15612TIP3   OH268326   3.532   3.089  16.998 -0.1868 -0.8580  0.5792
15612TIP3    H168327   3.622   3.117  16.979 -0.0548 -1.7081 -0.0581
15612TIP3    H268328   3.479   3.134  16.932 -0.3447  0.3241  1.4833
15613TIP3   OH268329   1.670   4.636  14.872  0.0904 -0.0099  0.2204
15613TIP3    H168330   1.731   4.569  14.904  0.1971 -0.6905 -1.3771
15613TIP3    H268331   1.726   4.700  14.827 -0.4374 -1.0786 -1.9970
15614TIP3   OH268332   1.202   0.083   5.801 -0.2150  0.6378 -0.5958
15614TIP3    H168333   1.153   0.143   5.857  1.6453  0.4570  1.2817
15614TIP3    H268334   1.175  -0.004   5.830  2.1727  0.5110  1.4079
15615TIP3   OH268335   5.658   1.263  15.465 -0.8257 -0.1462 -0.1743
15615TIP3    H168336   5.666   1.306  15.380 -1.1052  0.4858  0.1212
15615TIP3    H268337   5.734   1.205  15.469 -1.0185 -0.4773 -1.0201
15616TIP3   OH268338   4.533   6.332   2.165 -0.2011  0.2830  0.2389
15616TIP3    H168339   4.593   6.402   2.190 -0.1560  0.4139 -0.2264
15616TIP3    H268340   4.575   6.252   2.197 -0.8947  0.5803  1.9394
15617TIP3   OH268341   1.340   2.092  12.068  0.0223  0.4866  0.0903
15617TIP3    H168342   1.257   2.089  12.117  0.5549  0.6577  1.0142
15617TIP3    H268343   1.357   2.185  12.056 -0.4652  0.4287 -1.0367
15618TIP3   OH268344   2.988   5.827  17.144 -0.2453 -0.3573  0.5151
15618TIP3    H168345   2.996   5.891  17.214 -0.7934 -1.2909  1.4381
15618TIP3    H268346   3.025   5.747  17.180  1.1189 -0.3955 -0.8889
15619TIP3   OH268347   0.719   1.825   5.992 -0.0744  0.2477  0.4504
15619TIP3    H168348   0.803   1.871   6.001 -0.4084  1.1782 -1.1215
15619TIP3    H268349   0.662   1.866   6.058 -0.0785  1.4212 -0.2734
15620TIP3   OH268350   3.825   5.738   2.257  0.7960  0.3003  0.5575
15620TIP3    H168351   3.898   5.709   2.202  1.0471 -0.5973  1.3627
15620TIP3    H268352   3.794   5.818   2.215  3.4447  1.7364  1.2452
15621TIP3   OH268353   0.886   3.512  14.392  0.2152  0.0254 -0.6013
15621TIP3    H168354   0.941   3.564  14.334 -1.9251  0.2703 -2.4852
15621TIP3    H268355   0.829   3.463  14.333 -0.6279 -1.2960  1.2635
15622TIP3   OH268356   5.893   4.718  17.177 -0.1232  0.4612 -0.1215
15622TIP3    H168357   5.873   4.625  17.182 -0.1074  0.4950  0.5665
15622TIP3    H268358   5.911   4.733  17.084  0.0288 -0.2494 -0.2137
15623TIP3   OH268359   6.349   3.990  11.293  0.3146 -0.4330  0.6618
15623TIP3    H168360   6.302   4.008  11.374 -0.9016 -0.8666  0.0641
15623TIP3    H268361   6.325   3.900  11.271  1.1378 -0.5373  0.1529
15624TIP3   OH268362   3.633   6.251   5.724 -0.1969 -0.8091  0.3048
15624TIP3    H168363   3.686   6.176   5.698 -2.0633 -1.8328 -0.6464
15624TIP3    H268364   3.578   6.219   5.795 -1.0820 -0.3933 -0.1754
15625TIP3   OH268365   5.902   1.461  13.466  0.0464 -0.8027  0.4752
15625TIP3    H168366   5.882   1.531  13.404  0.0208 -1.3102 -0.0914
15625TIP3    H268367   5.990   1.432  13.443 -0.6609 -2.2190 -0.4947
15626TIP3   OH268368   0.736   1.431   3.992  0.7807 -0.0172 -0.3730
15626TIP3    H168369   0.759   1.462   3.904  1.9635 -0.7515 -0.3187
15626TIP3    H268370   0.641   1.417   3.987  0.8793 -0.3379 -1.6193
15627TIP3   OH268371   3.572   0.976  16.694 -0.2532 -0.0921 -0.3223
15627TIP3    H168372   3.491   1.023  16.676 -0.9194 -0.1295  2.3610
15627TIP3    H268373   3.579   0.974  16.790  1.5492 -2.4017 -0.4302
15628TIP3   OH268374   6.347   3.690   5.346  0.3390 -1.0316 -0.2636
15628TIP3    H168375   6.412   3.621   5.329 -1.4868 -2.3902 -1.9636
15628TIP3    H268376   6.287   3.685   5.271 -1.3249  0.6658  0.9277
15629TIP3   OH268377   6.815   4.173   2.316  0.2850 -0.4713 -0.4027
15629TIP3    H168378   6.870   4.185   2.394 -0.0225  0.9730 -0.3985
15629TIP3    H268379   6.801   4.261   2.283 -0.9120 -0.9500 -1.1872
15630TIP3   OH268380   3.899   5.443  14.394 -0.0267 -0.5468 -0.3807
15630TIP3    H168381   3.940   5.518  14.438 -1.1663  1.0797 -1.9951
15630TIP3    H268382   3.807   5.449  14.418 -0.1898 -1.2295 -0.8090
15631TIP3   OH268383   4.635   0.730   4.035 -0.0471 -0.2322 -0.2012
15631TIP3    H168384   4.605   0.677   3.961  0.3326  1.5637 -1.7009
15631TIP3    H268385   4.607   0.682   4.112 -0.5926 -2.0892 -1.5165
15632TIP3   OH268386   0.808   2.139   4.542  0.2087  0.0136 -0.5668
15632TIP3    H168387   0.815   2.173   4.453 -0.1126 -0.4392 -0.7682
15632TIP3    H268388   0.898   2.135   4.574  0.3806 -0.5003 -1.1271
15633TIP3   OH268389   4.631   6.186  16.456  0.0134 -0.5467  0.0893
15633TIP3    H168390   4.668   6.128  16.523 -0.3749 -1.7432 -0.6980
15633TIP3    H268391   4.537   6.187  16.475 -0.1057 -0.9350 -0.4488
15634TIP3   OH268392   2.512   5.755   4.711 -0.1817 -0.0470  0.3903
15634TIP3    H168393   2.463   5.678   4.683 -0.5503  0.5070 -0.4939
15634TIP3    H268394   2.516   5.812   4.634  3.1151 -0.6984 -0.0081
15635TIP3   OH268395   4.970   1.269  15.963  0.2965  0.1347  0.3505
15635TIP3    H168396   4.897   1.331  15.957  0.5535  0.3575 -0.4243
15635TIP3    H268397   4.927   1.185  15.982 -0.2737  0.0297 -1.3040
15636TIP3   OH268398   6.693   4.896  12.798 -0.4005  0.0007 -0.2895
15636TIP3    H168399   6.653   4.809  12.803  2.0427 -1.0851  0.9600
15636TIP3    H268400   6.785   4.880  12.778  0.3678  2.2227  1.2439
15637TIP3   OH268401   2.360   1.260   0.360 -0.2331 -0.0554 -0.7311
15637TIP3    H168402   2.269   1.240   0.381  0.2313 -0.9684  0.4581
15637TIP3    H268403   2.357   1.291   0.270 -1.7931  0.4377 -0.5338
15638TIP3   OH268404   1.174   1.147  12.880 -0.2895  0.2265 -0.1988
15638TIP3    H168405   1.171   1.055  12.905 -4.5641  0.1157 -0.8466
15638TIP3    H268406   1.199   1.193  12.960  1.7916 -1.4170  0.1504
15639TIP3   OH268407   5.599   2.874  17.211  0.1679  0.0445  0.3220
15639TIP3    H168408   5.624   2.934  17.281 -0.8192  0.4013  0.3734
15639TIP3    H268409   5.548   2.806  17.254 -1.0805  0.6627 -0.1498
15640TIP3   OH268410   5.378   4.783  13.634  0.0427 -0.0256  0.5896
15640TIP3    H168411   5.387   4.856  13.573  0.7301 -0.3400  0.3010
15640TIP3    H268412   5.368   4.706  13.578 -1.7180 -0.0368  0.8999
15641TIP3   OH268413   4.670   1.402  14.561  0.6316 -0.1866 -0.0735
15641TIP3    H168414   4.575   1.399  14.572  0.6272 -0.2543 -0.1356
15641TIP3    H268415   4.682   1.426  14.469  0.6808 -1.4366 -0.4015
15642TIP3   OH268416   2.857   1.875   0.664 -0.0921  0.3072 -0.1558
15642TIP3    H168417   2.877   1.842   0.576 -0.2393 -1.2910  0.3963
15642TIP3    H268418   2.761   1.873   0.669 -0.0272 -1.8759  0.8613
15643TIP3   OH268419   1.095   4.768  13.569  0.2666 -0.3384  0.1199
15643TIP3    H168420   1.148   4.717  13.507 -0.3333 -0.9617  0.1171
15643TIP3    H268421   1.085   4.711  13.645 -0.7302 -0.3694 -0.0347
15644TIP3   OH268422   3.668   1.683   3.414 -0.4167 -0.2942  0.1368
15644TIP3    H168423   3.573   1.685   3.407 -0.4467  1.0855  0.7716
15644TIP3    H268424   3.685   1.662   3.506 -0.0799 -1.8368 -0.2492
15645TIP3   OH268425   0.587   3.115  15.268 -0.1112  0.9503  0.5362
15645TIP3    H168426   0.519   3.181  15.256  1.8893  2.6349 -2.2080
15645TIP3    H268427   0.574   3.083  15.357 -1.3877  4.7898  1.8464
15646TIP3   OH268428   1.251   2.251   2.983 -0.0581 -0.3938  0.3812
15646TIP3    H168429   1.278   2.319   3.044  0.2461  1.4562 -1.7344
15646TIP3    H268430   1.275   2.169   3.026  2.0822  0.9304  1.8157
15647TIP3   OH268431   6.084   3.978   3.537  0.2038 -0.4209  0.4406
15647TIP3    H168432   6.019   3.941   3.477 -2.2960  1.6425  1.7617
15647TIP3    H268433   6.137   4.036   3.481 -0.4328 -0.5053 -0.2610
15648TIP3   OH268434   6.371   4.609   6.632 -0.0858  0.1680  0.1358
15648TIP3    H168435   6.376   4.635   6.724  1.1668  0.5192 -0.0218
15648TIP3    H268436   6.392   4.689   6.583  1.6896 -0.5859 -0.3918
15649TIP3   OH268437   5.973   6.012   4.728  0.6753  0.5740 -0.1367
15649TIP3    H168438   5.889   6.057   4.729  0.5373  0.3276 -0.5322
15649TIP3    H268439   6.035   6.077   4.694  0.2590  0.0977 -1.8299
15650TIP3   OH268440   6.278   2.262   0.507  0.5539  0.3707 -0.5742
15650TIP3    H168441   6.230   2.279   0.426  1.7362  0.4944 -1.2577
15650TIP3    H268442   6.279   2.346   0.553  2.4923  1.0694 -1.8515
15651TIP3   OH268443   1.927   0.903   4.093 -0.1570  0.2444  0.0008
15651TIP3    H168444   1.970   0.849   4.026  0.9671  2.6524 -1.2700
15651TIP3    H268445   1.836   0.873   4.092  0.5689 -2.0725 -0.2005
15652TIP3   OH268446   0.247   4.606  14.312 -0.6351 -0.5122  0.0303
15652TIP3    H168447   0.211   4.525  14.349  1.2795 -0.3173  2.4359
15652TIP3    H268448   0.320   4.578  14.258 -0.8143 -0.4888 -0.2238
15653TIP3   OH268449   1.611   1.874  16.752 -0.1571 -0.2007  0.0290
15653TIP3    H168450   1.629   1.780  16.755 -0.3953 -0.2763 -0.8876
15653TIP3    H268451   1.664   1.907  16.680  0.1265  0.4186  0.5140
15654TIP3   OH268452   0.768   6.328   2.626  0.3874  0.3895  0.5104
15654TIP3    H168453   0.776   6.351   2.718  1.4665  0.5831  0.3745
15654TIP3    H268454   0.832   6.258   2.613 -0.6392 -0.5040  0.1956
15655TIP3   OH268455   1.903   1.213   3.424 -0.4860  0.7811 -0.0906
15655TIP3    H168456   1.897   1.215   3.329  0.4274  0.6572 -0.1549
15655TIP3    H268457   1.974   1.274   3.445 -0.5047  0.6055  0.4964
15656TIP3   OH268458   3.014   2.829   1.926 -0.0445  0.0074 -0.2774
15656TIP3    H168459   3.085   2.822   1.990  1.8265  1.8827 -2.0411
15656TIP3    H268460   2.994   2.739   1.903  0.5885 -0.6153  1.5077
15657TIP3   OH268461   1.909   5.290   1.329  0.1994 -0.4967  0.0335
15657TIP3    H168462   1.988   5.245   1.299  1.3207  1.5507 -0.2294
15657TIP3    H268463   1.843   5.270   1.263  1.5486  0.7528 -1.7655
15658TIP3   OH268464   3.194   6.134   3.457 -0.3267  0.1171 -0.3100
15658TIP3    H168465   3.184   6.057   3.513 -1.0039  0.0206 -0.5642
15658TIP3    H268466   3.226   6.202   3.517  0.8019 -0.5025 -0.1934
15659TIP3   OH268467   6.579   4.710  15.258 -0.0599 -0.0840  0.1675
15659TIP3    H168468   6.650   4.764  15.293 -0.7024  1.0499 -0.2678
15659TIP3    H268469   6.505   4.729  15.315 -0.2889 -0.5288  0.0191
15660TIP3   OH268470   3.708   0.804   4.000  0.2771  0.4844  0.0159
15660TIP3    H168471   3.766   0.873   3.970  0.0944  0.7257  0.2041
15660TIP3    H268472   3.700   0.744   3.927 -0.0930  1.0158 -0.3858
15661TIP3   OH268473   5.330   3.358   1.801  0.4138  0.4378  0.0211
15661TIP3    H168474   5.355   3.349   1.892  1.0969  1.1119 -0.0924
15661TIP3    H268475   5.381   3.434   1.769  0.1370  0.2517 -0.8895
15662TIP3   OH268476   0.656   5.748   4.707 -0.0003 -0.2767 -0.4166
15662TIP3    H168477   0.718   5.676   4.694 -1.9472 -2.1902  0.4782
15662TIP3    H268478   0.621   5.766   4.620  0.9547  0.0485 -0.7453
15663TIP3   OH268479   0.261   2.843   0.907 -0.6077 -0.3131  0.7836
15663TIP3    H168480   0.331   2.814   0.849 -0.1121  1.0165  0.6784
15663TIP3    H268481   0.192   2.874   0.848  0.3881  2.1910  0.8300
15664TIP3   OH268482   2.533   1.182   2.671 -0.4847 -0.0311  0.2705
15664TIP3    H168483   2.530   1.232   2.589  1.4608  2.3620  1.5805
15664TIP3    H268484   2.555   1.093   2.644 -1.4814  0.3574 -1.9310
15665TIP3   OH268485   4.780   2.975   3.751  0.1442 -0.3819 -0.5375
15665TIP3    H168486   4.821   2.963   3.665 -2.1624  0.6678 -1.8179
15665TIP3    H268487   4.768   2.886   3.784  1.6383 -0.7692 -0.9944
15666TIP3   OH268488   3.776   6.415  17.279  0.2992 -0.2664 -0.2356
15666TIP3    H168489   3.714   6.360  17.230 -0.5342 -0.9652  1.5635
15666TIP3    H268490   3.757   6.396  17.371  1.2262  1.7131  0.3756
15667TIP3   OH268491   1.821   1.374  13.264  0.1319 -0.7078  0.5185
15667TIP3    H168492   1.845   1.446  13.321 -1.2207  0.9010 -0.8813
15667TIP3    H268493   1.874   1.386  13.186  0.0612 -1.3569  0.3601
15668TIP3   OH268494   0.574   5.326   3.186 -0.0539 -0.0465 -0.5719
15668TIP3    H168495   0.552   5.237   3.216  1.4076 -0.0966  0.3907
15668TIP3    H268496   0.597   5.373   3.266 -1.6447  1.4648 -0.9639
15669TIP3   OH268497   1.598   2.630   2.896  0.3822 -0.0581 -0.2916
15669TIP3    H168498   1.587   2.723   2.876 -2.5236 -0.3934 -0.4669
15669TIP3    H268499   1.557   2.618   2.982  0.9109 -1.1534 -0.1759
15670TIP3   OH268500   0.953   4.593  15.350 -0.2916 -0.3803  0.1411
15670TIP3    H168501   1.039   4.551  15.352 -0.1030  0.0300  0.6795
15670TIP3    H268502   0.923   4.590  15.440 -0.6519 -0.1268  0.0291
15671TIP3   OH268503   1.273   5.388   5.691  0.1462 -0.5306  0.7141
15671TIP3    H168504   1.214   5.369   5.765  0.7480  0.1550  1.3746
15671TIP3    H268505   1.353   5.419   5.732 -0.0640  1.3646 -0.2763
15672TIP3   OH268506   5.039   1.970   1.853  0.1316  0.4900 -0.3498
15672TIP3    H168507   4.948   1.954   1.877 -0.3296  0.4672 -2.0681
15672TIP3    H268508   5.050   1.929   1.767  1.7281  0.6060 -0.2294
15673TIP3   OH268509   5.051   0.620   4.644 -0.3230  0.0914 -1.1972
15673TIP3    H168510   5.056   0.584   4.732  0.9203  3.1178  0.0455
15673TIP3    H268511   5.072   0.546   4.586 -0.1591 -1.6827  1.0780
15674TIP3   OH268512   1.562   5.360  16.946 -0.2330  0.0721  0.3905
15674TIP3    H168513   1.521   5.278  16.972 -1.0360  0.9268  1.8972
15674TIP3    H268514   1.652   5.336  16.922 -0.6501 -1.3288  0.1993
15675TIP3   OH268515   3.196   1.857  16.199  0.8663  0.4269  0.2453
15675TIP3    H168516   3.269   1.847  16.260  1.2068  0.8855 -0.0776
15675TIP3    H268517   3.159   1.942  16.222  0.4824  0.2282  0.3552
15676TIP3   OH268518   3.502   5.558  12.869  0.4537  0.5956  0.2554
15676TIP3    H168519   3.429   5.519  12.820  0.5837 -0.6926  1.0671
15676TIP3    H268520   3.550   5.609  12.804 -0.8288  0.9632 -0.4198
15677TIP3   OH268521   0.008   6.010  15.939 -0.1556  0.2405  0.0253
15677TIP3    H168522   0.081   5.979  15.992  0.3306 -1.7884 -1.7382
15677TIP3    H268523  -0.049   6.055  16.000  1.7548  0.4119  1.7359
15678TIP3   OH268524   5.280   2.167  12.118  0.4508 -0.4486 -0.6797
15678TIP3    H168525   5.341   2.219  12.065 -0.1359 -0.0376 -0.9611
15678TIP3    H268526   5.247   2.101  12.058  0.2651 -0.3793 -0.6526
15679TIP3   OH268527   3.594   1.161  16.128 -0.8103 -0.1648 -0.1627
15679TIP3    H168528   3.531   1.099  16.164  0.9901 -2.3819 -0.7163
15679TIP3    H268529   3.677   1.136  16.167 -0.1586  2.4827  0.2628
15680TIP3   OH268530   2.085   1.284  11.106 -0.1118  0.4518  0.0881
15680TIP3    H168531   2.000   1.243  11.090  0.5756 -0.3784 -1.4964
15680TIP3    H268532   2.148   1.229  11.058  0.9678  2.7394 -1.1710
15681TIP3   OH268533   1.782   5.772  14.588 -0.4400  0.4259  0.1020
15681TIP3    H168534   1.801   5.791  14.496 -0.5531 -0.7896 -0.1787
15681TIP3    H268535   1.834   5.837  14.637  0.7020  0.1958 -0.7862
15682TIP3   OH268536   2.144   2.715  12.472 -0.1861 -0.3285 -0.2047
15682TIP3    H168537   2.141   2.808  12.452 -0.4811 -0.2329  0.2895
15682TIP3    H268538   2.117   2.672  12.391  1.3649 -0.0403 -0.9018
15683TIP3   OH268539   3.255   6.551   4.629 -0.3404 -0.4228 -0.1195
15683TIP3    H168540   3.174   6.573   4.676  0.1591  0.2086  0.4490
15683TIP3    H268541   3.225   6.519   4.544 -1.1118  2.1865 -0.8602
15684TIP3   OH268542   2.312   2.330   4.949  0.3703 -1.1611  0.0959
15684TIP3    H168543   2.402   2.348   4.977  0.4250 -0.4908 -0.5162
15684TIP3    H268544   2.286   2.254   5.002  0.6769 -0.2669  1.5521
15685TIP3   OH268545   2.462   2.578  10.994  0.1213 -0.2568  0.2498
15685TIP3    H168546   2.533   2.521  10.966 -0.1906  0.3313 -1.8878
15685TIP3    H268547   2.497   2.667  10.984 -0.8559  0.0304 -0.7395
15686TIP3   OH268548   3.173   0.124  15.010 -0.1581 -0.1517  0.0159
15686TIP3    H168549   3.244   0.188  15.016  0.4005 -0.7253 -0.4140
15686TIP3    H268550   3.101   0.173  14.971  0.6614 -0.0842 -1.4598
15687TIP3   OH268551   6.516   2.453  14.799 -0.5186 -0.3409  1.3201
15687TIP3    H168552   6.443   2.418  14.850 -1.6410 -1.7532 -1.1573
15687TIP3    H268553   6.584   2.471  14.864 -2.1886 -1.2937  3.3895
15688TIP3   OH268554   0.268   0.197   4.141  0.0067  0.0765  0.2558
15688TIP3    H168555   0.198   0.250   4.179  0.2093  0.9515 -0.5695
15688TIP3    H268556   0.333   0.261   4.110 -0.8645 -0.5050 -2.9698
15689TIP3   OH268557   2.402   5.663   2.596  0.2968 -0.4943  0.0789
15689TIP3    H168558   2.322   5.638   2.550 -0.3560  0.3201  0.7532
15689TIP3    H268559   2.378   5.660   2.689  0.6286  1.1114  0.2361
15690TIP3   OH268560   1.162   2.998  13.098  0.3623 -0.1097  0.0267
15690TIP3    H168561   1.132   3.055  13.169  0.2822  0.6068 -0.5753
15690TIP3    H268562   1.188   2.917  13.142 -1.0983 -0.2237  0.7176
15691TIP3   OH268563   2.449   6.367  17.193 -0.5362 -0.3828  0.1266
15691TIP3    H168564   2.506   6.396  17.264 -0.4724 -0.8253  0.2569
15691TIP3    H268565   2.401   6.446  17.167  0.4230  0.0882 -0.2517
15692TIP3   OH268566   5.917   5.791   3.770 -0.2454  0.1750  0.1206
15692TIP3    H168567   5.847   5.785   3.705 -0.4815  0.5464  0.3421
15692TIP3    H268568   5.908   5.711   3.822  1.5721 -1.4254 -1.9368
15693TIP3   OH268569   1.641   5.379   4.429  0.3117 -0.1472  0.3282
15693TIP3    H168570   1.647   5.447   4.496 -1.3479  0.9631 -0.6249
15693TIP3    H268571   1.551   5.348   4.434  0.5172 -0.9047 -0.5775
15694TIP3   OH268572   3.634   3.418   1.513 -0.2878 -0.0725  0.4044
15694TIP3    H168573   3.705   3.430   1.450 -0.1374  0.3378  0.6531
15694TIP3    H268574   3.678   3.408   1.597 -0.5878  2.2852  0.8815
15695TIP3   OH268575   2.409   6.516   3.075  0.0471 -0.0700  0.2757
15695TIP3    H168576   2.485   6.484   3.027  0.4086  0.2151  0.6558
15695TIP3    H268577   2.370   6.438   3.115  0.3165 -0.1757  0.3318
15696TIP3   OH268578   2.469   0.295  14.618 -0.3263 -0.0708 -0.2436
15696TIP3    H168579   2.423   0.215  14.644 -0.5938  0.4402  0.8877
15696TIP3    H268580   2.433   0.363  14.675 -0.1670  0.8765 -1.2595
15697TIP3   OH268581   3.259   2.740   5.535  0.1668  0.3778 -0.3139
15697TIP3    H168582   3.229   2.829   5.516  2.2411  1.1467 -0.1071
15697TIP3    H268583   3.328   2.752   5.600  0.3961 -1.4033 -0.2240
15698TIP3   OH268584   3.071   4.027   0.941 -0.0396 -0.1216  0.0687
15698TIP3    H168585   3.021   4.016   1.023 -0.0852 -2.2592 -0.2135
15698TIP3    H268586   3.072   3.939   0.902  0.2473  0.8112 -2.0872
15699TIP3   OH268587   4.398   5.065   5.372 -0.3583  0.2639 -0.6372
15699TIP3    H168588   4.409   5.075   5.277 -1.6192  0.1293 -0.8030
15699TIP3    H268589   4.306   5.041   5.383 -0.3025  0.6133  0.6460
15700TIP3   OH268590   5.037   5.368   3.938 -0.3550 -0.0782 -0.6306
15700TIP3    H168591   4.970   5.395   4.000  0.2258  1.8312 -0.8161
15700TIP3    H268592   5.013   5.278   3.914 -2.7251  0.5320 -0.5873
15701TIP3   OH268593   4.304   2.019   3.185  0.1565  0.3384  0.3566
15701TIP3    H168594   4.243   2.046   3.117  0.1182  1.7037  0.9124
15701TIP3    H268595   4.249   2.003   3.262  0.1510 -1.5846 -0.0088
15702TIP3   OH268596   5.156   5.937   2.663 -0.4764  0.5057 -0.3332
15702TIP3    H168597   5.153   5.945   2.758 -0.2173  1.8031 -0.4273
15702TIP3    H268598   5.248   5.953   2.640 -0.4043 -0.4362 -0.7590
15703TIP3   OH268599   3.821   3.221   3.094 -0.0678  0.0604  0.2252
15703TIP3    H168600   3.726   3.223   3.112  0.0146  0.5219  0.6170
15703TIP3    H268601   3.836   3.297   3.038  0.1114  0.1222  0.3592
15704TIP3   OH268602   0.422   6.763  14.223 -0.1506 -0.5115  0.5315
15704TIP3    H168603   0.352   6.735  14.164  1.7807  0.0542 -2.0900
15704TIP3    H268604   0.376   6.790  14.303 -2.7530 -2.0192 -0.3981
15705TIP3   OH268605   4.929   1.502  11.345 -0.2138  0.0839  0.3532
15705TIP3    H168606   5.023   1.501  11.325 -0.0551 -2.3603  1.1651
15705TIP3    H268607   4.889   1.450  11.275 -0.8676  0.3278  0.5456
15706TIP3   OH268608   5.644   2.162   1.359  0.2203 -0.0577 -0.0393
15706TIP3    H168609   5.559   2.160   1.403  0.3618  0.0337  0.2358
15706TIP3    H268610   5.623   2.151   1.266 -0.1690  0.8977 -0.0743
15707TIP3   OH268611   1.981   4.059  12.092 -0.2836 -0.0009 -0.0041
15707TIP3    H168612   2.076   4.059  12.102  0.0592 -2.2997 -2.6914
15707TIP3    H268613   1.953   3.973  12.124 -1.3886  0.3819  0.1041
15708TIP3   OH268614   1.666   1.820   0.345  0.3633 -0.0029 -0.7202
15708TIP3    H168615   1.598   1.810   0.411  0.2013 -0.0065 -0.8875
15708TIP3    H268616   1.628   1.878   0.279  0.5238  0.0027 -0.8097
15709TIP3   OH268617   3.179   0.001   0.464 -0.3500  0.3526  0.2791
15709TIP3    H168618   3.246   0.025   0.400 -1.3993 -1.1688 -1.4635
15709TIP3    H268619   3.224   0.003   0.549  1.5351  0.6862 -0.6969
15710TIP3   OH268620   5.354   1.914   3.920  0.2189  0.0139  0.1836
15710TIP3    H168621   5.261   1.897   3.910  0.5749 -0.5870 -2.8729
15710TIP3    H268622   5.360   1.980   3.989 -2.5008  0.5646 -0.0547
15711TIP3   OH268623   6.769   2.406   6.719  0.4013 -0.5999 -0.0668
15711TIP3    H168624   6.796   2.426   6.629  0.1836  0.5074  0.1050
15711TIP3    H268625   6.780   2.312   6.727 -0.3511 -0.8286 -1.5280
15712TIP3   OH268626   1.638   2.228  16.289  0.3870  0.3460 -0.9021
15712TIP3    H168627   1.720   2.180  16.275  0.3567  0.0929 -0.2433
15712TIP3    H268628   1.647   2.264  16.377  0.0503  0.8421 -1.0725
15713TIP3   OH268629   0.285   6.311  11.275  0.4786  0.6805  0.7133
15713TIP3    H168630   0.323   6.321  11.188  0.2771 -0.4084  0.4886
15713TIP3    H268631   0.201   6.268  11.259 -0.4320  2.2081  1.2867
15714TIP3   OH268632   4.709   0.607  11.360 -0.1865  0.6124  0.0991
15714TIP3    H168633   4.623   0.642  11.335 -0.5764 -1.5390 -1.6525
15714TIP3    H268634   4.766   0.629  11.287 -0.2624 -1.6755 -0.6879
15715TIP3   OH268635   0.196   6.621   2.897 -0.2592 -0.3869  0.0049
15715TIP3    H168636   0.112   6.648   2.861 -0.7458 -0.6206  0.9529
15715TIP3    H268637   0.252   6.608   2.820 -0.1240  2.8428 -0.5093
15716TIP3   OH268638   6.249   1.244   1.726  0.1243  0.4709 -0.0248
15716TIP3    H168639   6.331   1.212   1.688 -0.0747  0.6274 -0.5961
15716TIP3    H268640   6.263   1.338   1.736 -0.3350  0.6540 -1.0334
15717TIP3   OH268641   5.854   0.045   2.808  0.3464 -0.1593  0.3765
15717TIP3    H168642   5.853   0.019   2.900  0.9321  1.0827  0.7388
15717TIP3    H268643   5.895  -0.030   2.763 -0.0146 -0.8002  1.1034
15718TIP3   OH268644   1.610   1.368  15.120  0.2055 -0.6153  0.2305
15718TIP3    H168645   1.705   1.373  15.127  0.2252 -1.0855  0.3035
15718TIP3    H268646   1.593   1.278  15.093 -0.3936 -1.4991  3.3069
15719TIP3   OH268647   6.271   6.301  15.990  0.1636  0.7284  0.4026
15719TIP3    H168648   6.329   6.300  16.066  0.8820  0.2066 -0.1490
15719TIP3    H268649   6.288   6.386  15.948  1.2741  0.1644 -0.3193
15720TIP3   OH268650   3.465   3.983   5.651 -0.2251 -0.5594  0.1003
15720TIP3    H168651   3.435   4.034   5.576  0.6830  1.6503  1.1794
15720TIP3    H268652   3.538   3.932   5.618 -2.0540 -2.2933 -1.3519
15721TIP3   OH268653   3.129   5.592   2.720  0.7875  0.1160  0.5254
15721TIP3    H168654   3.185   5.524   2.757  2.4365  0.8214 -0.6008
15721TIP3    H268655   3.186   5.638   2.658 -1.5024 -0.1945 -1.8901
15722TIP3   OH268656   6.060   6.739  12.823 -0.3636 -0.3645 -0.4680
15722TIP3    H168657   5.975   6.699  12.803 -1.5765  1.6017  0.5497
15722TIP3    H268658   6.066   6.734  12.918  0.4138 -0.0110 -0.4988
15723TIP3   OH268659   0.425   3.779  10.714  0.3279  0.2826 -0.1461
15723TIP3    H168660   0.357   3.733  10.664  0.9031  0.2847 -0.9496
15723TIP3    H268661   0.398   3.771  10.805 -1.1868  0.9811 -0.5125
15724TIP3   OH268662   6.592   5.717   2.770  0.2127  0.3780 -0.2583
15724TIP3    H168663   6.576   5.713   2.865  0.6377  0.3597 -0.1886
15724TIP3    H268664   6.506   5.701   2.732 -0.1081  1.1671  0.1291
15725TIP3   OH268665   6.195   4.425   5.573  0.3311  0.2642 -0.2241
15725TIP3    H168666   6.140   4.501   5.557  1.8138  1.4987  0.4628
15725TIP3    H268667   6.174   4.365   5.500 -0.8110  1.3125 -0.7837
15726TIP3   OH268668   4.134   2.274  12.256 -0.3167 -0.0080 -0.1716
15726TIP3    H168669   4.170   2.221  12.185 -1.3166 -0.8668 -0.0631
15726TIP3    H268670   4.060   2.222  12.288 -0.2692  0.6753  1.0621
15727TIP3   OH268671   1.931   3.847  13.506 -0.0601 -0.4943 -0.5130
15727TIP3    H168672   1.986   3.773  13.479  0.7068 -0.4992  1.0333
15727TIP3    H268673   1.954   3.862  13.597 -1.9612  0.1130 -0.1199
15728TIP3   OH268674   0.689   5.480   3.938  0.7468  0.4438 -0.4282
15728TIP3    H168675   0.645   5.462   3.855 -0.8730  1.7158  0.1194
15728TIP3    H268676   0.767   5.425   3.937  0.4028 -0.0306 -2.5077
15729TIP3   OH268677   2.826   4.586  11.514 -0.1266  0.4035  0.2696
15729TIP3    H168678   2.869   4.569  11.431  1.9328 -2.0299  1.7628
15729TIP3    H268679   2.738   4.550  11.503 -0.7046  2.3343 -1.6538
15730TIP3   OH268680   6.632   2.736   3.221  0.3814 -0.3578 -0.1870
15730TIP3    H168681   6.676   2.713   3.139 -2.3360  0.1739 -1.8450
15730TIP3    H268682   6.571   2.664   3.236  1.0633 -0.5869  1.5516
15731TIP3   OH268683   0.596   1.961  14.315  0.2714  0.1051 -0.0402
15731TIP3    H168684   0.681   1.932  14.347  0.3884  0.3629 -0.1180
15731TIP3    H268685   0.536   1.890  14.339 -0.1505  1.4820  3.2304
15732TIP3   OH268686   1.501   5.074  11.152 -0.0563 -0.3908  0.3285
15732TIP3    H168687   1.539   5.050  11.236  2.4804 -0.9799 -0.9406
15732TIP3    H268688   1.467   4.991  11.117 -0.2898 -0.3093  0.3609
15733TIP3   OH268689   0.195   4.010   0.392 -0.1145  0.3340  0.0633
15733TIP3    H168690   0.207   3.995   0.298 -0.7912  0.1205  0.0130
15733TIP3    H268691   0.277   3.979   0.431  0.9036  2.0651 -0.6215
15734TIP3   OH268692   0.818   6.005  13.789  0.1074 -0.2442  0.2333
15734TIP3    H168693   0.875   5.931  13.811  0.0137 -0.5348 -0.4874
15734TIP3    H268694   0.730   5.975  13.811 -0.0719 -0.8265 -1.2825
15735TIP3   OH268695   0.135   6.383  16.580 -0.6870  1.0715  0.0381
15735TIP3    H168696   0.157   6.306  16.528 -0.4113  0.0857  1.5622
15735TIP3    H268697   0.053   6.415  16.544 -0.2074  0.7498 -1.3477
15736TIP3   OH268698   3.406   4.106  16.178 -1.2175  0.0645  0.1817
15736TIP3    H168699   3.339   4.172  16.159  0.1446  1.1053 -1.2434
15736TIP3    H268700   3.423   4.065  16.093  0.3980  0.2773  0.3852
15737TIP3   OH268701   1.624   5.319   2.315  0.6982 -0.7251 -0.0325
15737TIP3    H168702   1.701   5.273   2.349  0.8112  0.0791  0.8171
15737TIP3    H268703   1.643   5.411   2.331 -0.3428 -0.5140 -0.0335
15738TIP3   OH268704   2.865   4.303   4.870  0.4668 -0.0091 -0.0288
15738TIP3    H168705   2.934   4.364   4.845  0.2714  0.1350 -0.2190
15738TIP3    H268706   2.857   4.313   4.964 -0.9401  1.7151 -0.3213
15739TIP3   OH268707   3.135   5.827  14.384  0.1496 -0.0575  0.1202
15739TIP3    H168708   3.125   5.782  14.468  1.7581  0.5429  0.6614
15739TIP3    H268709   3.047   5.855  14.361 -0.2468  0.2263  1.8793
15740TIP3   OH268710   4.768   0.126   5.521  0.1364 -0.1422 -0.5958
15740TIP3    H168711   4.687   0.174   5.537 -0.5190 -1.9543  1.7443
15740TIP3    H268712   4.742   0.034   5.517  2.0858 -0.8021  0.6871
15741TIP3   OH268713   1.814   1.414  11.898  0.2811  0.8204  0.5090
15741TIP3    H168714   1.797   1.343  11.960  1.0514  0.0438 -0.1591
15741TIP3    H268715   1.859   1.480  11.950 -0.0800  0.6527  1.0411
15742TIP3   OH268716   0.532   2.195  12.166 -0.2436 -0.4186 -0.4288
15742TIP3    H168717   0.608   2.185  12.224 -1.0708  1.2330  0.9977
15742TIP3    H268718   0.545   2.130  12.098  2.9239  0.4377 -0.7278
15743TIP3   OH268719   0.666   3.438  16.030  0.0632 -0.4650  0.2329
15743TIP3    H168720   0.637   3.356  16.069  0.6455 -0.7263  0.1262
15743TIP3    H268721   0.640   3.505  16.092 -0.9056 -0.6824  0.0614
15744TIP3   OH268722   0.616   4.888  11.364  0.7812  0.1144 -0.0287
15744TIP3    H168723   0.589   4.973  11.328 -1.3386 -0.6838 -0.4229
15744TIP3    H268724   0.702   4.871  11.325  0.5865  1.4168 -1.0610
15745TIP3   OH268725   1.710   4.830   2.779 -0.0248  0.1481 -0.9992
15745TIP3    H168726   1.614   4.832   2.780 -0.0364  0.8012 -2.2128
15745TIP3    H268727   1.735   4.833   2.872 -1.1735  0.1804 -0.6818
15746TIP3   OH268728   2.483   6.810   1.475 -0.3468 -0.3140  0.5289
15746TIP3    H168729   2.570   6.850   1.470  0.4526 -2.0071  0.3703
15746TIP3    H268730   2.432   6.855   1.407  0.2247  1.1031  1.0255
15747TIP3   OH268731   4.847   2.181   1.355  0.0280  1.3806 -0.1612
15747TIP3    H168732   4.827   2.167   1.263  0.1098 -0.9397  0.1502
15747TIP3    H268733   4.855   2.276   1.364 -2.9065  1.8608 -1.9290
15748TIP3   OH268734   5.498   5.461   4.590 -0.6060  0.1982  0.0061
15748TIP3    H168735   5.435   5.427   4.653 -0.7985  1.8708  0.7203
15748TIP3    H268736   5.470   5.551   4.573  0.7123  0.4749 -0.8081
15749TIP3   OH268737   0.406   2.437  14.384 -0.3501  0.4303 -0.2434
15749TIP3    H168738   0.479   2.377  14.401 -0.4831  0.2586 -0.2785
15749TIP3    H268739   0.389   2.479  14.468 -0.7887 -0.1741 -0.0249
15750TIP3   OH268740   6.310   1.127  17.064 -0.5695  0.1724  0.9913
15750TIP3    H168741   6.325   1.060  17.130 -2.0471 -2.5212 -1.3262
15750TIP3    H268742   6.368   1.102  16.991 -2.7220  0.1380 -0.7516
15751TIP3   OH268743   6.577   1.755  15.147 -0.4450 -0.1308 -0.0902
15751TIP3    H168744   6.506   1.721  15.093  0.4859 -2.2221 -0.0678
15751TIP3    H268745   6.534   1.808  15.214 -2.0068 -1.5562  0.0703
15752TIP3   OH268746   2.355   0.709  12.794 -0.3989  0.0011 -0.1299
15752TIP3    H168747   2.382   0.790  12.838 -2.6176  0.9189 -0.3726
15752TIP3    H268748   2.403   0.709  12.712 -0.4571  1.1330 -0.1749
15753TIP3   OH268749   0.161   1.565  11.088  0.1396  0.5008  0.1172
15753TIP3    H168750   0.091   1.508  11.055  1.7062 -1.2927 -0.1651
15753TIP3    H268751   0.168   1.634  11.022 -1.1543  0.5124 -0.0167
15754TIP3   OH268752   0.603   4.828  15.345  0.0621 -0.5518  0.0801
15754TIP3    H168753   0.552   4.760  15.300 -1.4927  0.4550  0.3055
15754TIP3    H268754   0.646   4.876  15.274 -0.9224 -0.1185 -0.2266
15755TIP3   OH268755   0.144   1.988   4.535  0.4536 -0.3905  0.1521
15755TIP3    H168756   0.151   1.981   4.630  1.2056  1.2119  0.2298
15755TIP3    H268757   0.230   2.020   4.507  0.7182 -2.2022 -1.2104
15756TIP3   OH268758   0.804   3.159  16.658  0.3342 -0.3533  0.1433
15756TIP3    H168759   0.726   3.209  16.635  0.4484  1.1991  3.0312
15756TIP3    H268760   0.770   3.075  16.690 -0.0201 -0.6082 -0.8783
15757TIP3   OH268761   3.745   0.511  14.944 -0.1818  0.0183  0.0594
15757TIP3    H168762   3.728   0.552  15.029 -0.9788  0.4414 -0.2995
15757TIP3    H268763   3.684   0.554  14.884  0.9426  0.3029 -0.8950
15758TIP3   OH268764   2.242   4.468  12.698  0.3204  0.0275 -0.0316
15758TIP3    H168765   2.207   4.557  12.703 -1.7634 -0.8053  0.9407
15758TIP3    H268766   2.230   4.443  12.606 -1.4916 -0.1585  0.2392
15759TIP3   OH268767   4.797   0.431   1.108  0.4158 -0.2878 -0.3210
15759TIP3    H168768   4.843   0.464   1.185 -2.1210  0.5953  0.8695
15759TIP3    H268769   4.835   0.345   1.092  2.4135  0.3922  0.6329
15760TIP3   OH268770   1.849   2.736  14.566 -0.5893  0.2965  0.1255
15760TIP3    H168771   1.758   2.749  14.592 -0.2178  0.8359  1.2073
15760TIP3    H268772   1.900   2.779  14.635  0.4666  0.6634 -0.8637
15761TIP3   OH268773   1.438   2.119   5.889 -0.4897 -0.0308  0.0452
15761TIP3    H168774   1.428   2.173   5.811  0.1130  2.0302  1.3505
15761TIP3    H268775   1.375   2.155   5.951 -0.9988 -1.6829  0.4914
15762TIP3   OH268776   2.913   3.662   5.310  0.0951 -0.6640 -0.2467
15762TIP3    H168777   2.833   3.655   5.258 -1.5861 -0.5589  2.2114
15762TIP3    H268778   2.922   3.577   5.353  1.6059 -0.8514 -0.8979
15763TIP3   OH268779   6.146   4.958  17.032 -0.3970  0.0374 -0.5605
15763TIP3    H168780   6.186   4.876  17.002 -0.5709 -0.4381  0.4824
15763TIP3    H268781   6.216   5.002  17.080 -0.8461 -0.3643  0.4710
15764TIP3   OH268782   0.029   2.487   5.324 -0.1099  0.0776  0.1698
15764TIP3    H168783   0.076   2.507   5.404  0.1707 -0.5043  0.1532
15764TIP3    H268784  -0.062   2.507   5.343 -0.0888 -0.3819  0.7383
15765TIP3   OH268785   3.677   1.328   2.412  0.2492  0.4253 -0.2416
15765TIP3    H168786   3.745   1.383   2.451 -1.7448  1.8955  1.2451
15765TIP3    H268787   3.672   1.357   2.321  0.8063  1.0879 -0.0623
15766TIP3   OH268788   2.243   5.668   1.724 -0.0304  0.8326 -0.4330
15766TIP3    H168789   2.205   5.727   1.790 -1.0650  0.3128 -0.5641
15766TIP3    H268790   2.169   5.641   1.670  0.6742  0.5370 -1.2607
15767TIP3   OH268791   2.025   2.145   1.443 -0.1718 -0.1735  0.2381
15767TIP3    H168792   1.946   2.184   1.407  1.1027  2.1722 -0.1334
15767TIP3    H268793   1.997   2.099   1.522 -1.5305  2.7295  1.4907
15768TIP3   OH268794   4.058   1.351  10.940  0.9809  0.1302  0.0849
15768TIP3    H168795   4.052   1.284  10.872  0.3245 -0.1392  0.4014
15768TIP3    H268796   4.108   1.422  10.900  0.6136 -0.0360 -0.6719
15769TIP3   OH268797   3.046   1.077  15.603 -0.1371 -0.5845  0.3229
15769TIP3    H168798   2.970   1.048  15.553  0.8736  0.0907 -1.6374
15769TIP3    H268799   3.013   1.149  15.657 -0.8840 -0.3014 -0.5043
15770TIP3   OH268800   5.655   5.327   0.910  0.3923  0.1203  0.1064
15770TIP3    H168801   5.727   5.368   0.863 -0.7058  2.3076  0.3022
15770TIP3    H268802   5.576   5.354   0.863 -0.3475 -2.1386 -0.0272
15771TIP3   OH268803   3.121   1.843   3.121  0.0160  0.6461 -0.1121
15771TIP3    H168804   3.097   1.752   3.141  0.0216  1.1043  2.0935
15771TIP3    H268805   3.064   1.867   3.048 -0.0731 -1.0938 -0.6393
15772TIP3   OH268806   5.819   1.895   2.762 -0.1726 -0.2505  0.1993
15772TIP3    H168807   5.797   1.873   2.852  0.0410  1.3609  0.6488
15772TIP3    H268808   5.746   1.948   2.731  0.3641  0.2971 -0.1490
15773TIP3   OH268809   4.001   2.303  15.785  0.2563  0.0753  0.0365
15773TIP3    H168810   3.956   2.337  15.708 -0.4220 -0.2249  0.3006
15773TIP3    H268811   4.001   2.376  15.847  2.9711  1.1264 -1.1440
15774TIP3   OH268812   3.656   4.166  12.011  0.8117 -0.5267  0.4508
15774TIP3    H168813   3.573   4.148  12.055  0.1954 -0.7579 -0.7916
15774TIP3    H268814   3.662   4.262  12.010  0.2143 -0.4926 -0.0917
15775TIP3   OH268815   5.170   3.682   5.601 -0.1557 -0.2089  0.2506
15775TIP3    H168816   5.145   3.769   5.570 -0.8758 -0.4536  0.1309
15775TIP3    H268817   5.134   3.678   5.690  0.5802 -0.0838  0.5586
15776TIP3   OH268818   2.798   3.273   6.497  0.1221  0.2504 -0.3323
15776TIP3    H168819   2.774   3.292   6.406  0.5051  0.1666 -0.4524
15776TIP3    H268820   2.780   3.355   6.543 -0.1349  0.2730 -0.4715
15777TIP3   OH268821   0.942   5.684   1.098 -0.1706 -0.4134  0.5958
15777TIP3    H168822   0.988   5.767   1.113  0.0677 -0.7067  1.5247
15777TIP3    H268823   0.877   5.705   1.032 -0.8360  0.7871  1.6013
15778TIP3   OH268824   5.633   2.425   0.328  0.0557 -0.4435 -0.2424
15778TIP3    H168825   5.590   2.510   0.339  1.7679  0.5011 -0.6398
15778TIP3    H268826   5.621   2.404   0.235  1.7199  0.5593 -0.7133
15779TIP3   OH268827   4.533   6.096   3.502  0.2870 -0.3187 -0.1500
15779TIP3    H168828   4.615   6.068   3.460  0.4496  1.8012 -1.3287
15779TIP3    H268829   4.561   6.129   3.588  0.6538  0.1752 -0.4532
15780TIP3   OH268830   5.296   2.519  15.894  0.0679 -0.0508 -0.2294
15780TIP3    H168831   5.221   2.491  15.947 -0.4760  0.7829 -0.5467
15780TIP3    H268832   5.271   2.606  15.862  1.1747  0.2364 -0.3334
15781TIP3   OH268833   2.146   2.019  12.645  0.0531 -0.1341  0.8832
15781TIP3    H168834   2.073   2.051  12.591  0.7581 -0.8747 -0.5393
15781TIP3    H268835   2.219   2.077  12.622  0.7452 -1.3645 -0.0626
15782TIP3   OH268836   5.847   3.430  15.244 -0.2042 -0.1446 -0.2177
15782TIP3    H168837   5.914   3.362  15.242 -0.7182 -0.6359 -0.7835
15782TIP3    H268838   5.765   3.384  15.232 -0.5161  0.6256 -1.1154
15783TIP3   OH268839   5.605   5.169  16.381 -0.0553  0.5968  0.0652
15783TIP3    H168840   5.666   5.130  16.443 -0.1096  0.0188 -0.2474
15783TIP3    H268841   5.532   5.200  16.435 -1.2642 -2.1089  0.0367
15784TIP3   OH268842   4.745   5.534   4.743  0.0460  0.4946  0.3351
15784TIP3    H168843   4.705   5.448   4.747 -0.1293  0.5097 -0.9332
15784TIP3    H268844   4.808   5.528   4.672  1.9399  0.6322  1.9558
15785TIP3   OH268845   6.291   4.567   4.876  0.0112 -0.1133  0.4424
15785TIP3    H168846   6.248   4.620   4.809  1.8850 -0.8566 -1.4000
15785TIP3    H268847   6.221   4.543   4.937 -1.6119  1.0356 -0.9407
15786TIP3   OH268848   0.795   3.055  12.659 -0.1140 -0.3884 -0.2289
15786TIP3    H168849   0.750   3.135  12.633  0.5472 -0.4710 -1.6874
15786TIP3    H268850   0.778   3.047  12.753 -1.2214  0.7874 -0.3189
15787TIP3   OH268851   1.583   0.082   2.630 -0.0337 -0.1398 -0.3676
15787TIP3    H168852   1.648   0.048   2.567  1.0312 -0.0558  0.6730
15787TIP3    H268853   1.502   0.039   2.606  0.4268 -0.3278 -1.6363
15788TIP3   OH268854   0.580   0.263  14.461  0.3660 -0.5003  0.0311
15788TIP3    H168855   0.530   0.269  14.380  0.6304 -0.1681 -0.1107
15788TIP3    H268856   0.637   0.187  14.448  0.8786 -0.0507 -0.3627
15789TIP3   OH268857   5.595   3.958  12.789 -0.6474 -0.0903 -0.0234
15789TIP3    H168858   5.682   3.990  12.811 -0.9367  0.6671  0.0446
15789TIP3    H268859   5.551   4.034  12.751 -0.8063 -0.8468 -1.3854
15790TIP3   OH268860   4.817   1.229  16.533  0.5024 -0.3528 -0.0989
15790TIP3    H168861   4.812   1.249  16.626  0.5384 -1.4970  0.1518
15790TIP3    H268862   4.908   1.206  16.518  0.8780  1.4826 -0.7649
15791TIP3   OH268863   0.226   0.273  15.494  0.0988  0.0208  0.4699
15791TIP3    H168864   0.134   0.273  15.466  0.4635 -0.8706 -0.8074
15791TIP3    H268865   0.222   0.262  15.589 -1.1070 -1.8306  0.2471
15792TIP3   OH268866   2.012   0.950  13.331 -0.3543  0.0495  0.0085
15792TIP3    H168867   1.919   0.925  13.332 -0.3400 -0.0758 -0.9516
15792TIP3    H268868   2.056   0.882  13.381 -0.6228 -0.5687 -0.5902
15793TIP3   OH268869   3.661   3.697   2.327 -0.9108 -0.4787  0.2715
15793TIP3    H168870   3.669   3.613   2.374 -1.4602 -1.4731 -1.3558
15793TIP3    H268871   3.568   3.705   2.310 -0.8594  0.5075  0.4645
15794TIP3   OH268872   0.753   4.324  15.437 -0.1671  1.2125 -0.4041
15794TIP3    H168873   0.717   4.410  15.458  0.7090  2.0260 -2.1695
15794TIP3    H268874   0.751   4.319  15.342  0.2634 -0.5244 -0.3444
15795TIP3   OH268875   6.330   2.823   4.489  0.0025 -0.1276 -0.4115
15795TIP3    H168876   6.258   2.886   4.499 -0.1959 -0.3400 -0.5020
15795TIP3    H268877   6.325   2.770   4.569  1.5081  1.3398  0.6866
15796TIP3   OH268878   3.934   0.256  15.610 -0.4218  0.0468 -0.4804
15796TIP3    H168879   3.856   0.218  15.571 -1.5695  0.8671  0.9740
15796TIP3    H268880   4.007   0.212  15.567 -1.6947 -1.8727 -0.7004
15797TIP3   OH268881   3.800   5.270   2.579  0.2676 -0.0637 -0.2985
15797TIP3    H168882   3.882   5.223   2.563  0.3993  0.0055  0.1770
15797TIP3    H268883   3.790   5.327   2.502 -0.0882 -1.1356 -1.0638
15798TIP3   OH268884   0.404   0.300  15.977  0.1106  0.0347 -0.3669
15798TIP3    H168885   0.421   0.343  16.061 -0.7930  0.4219 -0.3781
15798TIP3    H268886   0.448   0.215  15.985  0.3086  0.2018  0.3763
15799TIP3   OH268887   6.168   4.338   5.150 -0.1154  0.0313 -0.0601
15799TIP3    H168888   6.125   4.287   5.219 -2.1394 -0.9571 -1.9758
15799TIP3    H268889   6.195   4.419   5.193 -1.0729 -0.6950  1.9642
15800TIP3   OH268890   0.558   3.873   2.813 -0.0941  0.3010  0.4341
15800TIP3    H168891   0.639   3.884   2.764  1.0575 -0.4492  2.1452
15800TIP3    H268892   0.539   3.780   2.809 -0.5072  0.3745  0.6110
15801TIP3   OH268893   4.122   3.397   3.017  0.7449 -0.8681  0.3272
15801TIP3    H168894   4.034   3.432   3.014  1.2773  0.4598 -0.1799
15801TIP3    H268895   4.121   3.323   2.957  0.3622  0.0587 -0.8217
15802TIP3   OH268896   3.092   5.618  17.254 -0.1655 -0.6457 -0.6713
15802TIP3    H168897   3.159   5.558  17.221 -0.7973 -1.5020 -0.4251
15802TIP3    H268898   3.048   5.569  17.324 -0.4475  0.2454 -0.2139
15803TIP3   OH268899   3.078   2.733   5.049 -0.2678 -0.5042 -0.0788
15803TIP3    H168900   3.102   2.678   4.975 -1.3067  0.3134 -1.0304
15803TIP3    H268901   3.080   2.822   5.016  2.3253  0.1738  1.7074
15804TIP3   OH268902   3.143   6.558  14.705  0.3680 -0.0303 -0.1235
15804TIP3    H168903   3.068   6.577  14.648  0.4720  0.6539 -0.0447
15804TIP3    H268904   3.213   6.614  14.672  1.5361 -2.2937 -1.5963
15805TIP3   OH268905   6.630   2.288   3.666 -0.4019 -0.3172  0.4576
15805TIP3    H168906   6.664   2.317   3.581 -1.0141 -0.4666  0.1570
15805TIP3    H268907   6.558   2.229   3.644 -0.3676 -0.6010  1.0826
15806TIP3   OH268908   6.436   5.669   0.036  0.0267  0.1898 -0.9121
15806TIP3    H168909   6.400   5.634  -0.046  0.3637  0.2447 -1.0848
15806TIP3    H268910   6.521   5.704   0.012 -0.7796  2.1816 -0.9668
15807TIP3   OH268911   4.297   5.166   4.714 -0.2263 -0.3810 -0.2199
15807TIP3    H168912   4.316   5.239   4.773  1.6964  0.5087 -1.8777
15807TIP3    H268913   4.233   5.200   4.652  0.9964  0.0763 -1.2613
15808TIP3   OH268914   4.217   6.139  17.101 -0.1502  0.1813  0.4541
15808TIP3    H168915   4.191   6.061  17.053 -0.9168  0.8403 -0.2070
15808TIP3    H268916   4.189   6.122  17.191 -0.4428 -0.2511  0.2849
15809TIP3   OH268917   0.806   5.622  12.678  0.0188  0.3929 -0.6645
15809TIP3    H168918   0.835   5.712  12.663 -1.8703  1.8897  3.5947
15809TIP3    H268919   0.830   5.605  12.770 -1.4965 -2.7075 -0.7904
15810TIP3   OH268920   2.188   3.675  14.532 -0.1403  0.3191 -0.2977
15810TIP3    H168921   2.269   3.724  14.543  1.2650 -2.1084  0.6077
15810TIP3    H268922   2.159   3.654  14.621 -0.5014 -0.8151 -0.6669
15811TIP3   OH268923   4.450   5.797  12.809 -0.6346 -0.1143  0.5562
15811TIP3    H168924   4.401   5.766  12.884 -0.7633 -1.3120 -0.0062
15811TIP3    H268925   4.530   5.835  12.846 -0.2874 -1.4884  1.2598
15812TIP3   OH268926   2.904   0.677   6.026 -0.0972 -0.4692 -0.1823
15812TIP3    H168927   2.840   0.737   5.990 -0.8115 -0.8878  0.3803
15812TIP3    H268928   2.960   0.732   6.082  0.4319  0.0055 -1.1697
15813TIP3   OH268929   4.041   1.129  14.939  0.7206  0.2235 -0.0759
15813TIP3    H168930   3.947   1.123  14.951  0.6206  0.7923 -0.5005
15813TIP3    H268931   4.077   1.050  14.980  0.0322 -0.1654 -0.2236
15814TIP3   OH268932   1.594   1.395   6.328 -0.5324  0.1577 -0.3147
15814TIP3    H168933   1.667   1.424   6.274 -0.6115 -0.0686 -0.5438
15814TIP3    H268934   1.600   1.300   6.328 -0.2573  0.1804  0.4636
15815TIP3   OH268935   2.491   0.069   6.430 -0.0486  0.4207 -1.0455
15815TIP3    H168936   2.438   0.143   6.401 -0.9770 -0.2480 -1.0740
15815TIP3    H268937   2.475   0.063   6.524 -0.6554 -0.2631 -1.1804
15816TIP3   OH268938   4.047   3.752   0.392  0.6263 -0.6966 -0.5784
15816TIP3    H168939   4.079   3.838   0.366  1.0645 -0.9022 -0.7218
15816TIP3    H268940   4.126   3.703   0.415  0.2284 -0.3308  1.7209
15817TIP3   OH268941   3.703   5.294  14.706  0.0180 -0.2580  0.2563
15817TIP3    H168942   3.615   5.297  14.745  0.3460 -2.3216  1.2406
15817TIP3    H268943   3.751   5.365  14.749 -1.3394  1.3231 -0.7799
15818TIP3   OH268944   0.149   0.525   2.182 -0.3557  0.1098  0.2790
15818TIP3    H168945   0.205   0.447   2.175  1.4985  1.4803 -0.3012
15818TIP3    H268946   0.063   0.494   2.153  0.2373 -1.8285  0.4595
15819TIP3   OH268947   2.121   1.036  12.155 -0.0594 -0.8355  0.4835
15819TIP3    H168948   2.186   0.967  12.141  0.1621 -0.5159 -0.1147
15819TIP3    H268949   2.058   1.024  12.083 -0.4611 -0.9212  0.8512
15820TIP3   OH268950   2.563   4.881   3.670  0.0014 -1.0810  0.4256
15820TIP3    H168951   2.512   4.847   3.744 -0.4314  0.6694  0.9422
15820TIP3    H268952   2.518   4.961   3.644  1.7603 -0.1998  0.0386
15821TIP3   OH268953   1.088   4.484  10.662  0.0025  0.3106  0.3995
15821TIP3    H168954   1.170   4.532  10.675 -0.1175  0.4178  0.7646
15821TIP3    H268955   1.114   4.392  10.666  0.0452  0.3419  0.9311
15822TIP3   OH268956   3.245   0.251  15.542 -0.3490 -0.0733  0.1762
15822TIP3    H168957   3.309   0.204  15.596  1.1492 -1.2644 -2.5379
15822TIP3    H268958   3.248   0.207  15.458 -3.6741  0.8631 -0.4902
15823TIP3   OH268959   6.669   0.873   4.679 -0.3799  0.2854  0.4437
15823TIP3    H168960   6.689   0.957   4.637 -0.9435  1.1075  1.7879
15823TIP3    H268961   6.574   0.868   4.679 -0.3199 -1.4016 -1.6205
15824TIP3   OH268962   4.865   3.974  15.744 -0.5099 -0.0116  0.1566
15824TIP3    H168963   4.844   3.928  15.663 -0.3613  0.4550 -0.1447
15824TIP3    H268964   4.780   4.002  15.779 -0.6854 -1.3434  0.8396
15825TIP3   OH268965   2.174   1.092  12.694  0.5366 -0.1831  0.1173
15825TIP3    H168966   2.159   1.147  12.616  0.0548 -1.1629 -0.4956
15825TIP3    H268967   2.259   1.051  12.679  1.2778  1.0004  0.9560
15826TIP3   OH268968   6.230   5.297   0.164 -0.5086 -0.8104  0.0045
15826TIP3    H168969   6.146   5.257   0.183 -1.3768  1.1605  0.4502
15826TIP3    H268970   6.224   5.323   0.072 -1.1155  0.9384  0.5028
15827TIP3   OH268971   0.784   0.763   1.336 -0.2464 -0.6232 -0.6749
15827TIP3    H168972   0.724   0.721   1.398  0.3439  0.3321  0.5460
15827TIP3    H268973   0.747   0.851   1.323  0.6150 -0.2017 -0.2958
15828TIP3   OH268974   4.370   1.106   1.639 -0.1548 -0.1762  0.0352
15828TIP3    H168975   4.294   1.052   1.663 -0.4077  0.3599  0.4383
15828TIP3    H268976   4.425   1.107   1.718 -0.7471  1.1747  0.4484
15829TIP3   OH268977   0.563   0.328  12.126  0.2524  0.3721 -0.1016
15829TIP3    H168978   0.558   0.374  12.210  0.5746  0.3113 -0.0449
15829TIP3    H268979   0.648   0.353  12.090  0.0009  0.6041 -0.5356
15830TIP3   OH268980   5.391   5.230  16.166  0.5329 -0.2222  0.0593
15830TIP3    H168981   5.305   5.188  16.167  0.3385  0.1597 -0.5585
15830TIP3    H268982   5.435   5.196  16.244  0.2030 -1.2168 -0.1776
15831TIP3   OH268983   4.443   3.575  15.099 -0.0499  0.0419  0.2462
15831TIP3    H168984   4.388   3.577  15.177 -1.9059  1.1886 -1.0289
15831TIP3    H268985   4.526   3.613  15.126  0.0609 -1.5513  2.1814
15832TIP3   OH268986   2.589   3.924   6.292 -0.4928  0.1996  0.3928
15832TIP3    H168987   2.516   3.872   6.324 -1.3236  1.4051  0.5018
15832TIP3    H268988   2.552   4.011   6.276  0.5516  0.4013 -1.0932
15833TIP3   OH268989   5.248   0.815  12.584  0.2048 -0.4297 -0.0726
15833TIP3    H168990   5.207   0.737  12.623 -0.7926 -0.0361 -0.2980
15833TIP3    H268991   5.186   0.886  12.603  0.1612 -0.0633 -1.5251
15834TIP3   OH268992   3.090   0.060  14.704  0.0021 -0.4638  0.1084
15834TIP3    H168993   3.168   0.027  14.748  0.1337  0.5772  0.6744
15834TIP3    H268994   3.123   0.106  14.627 -0.0122  0.3247  0.5639
15835TIP3   OH268995   3.431   0.674  14.204  0.1293 -0.2006 -0.6037
15835TIP3    H168996   3.386   0.605  14.253  0.1366 -0.0091 -0.3233
15835TIP3    H268997   3.424   0.647  14.113 -1.5840  0.4106 -0.6730
15836TIP3   OH268998   4.836   1.813  14.132 -0.0360 -0.2519 -0.4052
15836TIP3    H168999   4.892   1.746  14.171 -0.1701  0.5065  1.1307
15836TIP3    H269000   4.897   1.878  14.097  0.1043 -1.2739 -2.1741
15837TIP3   OH269001   4.133   3.294   3.649 -0.3197 -0.1351  0.7629
15837TIP3    H169002   4.195   3.292   3.575  0.0504 -0.5610  1.0827
15837TIP3    H269003   4.114   3.387   3.662  0.8798  0.0595  1.1785
15838TIP3   OH269004   4.785   0.327  14.519 -0.3461  0.9604  0.5444
15838TIP3    H169005   4.745   0.363  14.440 -0.9485  3.8489  2.0806
15838TIP3    H269006   4.721   0.344  14.588  0.2005 -1.4451  1.6987
15839TIP3   OH269007   1.308   6.156  10.630  0.6359 -0.2462  0.5792
15839TIP3    H169008   1.222   6.138  10.668 -0.7472 -0.6218 -2.5938
15839TIP3    H269009   1.308   6.250  10.613  0.4678 -0.3885 -0.2504
15840TIP3   OH269010   2.378   2.725  11.885  0.4456 -0.4615 -0.1064
15840TIP3    H169011   2.440   2.693  11.950 -0.0291 -0.2189  0.4768
15840TIP3    H269012   2.292   2.716  11.928  0.0478 -1.1380 -1.0366
15841TIP3   OH269013   6.450   3.497  16.597  0.4852 -0.0440 -0.0740
15841TIP3    H169014   6.451   3.404  16.571 -1.6690 -0.5427  1.4508
15841TIP3    H269015   6.357   3.520  16.597  1.0286  2.2301 -0.7075
15842TIP3   OH269016   5.662   2.502   1.181 -0.0872  0.3092  0.3923
15842TIP3    H169017   5.717   2.471   1.253 -0.2774  0.5691  0.6477
15842TIP3    H269018   5.572   2.484   1.209 -0.1771  0.6998  0.3590
15843TIP3   OH269019   5.284   4.779   5.219  0.0176  0.2727  0.2555
15843TIP3    H169020   5.230   4.859   5.226 -0.4979  0.0936 -1.4052
15843TIP3    H269021   5.343   4.784   5.293 -0.5837  1.7862  0.6647
15844TIP3   OH269022   1.132   6.483   3.880 -0.2976  0.2408 -0.0583
15844TIP3    H169023   1.222   6.451   3.872 -0.0918  0.9363 -0.5528
15844TIP3    H269024   1.092   6.426   3.945 -0.1282 -1.4587 -1.4048
15845TIP3   OH269025   3.417   2.444   0.975  0.4420 -0.8807  0.1808
15845TIP3    H169026   3.506   2.440   0.941  0.7972  1.5113  0.7090
15845TIP3    H269027   3.409   2.369   1.032  1.6638 -1.8777 -0.9243
15846TIP3   OH269028   2.897   2.582  16.198  0.0512 -0.0726 -0.2053
15846TIP3    H169029   2.813   2.546  16.171 -0.3032  1.4577 -1.2046
15846TIP3    H269030   2.934   2.620  16.118  0.6863  1.1991  0.6616
15847TIP3   OH269031   6.544   0.666   0.538 -0.4355 -0.6758  0.3956
15847TIP3    H169032   6.532   0.580   0.578 -0.5562 -0.4379  0.8640
15847TIP3    H269033   6.584   0.719   0.606 -0.4343 -0.3381  0.1312
15848TIP3   OH269034   6.602   4.618  12.867 -0.3757 -0.0738 -1.0979
15848TIP3    H169035   6.565   4.685  12.924  0.8342  2.8946 -3.5847
15848TIP3    H269036   6.527   4.584  12.818 -0.6693  1.5507 -1.8214
15849TIP3   OH269037   4.415   5.094   5.096 -0.3072 -0.7670  0.4423
15849TIP3    H169038   4.373   5.179   5.106 -0.6872 -1.2404  3.2443
15849TIP3    H269039   4.361   5.049   5.030  0.3584  1.3814 -1.6501
15850TIP3   OH269040   6.078   3.577   3.440 -0.5210 -0.0830  0.0958
15850TIP3    H169041   5.986   3.600   3.453 -0.6621 -1.2305  1.1116
15850TIP3    H269042   6.100   3.520   3.513  1.8973  2.7092  1.6635
15851TIP3   OH269043   4.033   5.302  15.451 -0.6152  0.3366 -0.1076
15851TIP3    H169044   4.098   5.342  15.508 -1.6415 -0.3316  1.5788
15851TIP3    H269045   4.079   5.288  15.368  1.1008  0.7231  0.7535
15852TIP3   OH269046   2.899   5.086  13.032 -0.3886  0.0984  0.0514
15852TIP3    H169047   2.938   5.049  13.111  0.0711  0.9899  0.2456
15852TIP3    H269048   2.834   5.149  13.064 -0.1867  0.4794 -0.2746
15853TIP3   OH269049   5.210   2.425   2.620 -0.2403  0.3570 -0.3914
15853TIP3    H169050   5.274   2.378   2.674 -0.0078  0.5698 -0.4800
15853TIP3    H269051   5.263   2.484   2.566 -0.5666  1.0463  0.0379
15854TIP3   OH269052   0.503   3.083  13.779 -0.1269  0.3608  0.0303
15854TIP3    H169053   0.426   3.030  13.758  0.1697  0.2880 -0.8884
15854TIP3    H269054   0.484   3.120  13.865 -0.9817 -0.0384  0.0175
15855TIP3   OH269055   2.229   1.289   4.553 -0.3860  0.3915 -0.2400
15855TIP3    H169056   2.161   1.353   4.533  0.0005  1.4650  1.7017
15855TIP3    H269057   2.255   1.253   4.468  0.9050  4.3818 -1.6372
15856TIP3   OH269058   0.183   2.498   5.112 -0.3248  0.4060  0.3560
15856TIP3    H169059   0.136   2.489   5.195 -0.2635  0.5478  0.4065
15856TIP3    H269060   0.275   2.482   5.133 -0.4762 -0.8881  0.0726
15857TIP3   OH269061   1.798   5.536   0.703 -0.0954 -0.2187 -0.4572
15857TIP3    H169062   1.882   5.568   0.670 -0.1184 -1.7017 -2.0447
15857TIP3    H269063   1.753   5.503   0.625 -1.4380 -1.0218  0.6429
15858TIP3   OH269064   1.666   2.601   5.798 -0.6902 -0.6944  0.4807
15858TIP3    H169065   1.651   2.521   5.746 -0.8996  0.1933 -0.8431
15858TIP3    H269066   1.761   2.608   5.803 -0.5814  1.2663 -3.0523
15859TIP3   OH269067   0.088   5.586  12.830 -0.5109 -0.3169  0.1350
15859TIP3    H169068   0.049   5.528  12.766  0.8550 -0.9028 -0.1787
15859TIP3    H269069   0.114   5.529  12.903  1.0765 -0.1646 -0.2897
15860TIP3   OH269070   1.568   6.268  14.383 -0.3130 -0.4094  0.0610
15860TIP3    H169071   1.618   6.239  14.460 -1.4162  0.2286  1.0347
15860TIP3    H269072   1.583   6.200  14.318 -0.4176 -1.6329  1.2878
15861TIP3   OH269073   4.572   3.335   4.578 -0.1126  0.1451  0.1684
15861TIP3    H169074   4.602   3.376   4.660 -0.2838  0.0241  0.2917
15861TIP3    H269075   4.476   3.339   4.584 -0.1596 -1.6575  0.8874
15862TIP3   OH269076   0.906   0.722   6.177  0.2477 -0.5318  0.0720
15862TIP3    H169077   0.904   0.800   6.233 -0.5474  0.1811 -0.9356
15862TIP3    H269078   0.833   0.669   6.207  0.6958 -0.8305  0.6568
15863TIP3   OH269079   1.584   2.101   5.539 -0.2587 -0.0516 -0.1353
15863TIP3    H169080   1.498   2.141   5.555 -0.1377  0.2237 -0.1647
15863TIP3    H269081   1.635   2.170   5.496  0.9285  0.8183  2.4966
15864TIP3   OH269082   0.661   5.102  17.243  0.1299  0.0402 -0.1893
15864TIP3    H169083   0.729   5.095  17.310 -0.5948 -1.8500  0.3580
15864TIP3    H269084   0.704   5.150  17.171  1.7146 -0.2233  0.5554
15865TIP3   OH269085   2.726   3.063  10.568 -0.5560  0.5513 -0.1624
15865TIP3    H169086   2.795   3.054  10.503 -0.0749  0.1680  0.4013
15865TIP3    H269087   2.671   3.134  10.535  1.3912  2.4539  0.5325
15866TIP3   OH269088   1.919   2.177   2.537  0.1123  0.3494  0.0010
15866TIP3    H169089   1.942   2.172   2.630  0.6043 -0.7992 -0.1762
15866TIP3    H269090   1.943   2.092   2.501  1.1957  1.2560 -1.4837
15867TIP3   OH269091   2.897   1.779  12.900  0.2866 -0.5507  0.6204
15867TIP3    H169092   2.964   1.774  12.832 -0.0215 -3.2179  0.4510
15867TIP3    H269093   2.823   1.823  12.858  1.2290  0.6851  0.2295
15868TIP3   OH269094   3.726   3.216  11.056 -0.9367  0.3276 -0.1354
15868TIP3    H169095   3.789   3.145  11.069 -0.2797  0.6880 -1.2540
15868TIP3    H269096   3.781   3.293  11.039 -1.6307  1.1786  1.3973
15869TIP3   OH269097   4.869   0.930  12.896 -0.0191  0.1665  0.1574
15869TIP3    H169098   4.871   0.950  12.990  0.4865  1.0364 -0.0450
15869TIP3    H269099   4.865   1.015  12.853 -2.0094 -0.2719 -0.5733
15870TIP3   OH269100   1.101   4.342  15.656 -0.0059 -0.2459  0.2340
15870TIP3    H169101   1.024   4.397  15.672 -0.0940 -0.4641  0.5678
15870TIP3    H269102   1.139   4.328  15.742 -0.3581 -1.2528  0.2320
15871TIP3   OH269103   4.111   4.446  15.253  0.1592  0.3859 -0.0484
15871TIP3    H169104   4.117   4.517  15.317  0.4116  0.5818 -0.2917
15871TIP3    H269105   4.135   4.368  15.302  0.2513  0.5212  0.1222
15872TIP3   OH269106   2.942   3.370  14.725 -0.2339 -0.4865  0.2372
15872TIP3    H169107   2.931   3.336  14.636  1.1780  2.1841 -1.0420
15872TIP3    H269108   2.891   3.451  14.726  0.6976  0.1146  1.4685
15873TIP3   OH269109   6.048   1.648   2.059 -0.6439  0.2957  0.5096
15873TIP3    H169110   5.960   1.652   2.021 -0.0727 -3.0053 -1.3595
15873TIP3    H269111   6.103   1.692   1.994 -0.5049 -0.2311  0.2681
15874TIP3   OH269112   6.279   1.209   2.486 -0.3700  0.4948  0.6091
15874TIP3    H169113   6.358   1.156   2.493 -0.7991 -0.1368  0.6761
15874TIP3    H269114   6.235   1.176   2.408 -0.0203  1.5912 -0.0682
15875TIP3   OH269115   1.678   3.971   3.624  0.7911  0.0873 -0.4509
15875TIP3    H169116   1.752   3.910   3.618  0.9358  0.0654  1.3124
15875TIP3    H269117   1.604   3.915   3.651  1.3547  0.9249  3.1750
15876TIP3   OH269118   5.185   6.630  10.916  0.1580  0.4260  0.1589
15876TIP3    H169119   5.163   6.539  10.896 -1.2703  0.3164  2.0661
15876TIP3    H269120   5.182   6.635  11.012  0.8835  2.3105  0.1008
15877TIP3   OH269121   0.120   2.151   3.498  0.8226  0.2806  0.6578
15877TIP3    H169122   0.055   2.221   3.499  1.4738  0.8803  0.5468
15877TIP3    H269123   0.120   2.120   3.407 -0.2466 -0.6014  0.9386
15878TIP3   OH269124   3.001   3.258   3.517  0.0314  0.5239 -0.2225
15878TIP3    H169125   3.053   3.235   3.594 -0.4341  1.3315  0.3271
15878TIP3    H269126   2.917   3.215   3.531 -0.0721  0.7166 -0.2628
15879TIP3   OH269127   2.575   4.168   5.155 -0.3878  0.1475  0.4669
15879TIP3    H169128   2.504   4.228   5.131 -0.1589  0.6199  0.9799
15879TIP3    H269129   2.654   4.222   5.152 -0.1325 -0.2198  0.5614
15880TIP3   OH269130   5.250   1.684  15.115 -0.7254  0.2247  0.8123
15880TIP3    H169131   5.219   1.638  15.193 -1.0440 -1.3751 -0.2345
15880TIP3    H269132   5.300   1.618  15.067 -0.3685  1.2546 -0.2356
15881TIP3   OH269133   1.534   1.756  12.809  0.1497  0.2633 -0.2645
15881TIP3    H169134   1.627   1.743  12.826 -0.0644  0.3264  0.9933
15881TIP3    H269135   1.517   1.706  12.728  1.4030  0.8125 -0.8734
15882TIP3   OH269136   3.457   5.396   1.429 -0.0708 -0.6300 -0.4329
15882TIP3    H169137   3.507   5.375   1.508 -2.4173 -1.1863  0.9605
15882TIP3    H269138   3.452   5.314   1.381  0.9358 -0.4068 -0.9340
15883TIP3   OH269139   5.490   1.183   1.176 -0.9857 -0.6274 -0.4725
15883TIP3    H169140   5.448   1.269   1.168  0.4639  0.2658  1.3698
15883TIP3    H269141   5.582   1.199   1.155  0.0135 -0.9938  3.3872
15884TIP3   OH269142   0.510   5.232  11.884 -1.0670 -0.0653  0.3322
15884TIP3    H169143   0.558   5.220  11.966 -0.3655  1.9931  0.2327
15884TIP3    H269144   0.465   5.315  11.893 -1.3857 -0.0537 -1.1864
15885TIP3   OH269145   2.802   2.757   2.431 -0.0939 -0.1051 -0.1473
15885TIP3    H169146   2.770   2.822   2.369  1.4094 -1.3531 -2.2818
15885TIP3    H269147   2.860   2.806   2.490 -0.2056  0.7664 -0.7663
15886TIP3   OH269148   0.474   6.820  12.538  0.2768 -0.2452  0.4289
15886TIP3    H169149   0.410   6.824  12.468 -1.0341 -1.0749  1.5441
15886TIP3    H269150   0.422   6.809  12.618  1.7689 -0.2618  1.4321
15887TIP3   OH269151   0.523   3.650  12.562 -0.0781  0.0497 -0.2089
15887TIP3    H169152   0.440   3.685  12.594 -0.3306 -0.6220 -0.1170
15887TIP3    H269153   0.500   3.604  12.481 -0.0811 -1.6415  0.7420
15888TIP3   OH269154   6.368   3.067   0.818  0.6749  0.5941  0.0569
15888TIP3    H169155   6.348   2.975   0.801  0.9987  0.8626 -1.8949
15888TIP3    H269156   6.357   3.077   0.913  0.4724 -1.4055  0.2665
15889TIP3   OH269157   3.531   3.421  13.117 -0.4726  0.4864 -0.3259
15889TIP3    H169158   3.516   3.421  13.023 -1.7816 -1.4717 -0.1498
15889TIP3    H269159   3.581   3.341  13.134 -1.3234  0.1664  0.7705
15890TIP3   OH269160   4.635   6.356  13.095  0.1061  0.6808 -0.3077
15890TIP3    H169161   4.615   6.422  13.029  0.0816  0.7319 -0.2495
15890TIP3    H269162   4.729   6.365  13.111  0.4046 -0.3410 -1.4352
15891TIP3   OH269163   6.054   3.256   5.499 -0.3823  0.0023  0.1791
15891TIP3    H169164   6.141   3.250   5.539 -0.0235  1.6042 -0.3216
15891TIP3    H269165   6.064   3.212   5.415  0.7079  2.5026 -1.0570
15892TIP3   OH269166   1.028   2.479   0.578  0.4773  0.2575 -0.1486
15892TIP3    H169167   0.987   2.393   0.588  0.2082  0.4225  0.1870
15892TIP3    H269168   1.025   2.497   0.484 -1.2090  0.7464 -0.0124
15893TIP3   OH269169   0.960   6.485   4.377 -0.3434 -0.4956 -0.3321
15893TIP3    H169170   0.922   6.566   4.343 -2.6726 -1.7635 -0.8569
15893TIP3    H269171   0.948   6.491   4.472  2.1961  1.0695 -0.0567
15894TIP3   OH269172   5.890   3.901  13.884 -0.4816 -0.1526 -0.3351
15894TIP3    H169173   5.806   3.918  13.927 -0.4094 -1.1452  0.2087
15894TIP3    H269174   5.953   3.891  13.956  0.0037  0.0846 -0.7240
15895TIP3   OH269175   6.391   1.075  12.582 -0.2028  0.2093 -0.1761
15895TIP3    H169176   6.379   1.114  12.669 -0.6838  0.4413 -0.3481
15895TIP3    H269177   6.303   1.062  12.549 -0.0325 -0.4173 -0.3948
15896TIP3   OH269178   1.487   6.580   1.789  0.3477 -0.1243 -0.7384
15896TIP3    H169179   1.554   6.563   1.722  0.3499 -1.8843 -0.2952
15896TIP3    H269180   1.525   6.649   1.843  0.4431  1.1766 -2.4124
15897TIP3   OH269181   3.398   2.020   4.142  0.9874 -0.1766  0.2841
15897TIP3    H169182   3.354   2.106   4.147  0.0097 -0.3589 -3.3101
15897TIP3    H269183   3.335   1.959   4.180 -0.3742  0.0892 -1.4718
15898TIP3   OH269184   5.383   1.243   2.911  0.0149  0.2764  0.4522
15898TIP3    H169185   5.475   1.259   2.887 -0.2603  0.4823 -0.4960
15898TIP3    H269186   5.338   1.323   2.886 -0.6499 -0.3394 -0.3340
15899TIP3   OH269187   0.596   4.583   1.273 -0.4539 -0.1503  0.3099
15899TIP3    H169188   0.661   4.630   1.325 -0.9781  1.7873 -0.7165
15899TIP3    H269189   0.524   4.567   1.334  0.6127 -1.5149  1.2164
15900TIP3   OH269190   4.796   2.702   6.387  0.5204  0.6743  0.4852
15900TIP3    H169191   4.828   2.766   6.451  1.9878 -0.0081  0.4630
15900TIP3    H269192   4.830   2.618   6.418  1.3098  0.3466 -1.2172
15901TIP3   OH269193   3.428   5.422   3.937  0.3861 -0.5303  0.5615
15901TIP3    H169194   3.337   5.452   3.941  0.5230  0.3267 -2.2130
15901TIP3    H269195   3.480   5.502   3.942  0.9729 -0.9210  0.8016
15902TIP3   OH269196   5.247   2.921   0.195  0.3266  0.3717  0.1253
15902TIP3    H169197   5.258   2.898   0.103  1.0477  0.4172  0.1901
15902TIP3    H269198   5.247   2.837   0.241  0.8316  0.3873  0.1608
15903TIP3   OH269199   6.583   2.637  16.045 -0.8592  0.0050  0.1461
15903TIP3    H169200   6.618   2.662  16.131 -0.0831 -0.0345 -0.1527
15903TIP3    H269201   6.604   2.544  16.038 -2.1810 -0.3377  0.5082
15904TIP3   OH269202   6.477   0.721  15.521 -0.5336 -0.0686  0.0307
15904TIP3    H169203   6.479   0.772  15.602  1.1214 -0.1926  0.0875
15904TIP3    H269204   6.568   0.697  15.506 -1.3272 -3.3688  0.2117
15905TIP3   OH269205   2.772   0.536   0.654  0.8138  0.2572 -0.4439
15905TIP3    H169206   2.849   0.583   0.687  0.9835  0.3939 -1.0256
15905TIP3    H269207   2.781   0.538   0.559  0.4974 -0.4152 -0.4956
15906TIP3   OH269208   0.996   4.334  16.165 -0.5392 -0.1225  0.0075
15906TIP3    H169209   0.912   4.294  16.186 -1.1769  1.8235  1.3100
15906TIP3    H269210   0.977   4.427  16.156  1.4010  0.2975 -0.0880
15907TIP3   OH269211   6.670   4.018  13.630 -0.2637 -0.1066 -0.5276
15907TIP3    H169212   6.706   4.107  13.637  1.0393 -0.7443  1.0084
15907TIP3    H269213   6.578   4.028  13.655  0.4285  0.4451  1.9323
15908TIP3   OH269214   2.353   6.805  13.555  0.0881  0.2902  0.3662
15908TIP3    H169215   2.440   6.835  13.581  0.7370  0.1716 -1.5617
15908TIP3    H269216   2.370   6.730  13.498 -1.3850 -1.5980  2.3119
15909TIP3   OH269217   3.719   2.729   2.021  0.0041 -0.0516 -0.3970
15909TIP3    H169218   3.740   2.817   2.054  0.9903 -0.3326 -0.2792
15909TIP3    H269219   3.796   2.677   2.040  0.0415 -0.5680 -1.8809
15910TIP3   OH269220   2.175   4.968   3.753 -0.0503  0.4029 -0.3084
15910TIP3    H169221   2.079   4.962   3.748 -0.1313  1.3930  0.0055
15910TIP3    H269222   2.197   4.926   3.836 -0.3396  1.5140  0.3356
15911TIP3   OH269223   2.272   3.496   1.606 -0.4939  0.0954 -0.2914
15911TIP3    H169224   2.346   3.542   1.566 -0.4333  0.4084  0.1808
15911TIP3    H269225   2.238   3.441   1.536  0.1555 -0.0116 -0.5260
15912TIP3   OH269226   2.965   3.294   5.523 -0.6515  0.2052 -0.0809
15912TIP3    H169227   3.012   3.334   5.596  0.3069  1.3476 -1.3059
15912TIP3    H269228   2.894   3.244   5.565  0.4333  0.0877  1.6634
15913TIP3   OH269229   2.131   6.633   1.583  0.0460 -0.3787  0.0022
15913TIP3    H169230   2.133   6.684   1.502  1.3697 -0.6566 -0.1512
15913TIP3    H269231   2.222   6.606   1.596  0.3001  1.5555  2.7479
15914TIP3   OH269232   6.585   4.383  16.198  0.2020 -0.1300  0.5572
15914TIP3    H169233   6.528   4.455  16.170 -1.5273 -1.7382 -0.1721
15914TIP3    H269234   6.636   4.419  16.270 -0.4954  1.8850  0.0690
15915TIP3   OH269235   4.000   0.504  15.531 -0.3387  0.0755  0.5051
15915TIP3    H169236   3.979   0.420  15.573 -1.0089  1.1308  2.3398
15915TIP3    H269237   3.916   0.549  15.524 -0.0618  0.3856 -0.9783
15916TIP3   OH269238   4.568   1.960  12.543 -0.2341  0.1237  0.0215
15916TIP3    H169239   4.590   1.906  12.467 -2.0767  1.8109 -1.7617
15916TIP3    H269240   4.535   1.898  12.608 -0.7494 -1.1086 -1.3890
15917TIP3   OH269241   2.954   2.398  15.082  0.2355 -0.1899 -0.0881
15917TIP3    H169242   2.984   2.455  15.153  0.6766 -0.9613  0.3609
15917TIP3    H269243   3.034   2.363  15.044  0.0153  0.5625 -1.2646
15918TIP3   OH269244   4.208   3.123   0.138 -0.4903  0.8972  0.9839
15918TIP3    H169245   4.186   3.207   0.098  1.1796  0.1397 -1.6021
15918TIP3    H269246   4.125   3.075   0.138 -1.0504  1.8455  0.7467
15919TIP3   OH269247   3.390   5.196   3.003 -0.5815 -0.3491  0.0931
15919TIP3    H169248   3.309   5.172   3.047  0.0908 -1.5020  0.7473
15919TIP3    H269249   3.458   5.148   3.051  0.4442  0.3470 -0.6413
15920TIP3   OH269250   2.054   5.669  15.642 -0.1613 -0.0779 -0.3694
15920TIP3    H169251   2.081   5.607  15.575  1.1021  0.0567  0.0088
15920TIP3    H269252   2.037   5.750  15.594 -1.6452 -0.6530 -0.8351
15921TIP3   OH269253   5.636   0.542   6.132  0.3014 -0.2371 -0.0444
15921TIP3    H169254   5.607   0.608   6.070 -0.8495  0.0179  0.7565
15921TIP3    H269255   5.604   0.459   6.096 -1.7811  0.0775  1.0156
15922TIP3   OH269256   3.462   4.581   1.536  0.6439 -0.2045  0.3611
15922TIP3    H169257   3.388   4.554   1.481  0.0508 -0.4520  1.2735
15922TIP3    H269258   3.497   4.499   1.570  0.2906  0.0139  1.2691
15923TIP3   OH269259   3.473   3.259  13.994 -0.0387  0.1218  0.4846
15923TIP3    H169260   3.513   3.191  13.940 -2.2023 -1.2816  0.5865
15923TIP3    H269261   3.526   3.261  14.074 -1.6962 -3.6773  1.8202
15924TIP3   OH269262   3.037   1.598  12.199 -0.1213 -0.5227  0.2660
15924TIP3    H169263   3.117   1.649  12.213 -0.1339 -0.4773  0.1752
15924TIP3    H269264   3.056   1.544  12.122 -0.2347 -0.3932  0.1449
15925TIP3   OH269265   0.812   1.152   4.124 -0.3482 -0.0051  0.3821
15925TIP3    H169266   0.856   1.153   4.039 -1.6781  0.3971 -0.3256
15925TIP3    H269267   0.871   1.199   4.183  1.3803 -1.7718  0.1009
15926TIP3   OH269268   5.594   5.144  17.268  0.5493 -0.3701 -0.3412
15926TIP3    H169269   5.663   5.188  17.317  1.6705 -0.0063 -2.2173
15926TIP3    H269270   5.638   5.070  17.225 -0.3936 -0.6490 -0.8436
15927TIP3   OH269271   5.429   5.520   0.438 -0.3964  0.0923  0.6304
15927TIP3    H169272   5.409   5.527   0.344  0.4374 -1.3556  0.3427
15927TIP3    H269273   5.513   5.565   0.448  0.3143 -1.1636  0.3949
15928TIP3   OH269274   2.397   3.340  12.274  0.2262  0.3386 -0.2676
15928TIP3    H169275   2.454   3.411  12.242 -1.0598  1.7244  0.4503
15928TIP3    H269276   2.449   3.296  12.341  1.3724  0.0194 -1.3365
15929TIP3   OH269277   5.864   0.175   6.204  0.1690  0.0386  0.1969
15929TIP3    H169278   5.785   0.138   6.165 -1.1945  0.0825  2.8639
15929TIP3    H269279   5.917   0.099   6.228 -0.4757 -0.0854  1.2562
15930TIP3   OH269280   5.966   0.823   5.878  0.1347 -0.0726  0.3982
15930TIP3    H169281   5.899   0.828   5.810  1.5601 -1.0081 -1.1009
15930TIP3    H269282   5.917   0.800   5.957 -1.6767  1.9502 -0.0731
15931TIP3   OH269283   2.320   1.558  16.160  0.2798 -0.5067  0.5678
15931TIP3    H169284   2.314   1.630  16.223 -1.4817  0.4803 -0.6737
15931TIP3    H269285   2.303   1.479  16.212  1.3276  0.0474  1.7733
15932TIP3   OH269286   6.311   0.172   4.598 -0.0047 -0.2167  0.2790
15932TIP3    H169287   6.380   0.207   4.653  0.0089 -0.2698  0.2962
15932TIP3    H269288   6.249   0.244   4.587 -0.2683 -0.3646  0.7895
15933TIP3   OH269289   4.189   6.759   4.344 -0.2522  0.2885  0.5425
15933TIP3    H169290   4.152   6.689   4.397 -0.7680  0.0468 -0.1241
15933TIP3    H269291   4.283   6.758   4.364 -0.3833 -0.0381  1.1606
15934TIP3   OH269292   0.477   5.965  13.649 -0.3472  0.0227 -0.5785
15934TIP3    H169293   0.405   5.913  13.614 -1.0065  0.9091 -0.5232
15934TIP3    H269294   0.494   6.031  13.582 -1.3707  1.4953  0.6012
15935TIP3   OH269295   1.720   2.203   0.218  0.4154 -0.1067  0.1125
15935TIP3    H169296   1.631   2.237   0.229  0.3982 -0.0233 -0.2781
15935TIP3    H269297   1.708   2.108   0.210  0.4445 -0.1857  0.9947
15936TIP3   OH269298   6.048   2.112   2.474  0.3828 -0.3893 -0.6039
15936TIP3    H169299   6.010   2.147   2.555 -0.6830 -0.3671 -1.1035
15936TIP3    H269300   6.140   2.097   2.495  0.4880  1.1503  0.1319
15937TIP3   OH269301   2.210   4.906  13.602  0.0550  0.6411  0.0159
15937TIP3    H169302   2.294   4.861  13.609 -0.5430 -0.7116 -1.3203
15937TIP3    H269303   2.226   4.992  13.641  2.2320  0.6514 -0.8409
15938TIP3   OH269304   5.499   1.015  11.833  0.9439  0.2221 -0.0942
15938TIP3    H169305   5.477   0.957  11.905  1.1929  0.4276  0.1508
15938TIP3    H269306   5.540   0.959  11.767 -1.3324 -0.3717 -1.0425
15939TIP3   OH269307   4.815   1.927  14.578 -0.0652 -0.3535 -0.3713
15939TIP3    H169308   4.749   1.961  14.638 -0.2148  1.5747 -1.5959
15939TIP3    H269309   4.765   1.893  14.504  0.2050 -1.0370 -0.2408
15940TIP3   OH269310   4.655   1.066   3.142 -0.2613  0.3265 -0.1323
15940TIP3    H169311   4.596   1.004   3.184  0.0890  1.1763  1.6523
15940TIP3    H269312   4.599   1.140   3.118 -0.2673  0.3101 -0.1688
15941TIP3   OH269313   2.547   6.195   3.330  0.0194 -0.1035  0.9405
15941TIP3    H169314   2.622   6.136   3.323  0.1063  0.0351  0.7117
15941TIP3    H269315   2.571   6.256   3.400  0.9090  1.0926 -0.3869
15942TIP3   OH269316   5.396   6.630   2.975  0.2210 -0.4030 -0.1925
15942TIP3    H169317   5.364   6.720   2.965 -0.5710 -0.7383 -0.7274
15942TIP3    H269318   5.471   6.638   3.034 -1.4151  0.2886  1.8653
15943TIP3   OH269319   4.955   2.886  15.915 -0.6753 -0.0570 -0.7343
15943TIP3    H169320   4.873   2.850  15.947 -0.9548 -0.0458 -1.4206
15943TIP3    H269321   4.964   2.851  15.826 -0.4887  0.8043 -1.0653
15944TIP3   OH269322   5.360   3.130   3.494  0.6257 -0.1749 -0.3112
15944TIP3    H169323   5.340   3.191   3.424 -2.5717  1.1448  1.6534
15944TIP3    H269324   5.388   3.186   3.567  1.5470 -1.3644  0.2782
15945TIP3   OH269325   6.214   3.460   6.702  0.5863 -0.3882 -0.5076
15945TIP3    H169326   6.307   3.446   6.685  0.6759  1.1128 -1.3471
15945TIP3    H269327   6.195   3.547   6.665 -0.9194 -0.2396  0.5400
15946TIP3   OH269328   5.295   1.089   2.455 -0.7600  0.0290 -0.7572
15946TIP3    H169329   5.204   1.059   2.451 -0.6296 -0.2137 -2.0319
15946TIP3    H269330   5.318   1.084   2.548 -1.5026 -1.5304 -0.6438
15947TIP3   OH269331   1.541   2.743   2.603  0.1709  0.1345 -0.5407
15947TIP3    H169332   1.460   2.781   2.636 -0.0380  0.1771 -1.1041
15947TIP3    H269333   1.609   2.807   2.628  0.0216  0.1568 -0.1795
15948TIP3   OH269334   4.525   6.142  17.121  0.0579 -0.8609  0.1104
15948TIP3    H169335   4.438   6.173  17.097 -0.3197 -2.2773 -0.3994
15948TIP3    H269336   4.574   6.222  17.142 -1.8765 -0.2036  2.2064
15949TIP3   OH269337   5.128   6.660   0.840  0.1125 -0.5161 -0.0836
15949TIP3    H169338   5.212   6.668   0.884 -0.4528 -0.5432  1.0185
15949TIP3    H269339   5.147   6.675   0.748  1.0665  1.0515  0.3626
15950TIP3   OH269340   4.744   2.780  12.277  0.5442 -0.1397  0.1957
15950TIP3    H169341   4.731   2.685  12.271  1.7167 -0.2002 -1.9305
15950TIP3    H269342   4.669   2.812  12.327 -0.7462 -2.0018 -0.5185
15951TIP3   OH269343   1.948   5.821  10.682  0.1435 -0.0510 -0.0294
15951TIP3    H169344   1.943   5.748  10.621  1.2959 -1.9270  2.0287
15951TIP3    H269345   1.985   5.783  10.762  0.4015  2.7034  1.2329
15952TIP3   OH269346   5.690   3.540  14.611 -0.2933  0.4786 -0.3200
15952TIP3    H169347   5.716   3.550  14.520  3.8263  1.0266  0.7693
15952TIP3    H269348   5.694   3.629  14.647 -1.4545  0.2065  0.5059
15953TIP3   OH269349   4.673   0.890  16.540 -0.0991  0.3616 -0.4709
15953TIP3    H169350   4.733   0.937  16.600 -2.3912 -0.6372  2.7582
15953TIP3    H269351   4.708   0.801  16.537 -1.4088 -0.2630  1.5392
15954TIP3   OH269352   0.004   5.476   0.366 -0.1385 -0.5175 -0.5517
15954TIP3    H169353  -0.050   5.446   0.293 -0.1448 -1.5831 -0.1159
15954TIP3    H269354  -0.034   5.435   0.443  0.3812 -0.0646 -0.0462
15955TIP3   OH269355   0.245   3.621   2.363 -0.3802 -0.5931  0.1859
15955TIP3    H169356   0.220   3.534   2.393 -0.5775 -0.6927 -0.2778
15955TIP3    H269357   0.332   3.609   2.325 -0.3980 -0.5792  0.1416
15956TIP3   OH269358   6.522   3.670  17.243 -0.4300  0.1692 -0.2555
15956TIP3    H169359   6.536   3.764  17.238  1.5515 -0.1061 -0.4417
15956TIP3    H269360   6.459   3.651  17.174 -2.6257  1.6342  1.2476
15957TIP3   OH269361   3.715   2.641  16.230  0.1759  0.4574 -0.0290
15957TIP3    H169362   3.781   2.699  16.267  1.4882 -0.8927 -0.2359
15957TIP3    H269363   3.731   2.642  16.136 -2.1369  2.6111 -0.4685
15958TIP3   OH269364   3.929   5.760   3.496 -0.1964 -0.1893  0.2747
15958TIP3    H169365   3.887   5.821   3.435 -1.3625  0.2508  1.5094
15958TIP3    H269366   3.988   5.814   3.548 -0.2723 -0.3324  0.5093
15959TIP3   OH269367   4.121   1.084  15.720 -0.0802 -0.0619  0.2151
15959TIP3    H169368   4.198   1.126  15.683 -1.4750  1.8895 -0.5863
15959TIP3    H269369   4.115   1.000  15.675 -0.3783  1.2474 -2.2908
15960TIP3   OH269370   1.106   6.052  13.848  0.0032 -0.0123  0.0308
15960TIP3    H169371   1.100   6.061  13.753  2.6320  0.8593 -0.0856
15960TIP3    H269372   1.035   6.107  13.882 -0.0523  0.8105 -1.3853
15961TIP3   OH269373   5.177   4.179   1.162 -0.1155  0.0482  0.2040
15961TIP3    H169374   5.162   4.113   1.093  1.3970  0.3353 -0.4088
15961TIP3    H269375   5.192   4.260   1.115 -1.6628  0.8078  0.9605
15962TIP3   OH269376   2.154   1.201  16.839  0.2256 -0.5544 -0.0280
15962TIP3    H169377   2.116   1.195  16.926  0.5436 -0.6139  0.1064
15962TIP3    H269378   2.084   1.238  16.785 -0.9516 -3.1373 -0.3569
15963TIP3   OH269379   4.322   0.921   1.070  0.3287 -0.0297 -0.2728
15963TIP3    H169380   4.382   0.885   1.135  0.3930  0.5528 -0.0086
15963TIP3    H269381   4.283   0.997   1.113 -0.4466 -0.2849 -0.5149
15964TIP3   OH269382   1.411   3.478   5.177 -0.6603  0.8282  0.1688
15964TIP3    H169383   1.387   3.499   5.087  0.2691  0.7164 -0.1092
15964TIP3    H269384   1.328   3.462   5.221 -1.1226  0.9641 -0.6512
15965TIP3   OH269385   3.390   3.294  11.526 -0.6281  0.3309 -0.0963
15965TIP3    H169386   3.443   3.271  11.603 -0.4475 -2.1824 -0.9470
15965TIP3    H269387   3.438   3.257  11.452 -2.1000  0.5438 -1.1696
15966TIP3   OH269388   4.187   0.862   1.658 -0.4162  0.3735  0.5805
15966TIP3    H169389   4.169   0.786   1.714 -0.1150 -0.5731 -0.5693
15966TIP3    H269390   4.166   0.832   1.570  0.3536  1.4175  0.0316
15967TIP3   OH269391   2.660   1.497   2.606 -0.5121 -0.4028  0.4785
15967TIP3    H169392   2.719   1.522   2.677  0.9101  0.0884 -0.8277
15967TIP3    H269393   2.700   1.418   2.568  0.1206  0.7323 -1.3106
15968TIP3   OH269394   0.673   4.682   3.267 -0.3835 -0.0425 -0.0057
15968TIP3    H169395   0.767   4.694   3.283  0.3181 -2.7658 -1.7312
15968TIP3    H269396   0.637   4.656   3.352  0.1677  2.1314  0.9346
15969TIP3   OH269397   6.706   6.130   4.205 -0.2940  0.3654  0.2227
15969TIP3    H169398   6.773   6.183   4.162  0.1212  0.3329  0.8198
15969TIP3    H269399   6.754   6.056   4.243 -0.7815 -0.0974 -0.0454
15970TIP3   OH269400   4.876   6.546  14.038  0.7458  0.5869  0.1177
15970TIP3    H169401   4.833   6.460  14.032 -0.7439  1.2636  0.7853
15970TIP3    H269402   4.855   6.588  13.955  1.4278  0.3317 -0.1847
15971TIP3   OH269403   1.331   3.252  17.188 -0.3102 -0.6308  0.0491
15971TIP3    H169404   1.249   3.208  17.165  0.2975 -1.4935 -0.4777
15971TIP3    H269405   1.373   3.268  17.104 -0.4052  0.7448  0.2424
15972TIP3   OH269406   3.740   5.030  12.457  0.0710 -0.1144 -0.3519
15972TIP3    H169407   3.741   4.996  12.546 -0.2426 -1.3738 -0.8274
15972TIP3    H269408   3.683   4.970  12.408 -3.4555  3.0807 -0.4125
15973TIP3   OH269409   2.338   0.613   0.363  0.0558  0.2357  0.3371
15973TIP3    H169410   2.420   0.636   0.321  0.6050  1.3185  1.9686
15973TIP3    H269411   2.301   0.696   0.393 -0.2715 -0.4960  2.0398
15974TIP3   OH269412   6.372   3.761  14.841  0.1942 -0.0917 -0.0743
15974TIP3    H169413   6.293   3.806  14.812  0.2841 -1.3225 -2.3304
15974TIP3    H269414   6.341   3.674  14.867  0.7628 -0.4324 -0.5577
15975TIP3   OH269415   5.170   1.943  14.202  0.1684 -0.7058 -0.8135
15975TIP3    H169416   5.200   2.014  14.146 -0.6000 -0.9415 -1.5159
15975TIP3    H269417   5.247   1.887  14.213  1.6484  1.7495  2.1591
15976TIP3   OH269418   0.850   6.538   4.022 -0.9075  0.3981  0.0134
15976TIP3    H169419   0.797   6.545   3.943 -0.3402 -0.6948 -0.4783
15976TIP3    H269420   0.803   6.475   4.077 -1.0042  0.7141  0.2871
15977TIP3   OH269421   4.461   6.431   2.624 -0.6196 -0.1304 -0.0792
15977TIP3    H169422   4.447   6.524   2.640  0.6342  0.4032 -1.9363
15977TIP3    H269423   4.384   6.404   2.574 -1.8304 -0.5232  1.9366
15978TIP3   OH269424   4.018   1.155  11.133  0.1974 -0.1605  0.1408
15978TIP3    H169425   4.024   1.232  11.076  0.6649  0.5980  1.2002
15978TIP3    H269426   4.078   1.092  11.093 -2.3381 -1.0898 -2.3864
15979TIP3   OH269427   3.787   3.131   4.305  0.1971  0.6000  0.5564
15979TIP3    H169428   3.795   3.057   4.365 -0.9505 -1.6930 -1.9902
15979TIP3    H269429   3.857   3.117   4.240 -0.4076  1.4186 -0.2885
15980TIP3   OH269430   0.843   3.579  11.774 -0.8723 -0.2246 -0.4615
15980TIP3    H169431   0.756   3.598  11.737 -0.5990 -0.0723 -1.0332
15980TIP3    H269432   0.902   3.584  11.699  0.0944  2.7404  0.4402
15981TIP3   OH269433   0.145   5.154   1.931 -0.1731  0.3292 -0.3742
15981TIP3    H169434   0.095   5.234   1.942 -1.6164 -0.4734 -0.9552
15981TIP3    H269435   0.219   5.178   1.876  0.7159  1.7778  1.3953
15982TIP3   OH269436   6.334   0.066  11.762 -0.2103 -0.5443  0.5567
15982TIP3    H169437   6.343   0.153  11.801 -0.2995  0.0292 -0.6656
15982TIP3    H269438   6.418   0.050  11.719 -0.4021 -0.8087  0.2781
15983TIP3   OH269439   2.029   5.283  13.858  0.4391 -0.3281 -0.0319
15983TIP3    H169440   2.024   5.205  13.912  0.9668  1.0566  2.0846
15983TIP3    H269441   1.938   5.310  13.845  0.3728  0.3607  1.7503
15984TIP3   OH269442   5.474   2.836   3.442  0.5913 -0.1383  0.2651
15984TIP3    H169443   5.487   2.786   3.523 -0.4820 -0.5173  0.2146
15984TIP3    H269444   5.447   2.923   3.472  0.6860 -0.1285  0.3224
15985TIP3   OH269445   2.026   1.058  15.866  0.0571  0.0039 -0.2286
15985TIP3    H169446   2.049   1.006  15.943  0.2172  0.9585  0.3862
15985TIP3    H269447   2.057   1.007  15.792  0.5966 -0.5759  0.3915
15986TIP3   OH269448   0.514   6.776  14.998 -0.1479 -0.3695  0.5166
15986TIP3    H169449   0.473   6.739  15.077 -0.3116 -1.7066 -0.1751
15986TIP3    H269450   0.608   6.776  15.018 -0.2211 -0.3261  0.8696
15987TIP3   OH269451   1.069   3.641  11.608  0.0593  0.0046  0.5375
15987TIP3    H169452   1.090   3.734  11.605  1.7524 -0.3895  0.0391
15987TIP3    H269453   1.065   3.614  11.516 -2.2201 -0.0445  0.6069
15988TIP3   OH269454   6.673   4.981  15.883 -0.2595  0.3895  0.5523
15988TIP3    H169455   6.648   4.901  15.837  1.1180  0.0019  0.4574
15988TIP3    H269456   6.652   5.052  15.822 -2.0880  0.1672  0.8931
15989TIP3   OH269457   3.482   5.084   6.132 -0.6018 -0.2608  0.0889
15989TIP3    H169458   3.500   5.162   6.078 -1.2574 -2.4661 -3.4346
15989TIP3    H269459   3.567   5.042   6.141 -1.0727 -1.8512 -2.4552
15990TIP3   OH269460   3.960   3.167   6.527  0.3597 -0.1232 -0.0226
15990TIP3    H169461   4.055   3.170   6.537  0.3238  0.7458  0.0864
15990TIP3    H269462   3.932   3.096   6.585  0.8664  0.1093  0.5093
15991TIP3   OH269463   0.322   0.940   4.168  0.5261 -0.6075 -0.2078
15991TIP3    H169464   0.332   0.845   4.161  2.9299 -0.3161 -1.1916
15991TIP3    H269465   0.402   0.970   4.211  0.9397  1.2145 -2.1414
15992TIP3   OH269466   5.821   4.236   1.257 -0.2804  0.5008  0.3886
15992TIP3    H169467   5.771   4.310   1.224 -2.0833 -0.7033  0.3702
15992TIP3    H269468   5.811   4.168   1.189  2.8338  0.8060 -0.4700
15993TIP3   OH269469   1.008   3.521  15.561 -0.6176 -0.7088 -0.0574
15993TIP3    H169470   1.066   3.534  15.636 -1.0534 -0.0599  0.1750
15993TIP3    H269471   1.051   3.454  15.508  0.4266 -0.1226  0.0314
15994TIP3   OH269472   6.485   3.609   1.494  0.4359  0.2445  0.3871
15994TIP3    H169473   6.398   3.633   1.463 -0.2971 -0.6017  1.7496
15994TIP3    H269474   6.509   3.680   1.554  1.2040  1.0860 -0.8808
15995TIP3   OH269475   5.135   3.729   3.220 -0.1956 -0.2674  0.1970
15995TIP3    H169476   5.118   3.734   3.126 -1.2054 -1.5252  0.3020
15995TIP3    H269477   5.172   3.642   3.233 -0.3072 -0.1953  1.0142
15996TIP3   OH269478   5.798   1.386  11.178  0.3561 -0.1911 -0.1145
15996TIP3    H169479   5.766   1.417  11.262 -0.0112  1.1889 -0.7515
15996TIP3    H269480   5.725   1.337  11.140  1.3583 -3.0308  1.4504
15997TIP3   OH269481   0.597   1.292  14.354  0.0626  0.6567  0.3566
15997TIP3    H169482   0.588   1.306  14.259 -0.1824 -2.2869 -0.0881
15997TIP3    H269483   0.690   1.275  14.367 -0.2027 -0.8966  0.3322
15998TIP3   OH269484   5.981   6.378  11.008 -0.0270 -0.4813 -0.0244
15998TIP3    H169485   5.889   6.402  10.999  0.2363  0.1509 -1.2225
15998TIP3    H269486   6.014   6.377  10.918  1.0737 -0.9309  0.3773
15999TIP3   OH269487   0.675   2.275   0.801  0.0084  0.3182  0.1617
15999TIP3    H169488   0.627   2.222   0.738  0.1740  0.2715  0.0733
15999TIP3    H269489   0.621   2.353   0.813 -0.1169  0.2402  0.1062
16000TIP3   OH269490   1.553   2.165   0.583 -0.7362 -0.4674  0.3311
16000TIP3    H169491   1.553   2.200   0.494 -0.3193  0.8510  0.8335
16000TIP3    H269492   1.506   2.230   0.635 -1.3611 -1.4378  1.0053
16001TIP3   OH269493   2.425   5.546   5.714  0.4975 -0.2655 -0.0087
16001TIP3    H169494   2.509   5.591   5.711  0.4178 -0.2379 -3.2237
16001TIP3    H269495   2.445   5.460   5.749  1.5359  0.3914  1.0556
16002TIP3   OH269496   0.106   1.761  16.900  0.3208 -0.0865 -0.2150
16002TIP3    H169497   0.070   1.844  16.868  0.6664 -0.0930 -0.6222
16002TIP3    H269498   0.037   1.697  16.882 -0.4046  0.2980  1.1216
16003TIP3   OH269499   0.874   3.576  15.871 -0.0057  0.0465  0.0636
16003TIP3    H169500   0.800   3.517  15.885 -0.3825 -0.0760 -2.1406
16003TIP3    H269501   0.950   3.518  15.864 -0.6504 -0.4557 -4.0984
16004TIP3   OH269502   6.215   3.979   6.249  0.5878 -0.0096  0.0616
16004TIP3    H169503   6.157   3.922   6.299 -0.7107  3.2217  2.4550
16004TIP3    H269504   6.157   4.035   6.198  1.6220  1.7694  0.7708
16005TIP3   OH269505   4.168   5.746  16.431  0.1143 -0.7777  0.2057
16005TIP3    H169506   4.093   5.801  16.454  0.9231  0.5703 -0.3328
16005TIP3    H269507   4.244   5.800  16.451  0.9798 -2.3732  1.3477
16006TIP3   OH269508   1.834   0.482  12.622  0.3192  0.8262  1.1285
16006TIP3    H169509   1.749   0.439  12.612  0.0196  1.5462  0.5701
16006TIP3    H269510   1.840   0.541  12.547  2.6653 -1.4637 -0.5610
16007TIP3   OH269511   4.338   6.740   5.503  0.2035  0.7074  0.0205
16007TIP3    H169512   4.378   6.827   5.500 -0.1912  0.8623 -1.2379
16007TIP3    H269513   4.409   6.681   5.477  0.3972  0.6734  0.6145
16008TIP3   OH269514   4.787   6.005  15.020 -0.6478  0.2775  0.5296
16008TIP3    H169515   4.704   6.000  14.974 -0.7368  0.5485  0.6602
16008TIP3    H269516   4.780   6.083  15.075 -1.5842 -1.5465  3.0474
16009TIP3   OH269517   3.403   4.678   1.207 -0.1937 -0.4821 -0.1015
16009TIP3    H169518   3.406   4.684   1.302  2.4489  1.5907 -0.2880
16009TIP3    H269519   3.489   4.646   1.182  0.4005  2.4397 -2.0017
16010TIP3   OH269520   0.475   2.827   4.477  0.0821  0.6271  0.2512
16010TIP3    H169521   0.402   2.857   4.422  0.0007  2.2806  1.2005
16010TIP3    H269522   0.436   2.817   4.564  0.6092 -0.1932  0.3918
16011TIP3   OH269523   3.126   0.818  15.335 -0.0493  0.1010  0.1180
16011TIP3    H169524   3.200   0.775  15.378  0.3400 -0.4165 -1.0562
16011TIP3    H269525   3.129   0.787  15.245 -0.3582  1.8551 -0.5073
16012TIP3   OH269526   4.342   0.822   2.970 -0.0307  0.1014 -0.7240
16012TIP3    H169527   4.414   0.810   2.908  0.2862  1.2362 -0.5841
16012TIP3    H269528   4.383   0.818   3.056 -0.7347 -3.4217 -0.4656
16013TIP3   OH269529   0.696   6.517   4.846 -0.2996  0.3170  0.4561
16013TIP3    H169530   0.717   6.447   4.907 -0.0733  1.9068  2.2171
16013TIP3    H269531   0.740   6.595   4.881 -0.6606  1.3867 -1.3830
16014TIP3   OH269532   0.093   0.640   3.459  0.1395  0.8638 -0.7428
16014TIP3    H169533  -0.002   0.647   3.452  0.0220  0.6705  0.5514
16014TIP3    H269534   0.112   0.663   3.550  1.1717 -0.6694 -0.5441
16015TIP3   OH269535   3.056   3.492  14.074 -0.1890  0.4050 -0.0437
16015TIP3    H169536   3.120   3.463  14.008  0.3732 -0.8775  1.0332
16015TIP3    H269537   3.106   3.553  14.129  0.6634 -1.8621  1.8087
16016TIP3   OH269538   5.148   3.728   5.201 -0.4514  0.1123 -0.2155
16016TIP3    H169539   5.086   3.655   5.198 -0.3143 -0.1295  1.8192
16016TIP3    H269540   5.213   3.701   5.266 -1.8130  3.0884  2.5247
16017TIP3   OH269541   4.336   6.577  12.316 -0.1359  0.2338 -0.8182
16017TIP3    H169542   4.257   6.548  12.363 -0.3418 -0.1715 -1.4123
16017TIP3    H269543   4.341   6.520  12.240  0.8879  0.0811 -0.6437
16018TIP3   OH269544   3.756   1.685  11.339  0.1153  0.1237  0.7330
16018TIP3    H169545   3.810   1.741  11.284 -1.5207  0.7043 -0.3431
16018TIP3    H269546   3.737   1.739  11.416 -1.2325  1.0118 -0.1800
16019TIP3   OH269547   0.384   2.667   3.241 -0.0545  0.0071  0.2778
16019TIP3    H169548   0.397   2.703   3.329  1.4861 -1.8765  0.8493
16019TIP3    H269549   0.469   2.675   3.199 -0.5196 -0.0573 -0.6899
16020TIP3   OH269550   2.821   4.264  15.302  0.4432 -0.3189  0.3990
16020TIP3    H169551   2.829   4.239  15.394 -0.7933 -0.6548  0.4218
16020TIP3    H269552   2.804   4.358  15.304  1.3039 -0.1633  0.4746
16021TIP3   OH269553   1.909   0.335  15.226 -0.0987 -0.3587  0.0666
16021TIP3    H169554   1.866   0.250  15.233  0.1420 -0.6223 -1.4589
16021TIP3    H269555   1.868   0.376  15.150  1.4212 -0.0745 -0.6098
16022TIP3   OH269556   5.985   2.538  12.720 -0.2130  0.3187 -0.0871
16022TIP3    H169557   5.988   2.445  12.699  1.9700 -0.2654  2.5615
16022TIP3    H269558   5.912   2.546  12.783  1.1909 -0.0719  1.6295
16023TIP3   OH269559   3.192   4.032   5.140 -0.1709 -0.0343  0.1978
16023TIP3    H169560   3.212   3.998   5.053  0.0175  0.0752  0.1985
16023TIP3    H269561   3.138   3.964   5.180 -0.4191  0.0024 -0.0743
16024TIP3   OH269562   3.936   1.721  16.819 -0.4001 -0.3125 -0.5838
16024TIP3    H169563   3.934   1.809  16.782 -0.5324 -0.0674 -0.0092
16024TIP3    H269564   3.847   1.707  16.853 -0.0183 -0.1342  0.5227
16025TIP3   OH269565   0.358   5.280  12.226 -0.1108  0.0644 -0.0368
16025TIP3    H169566   0.430   5.219  12.209 -0.7319 -0.5988 -0.3303
16025TIP3    H269567   0.395   5.344  12.286  1.1409  0.5295 -1.2593
16026TIP3   OH269568   6.564   6.579   1.203 -0.1778  0.2460 -0.4921
16026TIP3    H169569   6.648   6.603   1.242 -0.7638 -0.4211  1.2412
16026TIP3    H269570   6.515   6.538   1.275 -1.5635 -0.3837 -1.7672
16027TIP3   OH269571   1.092   4.262  15.922 -0.5278 -0.2224  0.4313
16027TIP3    H169572   1.061   4.287  16.009 -0.6824 -1.2790  0.6843
16027TIP3    H269573   1.013   4.251  15.870 -0.4343  0.4218  0.1514
16028TIP3   OH269574   3.225   6.648   1.592 -0.2701  0.1616  0.0141
16028TIP3    H169575   3.170   6.688   1.660 -2.2876 -0.4174 -1.2264
16028TIP3    H269576   3.173   6.574   1.560  1.4073 -0.6142 -0.9637
16029TIP3   OH269577   0.765   6.164   6.427  0.1445 -0.5717  0.0051
16029TIP3    H169578   0.718   6.247   6.438 -0.8540 -0.8445 -2.0476
16029TIP3    H269579   0.856   6.185   6.449 -0.7592  0.1048  3.4427
16030TIP3   OH269580   5.282   5.678  11.548  0.3593  0.5175 -0.8807
16030TIP3    H169581   5.266   5.602  11.604 -0.3878  1.7845  0.7115
16030TIP3    H269582   5.362   5.658  11.501  0.0579 -1.3259 -0.6439
16031TIP3   OH269583   3.583   2.079   5.935  0.4326 -0.2082  0.0343
16031TIP3    H169584   3.592   2.099   5.842 -1.3276  3.8097  0.6481
16031TIP3    H269585   3.489   2.070   5.949  0.5924  0.4426  1.6489
16032TIP3   OH269586   5.020   6.500   1.748 -0.0480 -0.1911 -0.0527
16032TIP3    H169587   5.079   6.447   1.695  0.1652  1.0029 -1.0194
16032TIP3    H269588   5.076   6.543   1.812  0.2518  1.5837 -1.4935
16033TIP3   OH269589   4.498   2.788   2.023 -0.5097 -0.1127  0.7382
16033TIP3    H169590   4.548   2.780   2.104  1.0733 -2.8768 -0.4320
16033TIP3    H269591   4.413   2.748   2.043  0.6975 -2.9140  0.4115
16034TIP3   OH269592   6.311   2.766   5.067  0.4207  0.3263  0.0476
16034TIP3    H169593   6.232   2.766   5.012 -0.2361 -0.9587  0.9410
16034TIP3    H269594   6.367   2.699   5.027 -0.0191 -0.5442  0.8598
16035TIP3   OH269595   5.220   4.012  14.786 -0.4053  0.4529 -0.4618
16035TIP3    H169596   5.266   3.932  14.811 -1.5838  0.0162  0.3238
16035TIP3    H269597   5.153   3.983  14.725 -1.7000  0.6473  0.8458
16036TIP3   OH269598   2.154   6.729   4.431  0.0924  0.2344  0.1028
16036TIP3    H169599   2.233   6.779   4.411  0.9028 -0.8756  0.4533
16036TIP3    H269600   2.102   6.732   4.350  1.2128 -0.3276 -0.6485
16037TIP3   OH269601   6.059   2.496   4.066 -0.0181 -0.4812 -0.0974
16037TIP3    H169602   6.018   2.493   4.152 -1.7924 -1.7380 -0.9412
16037TIP3    H269603   6.099   2.583   4.061 -0.0154 -0.3558  1.9294
16038TIP3   OH269604   5.135   6.140  14.675 -0.8996 -0.1130  0.3570
16038TIP3    H169605   5.103   6.068  14.621 -1.2826  0.0714  0.3334
16038TIP3    H269606   5.059   6.199  14.684 -0.1773  1.0222 -0.8526
16039TIP3   OH269607   2.900   1.063  16.700  0.3417  0.1824  0.5260
16039TIP3    H169608   2.983   1.108  16.710  0.5421 -0.2729  0.9143
16039TIP3    H269609   2.855   1.075  16.784  0.4927 -0.5354  0.7138
16040TIP3   OH269610   3.950   3.512   1.762  0.1022 -0.3159  0.3485
16040TIP3    H169611   3.869   3.460   1.768  1.3503 -2.8375 -2.8923
16040TIP3    H269612   4.017   3.455   1.800  1.1619 -0.4050 -1.5601
16041TIP3   OH269613   0.971   0.620  15.701 -0.0093 -0.2258 -0.6430
16041TIP3    H169614   0.921   0.671  15.764  0.1633 -2.1467  1.0716
16041TIP3    H269615   1.043   0.678  15.675  0.2105  0.3996  1.3036
16042TIP3   OH269616   1.203   3.581  13.010 -0.0500  0.3269 -0.4333
16042TIP3    H169617   1.192   3.486  13.009  0.1713  0.2442  2.0714
16042TIP3    H269618   1.115   3.615  13.025 -0.2980  0.5917 -2.3387
16043TIP3   OH269619   1.994   0.909  11.935 -0.4008 -0.6042  0.0256
16043TIP3    H169620   1.901   0.920  11.956 -0.9718  1.2085 -3.1447
16043TIP3    H269621   1.996   0.841  11.869  0.3960  0.2104 -0.8087
16044TIP3   OH269622   2.131   4.097  17.248 -0.3888  0.0031  0.2326
16044TIP3    H169623   2.192   4.075  17.319  0.0144  0.2246 -0.0433
16044TIP3    H269624   2.094   4.181  17.275  0.3151  0.4490 -0.1712
16045TIP3   OH269625   1.679   2.221  13.446 -0.2580 -0.1505  0.0794
16045TIP3    H169626   1.736   2.296  13.430 -0.4458  0.1698  0.8649
16045TIP3    H269627   1.608   2.230  13.382 -0.5658  0.6511  0.5228
16046TIP3   OH269628   2.587   5.764  12.205 -0.2641 -0.3090  0.4855
16046TIP3    H169629   2.619   5.701  12.140  0.3538 -0.9463  1.3958
16046TIP3    H269630   2.518   5.716  12.252  0.0200 -0.2118  0.9995
16047TIP3   OH269631   4.464   2.958  17.281  0.0038  0.4265 -0.2205
16047TIP3    H169632   4.429   3.038  17.242  0.8230 -0.0411 -1.9523
16047TIP3    H269633   4.388   2.900  17.288 -0.7500  1.6041  1.7634
16048TIP3   OH269634   4.174   0.782   3.337  0.1266  0.3038  0.3176
16048TIP3    H169635   4.120   0.855   3.367 -0.6526  0.6193 -1.7760
16048TIP3    H269636   4.254   0.823   3.304 -0.3860  0.2573 -1.0281
16049TIP3   OH269637   6.172   3.039   4.156 -0.0685 -0.1993 -0.3319
16049TIP3    H169638   6.266   3.055   4.148 -0.2950  1.1865 -0.3917
16049TIP3    H269639   6.153   3.051   4.249 -0.9451  4.2321 -0.9355
16050TIP3   OH269640   5.409   1.258   4.217  0.3332  0.8030 -0.0981
16050TIP3    H169641   5.475   1.274   4.285  0.0029 -1.8804  0.9156
16050TIP3    H269642   5.348   1.331   4.226  0.2269  0.4283  2.6092
16051TIP3   OH269643   4.147   2.684   1.707 -0.0471 -0.1882 -0.6527
16051TIP3    H169644   4.084   2.749   1.739  1.0224  0.0210  1.1008
16051TIP3    H269645   4.117   2.601   1.745  1.7784  0.2163  1.7887
16052TIP3   OH269646   4.568   2.912   5.641 -0.0375 -0.6079  0.1883
16052TIP3    H169647   4.524   2.865   5.571 -1.1455 -0.8744  1.0475
16052TIP3    H269648   4.505   2.977   5.670  1.2385  0.9949 -0.5417
16053TIP3   OH269649   1.061   2.189  14.778  0.2427 -0.2950 -0.2021
16053TIP3    H169650   0.966   2.178  14.766  0.2388 -0.6044  0.1130
16053TIP3    H269651   1.099   2.111  14.739  0.4010  0.0672 -0.7788
16054TIP3   OH269652   4.629   2.258  12.670  0.2451  0.3014  0.1810
16054TIP3    H169653   4.642   2.170  12.633 -0.2415  0.4526 -0.3597
16054TIP3    H269654   4.656   2.250  12.761 -2.3900 -1.1039  0.8813
16055TIP3   OH269655   4.829   2.279   5.039 -0.9965  0.3332 -0.2728
16055TIP3    H169656   4.870   2.290   5.125 -1.2735  0.3212 -0.1380
16055TIP3    H269657   4.737   2.261   5.059 -1.1667  0.8347 -0.5820
16056TIP3   OH269658   1.054   1.123  11.512  0.3247  0.3421 -0.2827
16056TIP3    H169659   1.018   1.078  11.436  1.9179 -0.0180 -0.8553
16056TIP3    H269660   0.988   1.111  11.581 -1.0244  0.4793 -1.5323
16057TIP3   OH269661   3.699   1.024   2.358 -0.1054  0.2678 -0.1739
16057TIP3    H169662   3.715   1.085   2.430  3.4307 -1.3133  0.5017
16057TIP3    H269663   3.657   1.077   2.290 -1.8407  2.1942  2.3294
16058TIP3   OH269664   4.689   4.191  16.517  0.0801 -0.0415 -0.1990
16058TIP3    H169665   4.775   4.157  16.492  1.5658  1.3498  2.7786
16058TIP3    H269666   4.655   4.126  16.579 -1.2145 -0.7669 -1.6417
16059TIP3   OH269667   0.575   2.480  11.108 -0.2273  0.4808  0.1191
16059TIP3    H169668   0.648   2.420  11.096  1.2475  2.4410 -0.9821
16059TIP3    H269669   0.499   2.431  11.075  0.9251 -0.8031 -0.7113
16060TIP3   OH269670   5.315   0.204  14.846  0.3775 -0.2043  0.4494
16060TIP3    H169671   5.322   0.143  14.772 -3.0624 -0.2273  0.0745
16060TIP3    H269672   5.355   0.157  14.919 -0.9317 -2.3861 -0.1662
16061TIP3   OH269673   2.328   3.376   2.866 -0.1354 -0.1867  0.3074
16061TIP3    H169674   2.266   3.410   2.930 -0.3535  0.4946 -0.2649
16061TIP3    H269675   2.275   3.323   2.806  0.0689 -0.8262  0.6838
16062TIP3   OH269676   4.921   2.114  17.139  0.1597  0.3461 -0.0986
16062TIP3    H169677   5.000   2.069  17.107  1.8333  1.9772  1.6115
16062TIP3    H269678   4.894   2.170  17.066  0.2881 -0.5667 -0.8623
16063TIP3   OH269679   4.414   4.731   2.676  0.2670  0.0538  0.2371
16063TIP3    H169680   4.327   4.747   2.638  0.4997 -0.6677 -0.6224
16063TIP3    H269681   4.450   4.819   2.691  0.5988  0.3727 -2.2482
16064TIP3   OH269682   4.289   2.030   4.274  0.1295  0.1756 -0.3500
16064TIP3    H169683   4.201   2.002   4.249  0.2403 -0.0955 -0.4401
16064TIP3    H269684   4.346   1.992   4.208  0.4548 -0.7994  0.4719
16065TIP3   OH269685   4.461   3.330  10.930  0.5190 -0.3288  0.3705
16065TIP3    H169686   4.424   3.344  10.843 -1.4417 -0.8428  1.1073
16065TIP3    H269687   4.385   3.317  10.987  1.7961 -0.4176  2.0851
16066TIP3   OH269688   5.700   2.256   0.837  0.0470 -0.1086  0.5059
16066TIP3    H169689   5.706   2.349   0.860  1.5635 -0.3832  1.3216
16066TIP3    H269690   5.702   2.255   0.741  4.0813  0.5403  0.4734
16067TIP3   OH269691   2.209   1.824   0.530 -0.0803 -0.2199  0.2251
16067TIP3    H169692   2.137   1.863   0.481  0.8626 -0.9920 -1.8306
16067TIP3    H269693   2.283   1.883   0.516  0.3413 -0.7323  0.2697
16068TIP3   OH269694   5.939   5.870  13.581  0.4587  0.0624 -0.7107
16068TIP3    H169695   5.958   5.887  13.489 -0.0078  0.2845 -0.7657
16068TIP3    H269696   6.016   5.823  13.613  0.9564  0.6572 -1.0167
16069TIP3   OH269697   2.263   3.373   1.350 -0.1363  0.3160 -0.1154
16069TIP3    H169698   2.189   3.315   1.332 -0.6362  1.4669 -1.8919
16069TIP3    H269699   2.327   3.352   1.282  0.6268  0.2205  0.6349
16070TIP3   OH269700   4.862   2.688  11.336 -0.0867 -0.0643 -0.6638
16070TIP3    H169701   4.818   2.771  11.353  0.8388  0.3143 -0.1017
16070TIP3    H269702   4.929   2.681  11.404  1.9103  0.2323 -2.5331
16071TIP3   OH269703   2.577   2.825  10.980  0.2830 -0.0956  0.5486
16071TIP3    H169704   2.611   2.898  10.928  0.2801  1.0275  2.1057
16071TIP3    H269705   2.640   2.814  11.051  0.8579 -2.3209 -0.2504
16072TIP3   OH269706   0.285   4.704   0.330 -0.0598  0.2803  0.4786
16072TIP3    H169707   0.381   4.702   0.326 -0.0041  3.4510 -1.2028
16072TIP3    H269708   0.257   4.685   0.241 -1.1534 -3.4463  1.5341
16073TIP3   OH269709   2.576   3.455  14.209 -0.0064  0.0857 -0.5530
16073TIP3    H169710   2.527   3.509  14.271 -2.1500 -1.3003 -0.9924
16073TIP3    H269711   2.663   3.495  14.206 -1.1713  2.7657  0.0610
16074TIP3   OH269712   0.674   0.560  17.260 -0.1682  0.1653  0.4081
16074TIP3    H169713   0.731   0.637  17.257 -0.5485  0.4063 -0.9749
16074TIP3    H269714   0.731   0.487  17.236 -0.0601  0.1658  0.6597
16075TIP3   OH269715   1.644   4.485   3.568  0.1556  0.0830  0.3106
16075TIP3    H169716   1.684   4.398   3.556 -1.8406 -0.8589  0.2404
16075TIP3    H269717   1.714   4.547   3.548  2.0442 -1.5037  1.7843
16076TIP3   OH269718   3.736   5.815   3.153  0.3459  0.0574  0.2530
16076TIP3    H169719   3.652   5.782   3.186  0.8584 -0.2646  1.2240
16076TIP3    H269720   3.785   5.737   3.128  0.4927  0.2291 -0.0096
16077TIP3   OH269721   5.351   0.992  12.368 -0.1169 -0.0124 -0.2017
16077TIP3    H169722   5.316   0.906  12.390 -0.9753  0.3784  0.0120
16077TIP3    H269723   5.279   1.036  12.323  0.1169  0.7912  0.1988
16078TIP3   OH269724   3.241   5.093   4.209 -0.8163 -0.2245 -0.1829
16078TIP3    H169725   3.324   5.130   4.176 -1.5786  1.4608 -0.2767
16078TIP3    H269726   3.174   5.150   4.172 -1.8059  0.5863  2.7803
16079TIP3   OH269727   4.216   5.762  10.635  0.4895 -0.3139  0.4749
16079TIP3    H169728   4.232   5.725  10.722  1.8912 -0.1667  0.2926
16079TIP3    H269729   4.208   5.686  10.578 -2.0885 -0.4549  0.9919
16080TIP3   OH269730   5.154   6.815   2.177 -0.0673 -0.7232 -0.1827
16080TIP3    H169731   5.234   6.862   2.152  0.0459 -0.2595  1.0245
16080TIP3    H269732   5.087   6.882   2.185 -0.6254 -1.1305 -1.3261
16081TIP3   OH269733   4.864   5.904  14.147 -0.0586 -0.4081 -0.0757
16081TIP3    H169734   4.906   5.989  14.164 -0.3170 -0.2707 -0.1063
16081TIP3    H269735   4.890   5.881  14.058  0.0451 -0.3773 -0.0529
16082TIP3   OH269736   5.488   5.470   2.406  0.0385  0.5875  0.0097
16082TIP3    H169737   5.531   5.474   2.321  2.1218 -1.6741  0.9061
16082TIP3    H269738   5.455   5.380   2.412  0.1137  0.6575  1.6727
16083TIP3   OH269739   3.396   6.136  16.884 -0.2940  0.4061  0.2087
16083TIP3    H169740   3.381   6.230  16.872  0.7145  0.5094 -0.2651
16083TIP3    H269741   3.375   6.097  16.799 -0.5481  0.2176  0.3560
16084TIP3   OH269742   3.787   2.960  13.697  0.0174  0.2336  0.3871
16084TIP3    H169743   3.708   2.975  13.750  0.8487  2.1259  1.1643
16084TIP3    H269744   3.777   3.019  13.622  1.0707  1.1226  0.9328
16085TIP3   OH269745   2.986   4.876  10.456 -0.3522  0.2172  0.3466
16085TIP3    H169746   3.026   4.879  10.369  0.0441  1.0635  0.5472
16085TIP3    H269747   3.042   4.933  10.509  0.1367 -1.2902  1.4585
16086TIP3   OH269748   0.748   3.236   6.439 -0.4228  0.5557 -0.0312
16086TIP3    H169749   0.654   3.251   6.447 -0.3721 -0.1131  2.4378
16086TIP3    H269750   0.756   3.165   6.375 -1.7549 -0.5727  1.0148
16087TIP3   OH269751   4.656   3.238   5.783  0.0731 -0.2041 -0.0387
16087TIP3    H169752   4.580   3.192   5.748  0.8373 -1.5201  0.0148
16087TIP3    H269753   4.646   3.232   5.878  0.6891 -1.1380 -0.0272
16088TIP3   OH269754   0.187   0.966  14.379  0.7423 -0.5556 -0.6038
16088TIP3    H169755   0.119   1.003  14.437  0.5616  0.2481 -1.3149
16088TIP3    H269756   0.233   1.043  14.345  0.3267 -0.9788 -2.1524
16089TIP3   OH269757   0.327   3.775   5.719  0.1326  0.0878 -0.1080
16089TIP3    H169758   0.298   3.809   5.804 -0.2662 -0.2544 -0.1048
16089TIP3    H269759   0.373   3.849   5.678 -0.4397  0.5241  0.0343
16090TIP3   OH269760   2.488   1.040  12.982  0.2641 -0.2087 -0.0308
16090TIP3    H169761   2.542   1.017  13.058  0.1947  0.6752  0.2987
16090TIP3    H269762   2.401   1.057  13.019 -0.2610 -1.6787 -0.5641
16091TIP3   OH269763   1.879   3.541   1.052 -0.3746 -0.8430 -0.8564
16091TIP3    H169764   1.949   3.508   0.996  0.4714 -0.8042  0.1560
16091TIP3    H269765   1.809   3.567   0.992  0.7235 -0.3095 -1.9113
16092TIP3   OH269766   0.976   1.137   3.580  0.2845  0.1641 -0.1127
16092TIP3    H169767   1.016   1.090   3.507  0.7570 -0.7059  0.6863
16092TIP3    H269768   0.990   1.080   3.656 -0.2162  1.0361  0.6531
16093TIP3   OH269769   3.494   2.452  16.700 -0.0734  0.1405  0.2024
16093TIP3    H169770   3.499   2.536  16.654 -1.4716  0.3333  0.3710
16093TIP3    H269771   3.452   2.393  16.637  0.4309 -0.2980  0.2723
16094TIP3   OH269772   5.829   0.913  14.271  0.3575  0.2414 -0.0892
16094TIP3    H169773   5.744   0.948  14.245  0.5410  0.1569 -0.7874
16094TIP3    H269774   5.880   0.990  14.296  0.2378  0.3321 -0.1243
16095TIP3   OH269775   2.815   5.289   2.419  1.1525 -0.1758  0.4959
16095TIP3    H169776   2.760   5.215   2.395 -0.1063  1.0465 -0.4710
16095TIP3    H269777   2.804   5.298   2.513 -0.1471 -0.0757  0.3451
16096TIP3   OH269778   0.147   3.989  14.714 -0.7429  0.1253  0.3329
16096TIP3    H169779   0.227   3.976  14.764 -0.0858 -0.3725 -0.8286
16096TIP3    H269780   0.094   3.912  14.732 -1.2989  0.8044  1.6962
16097TIP3   OH269781   6.486   5.234   0.301 -0.0759  0.7124  0.0877
16097TIP3    H169782   6.484   5.163   0.365 -1.2751  1.3929  0.8236
16097TIP3    H269783   6.403   5.226   0.254  1.3577 -0.6105 -2.3251
16098TIP3   OH269784   1.317   0.420   5.216  0.4346 -0.8708  0.4004
16098TIP3    H169785   1.302   0.427   5.122 -1.9029 -1.8467  0.6545
16098TIP3    H269786   1.250   0.477   5.255  0.7263 -1.2520  1.4845
16099TIP3   OH269787   5.145   5.460   2.313  0.3052 -0.3045  0.0626
16099TIP3    H169788   5.168   5.479   2.404  1.5164 -0.7334 -0.1483
16099TIP3    H269789   5.145   5.545   2.270  0.9963 -0.2451  0.1804
16100TIP3   OH269790   2.735   6.140  13.397 -0.2276  0.1952  0.0014
16100TIP3    H169791   2.750   6.084  13.321  0.4729  0.6205 -0.1844
16100TIP3    H269792   2.649   6.114  13.430 -1.2606  1.0519 -1.8710
16101TIP3   OH269793   5.390   4.337   2.217 -0.1829 -0.4857  0.0743
16101TIP3    H169794   5.443   4.416   2.230  0.7348 -1.2940  1.3965
16101TIP3    H269795   5.323   4.363   2.154  0.0969  1.3491  0.5066
16102TIP3   OH269796   3.619   3.832  12.543 -0.1032  0.5389 -0.0046
16102TIP3    H169797   3.539   3.825  12.595  0.5202  0.2400  0.9269
16102TIP3    H269798   3.650   3.921  12.558  0.8734 -0.0099  1.3338
16103TIP3   OH269799   0.574   1.065  16.178  0.2851  0.0859  0.3627
16103TIP3    H169800   0.613   1.115  16.106 -0.1469 -1.8856 -1.3119
16103TIP3    H269801   0.491   1.109  16.195  0.7206  1.0055  0.1328
16104TIP3   OH269802   6.124   1.990   0.422 -0.1994  0.4581 -0.2370
16104TIP3    H169803   6.133   1.984   0.327  1.4222 -1.7104  0.0227
16104TIP3    H269804   6.067   1.916   0.445 -1.8791  1.8918  0.3456
16105TIP3   OH269805   4.460   4.400   0.512  0.0984  0.7448 -0.1344
16105TIP3    H169806   4.529   4.406   0.578  1.6174  1.3860 -1.7375
16105TIP3    H269807   4.432   4.308   0.515  2.1136  0.0842 -0.5060
16106TIP3   OH269808   4.463   6.616   0.924 -0.2324  0.0524 -0.1379
16106TIP3    H169809   4.376   6.648   0.949  0.3309  0.6013  1.1637
16106TIP3    H269810   4.524   6.679   0.963  0.8038 -1.1384  0.1811
16107TIP3   OH269811   0.660   4.395  12.347  0.1171 -0.2276 -0.0726
16107TIP3    H169812   0.709   4.349  12.414  2.1651  0.2059 -1.2417
16107TIP3    H269813   0.588   4.335  12.325  0.1281 -0.8874  1.5998
16108TIP3   OH269814   4.159   6.665  12.755  0.2666  0.1880 -0.3948
16108TIP3    H169815   4.087   6.623  12.707  0.1195  0.2785 -0.2556
16108TIP3    H269816   4.230   6.601  12.753  0.1966  0.1165 -0.5716
16109TIP3   OH269817   2.539   4.078  14.804 -0.0768  0.3799  0.0597
16109TIP3    H169818   2.571   4.093  14.893 -1.9034 -0.8660  0.9641
16109TIP3    H269819   2.617   4.080  14.750  1.2888 -0.5636  1.9318
16110TIP3   OH269820   5.164   6.809   2.807  0.0610 -0.2629  0.2206
16110TIP3    H169821   5.238   6.766   2.763 -0.3737  0.4751 -1.2401
16110TIP3    H269822   5.205   6.861   2.876  0.9094  0.0704 -0.5208
16111TIP3   OH269823   4.320   0.676  12.826  0.6391 -0.0397  0.6562
16111TIP3    H169824   4.339   0.582  12.820 -0.8749 -0.3799  0.8386
16111TIP3    H269825   4.237   0.680  12.875  0.0935  1.3109 -0.3485
16112TIP3   OH269826   3.397   1.720  15.126 -0.0577  0.0533 -0.1943
16112TIP3    H169827   3.355   1.799  15.093  1.0364  0.3297 -0.9797
16112TIP3    H269828   3.377   1.720  15.220 -3.0769 -0.6607 -0.7889
16113TIP3   OH269829   2.721   6.136  13.695  0.0786  0.2220  0.0451
16113TIP3    H169830   2.698   6.199  13.763 -1.0416 -0.8984  0.7235
16113TIP3    H269831   2.663   6.156  13.622 -0.4071 -0.1461  0.3312
16114TIP3   OH269832   5.270   6.268   0.795 -0.1209 -0.3251  0.2231
16114TIP3    H169833   5.357   6.297   0.768  0.0706 -1.2781 -0.2019
16114TIP3    H269834   5.269   6.280   0.890  0.5723 -0.5834  0.2632
16115TIP3   OH269835   4.291   2.190   5.232 -0.0153  0.3465 -0.6465
16115TIP3    H169836   4.204   2.210   5.265 -0.1047  0.7916 -1.1346
16115TIP3    H269837   4.315   2.107   5.273 -0.6180  0.2846 -0.4218
16116TIP3   OH269838   0.941   5.882  14.496 -0.2739  0.0508 -0.5233
16116TIP3    H169839   0.987   5.877  14.579 -0.0520 -0.6738 -0.6874
16116TIP3    H269840   1.009   5.900  14.431 -0.5089  1.0813 -0.4901
16117TIP3   OH269841   0.610   1.746  12.025  0.2440 -0.2435 -0.0128
16117TIP3    H169842   0.581   1.837  12.017  1.7202  0.2488  0.1046
16117TIP3    H269843   0.613   1.714  11.934 -1.4889 -0.5713  0.0356
16118TIP3   OH269844   3.029   5.854  11.243  0.3020 -0.0402  0.1753
16118TIP3    H169845   3.095   5.785  11.235 -0.4914 -0.9479  1.1657
16118TIP3    H269846   2.950   5.815  11.207  0.3729  1.1558 -1.3029
16119TIP3   OH269847   1.605   3.485   5.718 -0.6053 -0.0649 -0.3082
16119TIP3    H169848   1.578   3.481   5.626 -1.3685  0.1332 -0.0917
16119TIP3    H269849   1.557   3.560   5.753  1.0026  0.9301 -0.1862
16120TIP3   OH269850   6.386   4.836   3.376  0.0789 -0.8556  0.4337
16120TIP3    H169851   6.455   4.826   3.310 -0.1861  0.3878 -0.0394
16120TIP3    H269852   6.336   4.754   3.372  0.8854 -1.3313  0.0454
16121TIP3   OH269853   3.772   6.447   5.175 -0.8556  0.2266  0.9014
16121TIP3    H169854   3.721   6.418   5.099  1.0969  1.0677 -0.7561
16121TIP3    H269855   3.708   6.491   5.231 -2.5298 -1.3231  0.2701
16122TIP3   OH269856   1.275   0.414  14.765  0.4016 -0.0670  0.4661
16122TIP3    H169857   1.324   0.334  14.784  2.7060  1.2974  0.4030
16122TIP3    H269858   1.283   0.425  14.670 -0.7265 -0.2720  0.3421
16123TIP3   OH269859   0.569   6.636   1.556 -0.0719  0.9453  0.3670
16123TIP3    H169860   0.549   6.728   1.541  0.5137  1.1884  1.0569
16123TIP3    H269861   0.488   6.599   1.593  0.2766  1.6020  1.8194
16124TIP3   OH269862   4.616   3.498  13.903  0.1923 -0.2054  0.2645
16124TIP3    H169863   4.572   3.423  13.863  1.3343 -0.4160 -0.6204
16124TIP3    H269864   4.645   3.466  13.989 -1.8610  0.1133  1.1108
16125TIP3   OH269865   2.359   4.836  16.851 -0.1002  0.0382  0.1957
16125TIP3    H169866   2.341   4.836  16.945  0.0071 -0.0161  0.2158
16125TIP3    H269867   2.419   4.763  16.838 -1.5526 -1.1094 -0.1932
16126TIP3   OH269868   2.686   3.546  12.810 -0.1185 -0.4526 -0.3149
16126TIP3    H169869   2.656   3.637  12.802  0.7942  0.0500  1.8068
16126TIP3    H269870   2.660   3.519  12.898  0.1879 -2.0524 -0.6937
16127TIP3   OH269871   6.758   1.978   0.954 -0.1283 -0.0705 -0.3856
16127TIP3    H169872   6.848   2.008   0.941 -0.3454 -0.2818 -2.6230
16127TIP3    H269873   6.705   2.043   0.908 -0.9722 -1.0899 -0.8418
16128TIP3   OH269874   2.575   6.505   5.081  0.3553  0.0550 -0.2524
16128TIP3    H169875   2.614   6.419   5.068 -2.1414 -1.5001  2.0209
16128TIP3    H269876   2.588   6.524   5.174 -2.9075  0.1114  0.2708
16129TIP3   OH269877   6.134   5.613   2.179  0.6283 -0.0520 -0.2782
16129TIP3    H169878   6.112   5.521   2.196 -2.2448  0.2620 -1.8853
16129TIP3    H269879   6.138   5.619   2.083  0.4014  1.5587 -0.2071
16130TIP3   OH269880   1.429   1.075   3.823  0.0868 -0.1283  0.2729
16130TIP3    H169881   1.375   1.005   3.860 -0.2354  0.6677  1.3410
16130TIP3    H269882   1.385   1.155   3.850  0.0132  0.4843 -1.6106
16131TIP3   OH269883   3.157   4.798   5.142 -0.6386  0.0356 -0.3796
16131TIP3    H169884   3.252   4.802   5.141 -0.6184 -0.5448 -1.1016
16131TIP3    H269885   3.136   4.707   5.118 -1.3419 -0.2203  1.1407
16132TIP3   OH269886   1.174   3.024  12.816  0.0382 -0.0769  0.7902
16132TIP3    H169887   1.155   3.020  12.909  0.5274 -2.1297  0.8309
16132TIP3    H269888   1.216   3.109  12.803 -1.9073  1.0926  2.0635
16133TIP3   OH269889   3.968   5.779  12.911 -0.7620 -0.4173 -0.5154
16133TIP3    H169890   3.948   5.867  12.944  1.8140 -0.1174  0.4073
16133TIP3    H269891   3.940   5.720  12.981  0.0693 -0.1215  0.0745
16134TIP3   OH269892   2.646   6.024   4.853 -0.1112  0.0845 -0.3304
16134TIP3    H169893   2.695   5.951   4.815 -0.1467 -0.1732  0.1137
16134TIP3    H269894   2.564   6.026   4.805 -0.5125 -0.7826  0.3146
16135TIP3   OH269895   2.387   2.753  15.116  0.5587 -0.3433 -0.2794
16135TIP3    H169896   2.382   2.835  15.165  2.0469 -1.2979  1.5237
16135TIP3    H269897   2.297   2.738  15.086 -0.6532 -0.3349  3.1664
16136TIP3   OH269898   4.233   3.571  13.039  0.0498 -0.0100 -0.2067
16136TIP3    H169899   4.286   3.649  13.059 -1.3866  0.7411  0.7546
16136TIP3    H269900   4.274   3.501  13.089 -0.3458  0.7461  1.1957
16137TIP3   OH269901   3.998   4.044   2.659 -1.0642  0.2311  0.4132
16137TIP3    H169902   4.026   3.963   2.618 -2.4613  0.0238 -0.1435
16137TIP3    H269903   3.906   4.053   2.636 -0.5609  2.7760 -0.8743
16138TIP3   OH269904   2.077   0.921   5.522 -0.7170  0.2270 -0.4008
16138TIP3    H169905   2.132   0.864   5.468 -1.0383 -0.0403 -0.4531
16138TIP3    H269906   2.004   0.944   5.465 -1.3310 -0.4817  0.0758
16139TIP3   OH269907   6.578   2.889   0.360  0.2493  0.5899 -0.2279
16139TIP3    H169908   6.482   2.888   0.366  0.2750  0.6988  0.2310
16139TIP3    H269909   6.597   2.945   0.285 -0.0733 -0.2225 -0.9270
16140TIP3   OH269910   6.691   1.662   3.881  0.1379 -0.6691 -0.0816
16140TIP3    H169911   6.734   1.582   3.913 -1.2423 -1.4439 -0.1170
16140TIP3    H269912   6.763   1.717   3.850  1.0455 -2.3380 -1.0263
16141TIP3   OH269913   2.400   5.956   5.323 -0.1156 -0.3403 -0.5384
16141TIP3    H169914   2.439   5.971   5.409  2.2308 -4.7736 -0.6823
16141TIP3    H269915   2.423   6.033   5.272  2.5395  0.2810  1.4829
16142TIP3   OH269916   2.798   6.755  15.924 -0.2805  0.3446  0.0527
16142TIP3    H169917   2.785   6.831  15.867 -1.1062  1.0970  1.2326
16142TIP3    H269918   2.729   6.694  15.897 -3.0924  2.2032  2.7068
16143TIP3   OH269919   5.529   2.088  11.470  0.0300 -0.6929 -0.2641
16143TIP3    H169920   5.507   2.085  11.377 -3.7161 -0.9038  0.5786
16143TIP3    H269921   5.549   2.181  11.486  0.8602 -0.6795 -1.2835
16144TIP3   OH269922   0.140   5.137   4.838  0.5036 -0.0877  0.1475
16144TIP3    H169923   0.233   5.143   4.862  0.7962  0.9163 -1.2541
16144TIP3    H269924   0.112   5.227   4.823 -1.2131 -0.1963  2.3906
16145TIP3   OH269925   4.243   1.358  11.899  0.1890  0.3161 -0.2326
16145TIP3    H169926   4.325   1.310  11.885 -0.7236 -1.4261  0.2809
16145TIP3    H269927   4.231   1.408  11.819  0.3836 -1.4822 -1.3979
16146TIP3   OH269928   5.819   1.099  14.896 -0.2718  0.2229 -0.3690
16146TIP3    H169929   5.763   1.045  14.839 -2.5084  0.6398  1.3600
16146TIP3    H269930   5.812   1.058  14.982 -1.7449  3.0339  0.9175
16147TIP3   OH269931   6.350   4.994  13.708  0.3979  0.1537 -0.0254
16147TIP3    H169932   6.322   4.951  13.789  1.3178  2.7765  1.7339
16147TIP3    H269933   6.445   5.001  13.716  0.2864  2.1958 -0.4443
16148TIP3   OH269934   2.372   6.299   5.671 -0.2948  0.4173  0.4380
16148TIP3    H169935   2.380   6.269   5.761 -1.2081 -0.6099  0.1904
16148TIP3    H269936   2.290   6.261   5.640  0.1912  0.4423 -0.9426
16149TIP3   OH269937   2.631   3.501   0.700  0.0825 -0.1508  0.3547
16149TIP3    H169938   2.547   3.542   0.719 -1.3424 -2.7842  0.0033
16149TIP3    H269939   2.677   3.501   0.784 -0.5880  0.6120  0.7256
16150TIP3   OH269940   3.852   0.710  14.477  0.5793 -0.0461 -0.2402
16150TIP3    H169941   3.778   0.721  14.418 -0.9907 -0.4479  1.5935
16150TIP3    H269942   3.836   0.626  14.521  1.0164  0.8514  1.6832
16151TIP3   OH269943   5.513   1.492  16.873 -0.0932  0.2456  0.0812
16151TIP3    H169944   5.518   1.560  16.806  0.7871  0.4365  0.3321
16151TIP3    H269945   5.423   1.496  16.905  0.7091  3.3185  2.2100
16152TIP3   OH269946   1.232   6.595   4.438 -0.0879  0.5491  0.4962
16152TIP3    H169947   1.241   6.678   4.484  2.3778  0.9705 -0.6414
16152TIP3    H269948   1.193   6.617   4.354 -1.5214  0.2302  1.0667
16153TIP3   OH269949   3.588   2.836  12.776 -0.3310 -0.6300  0.0179
16153TIP3    H169950   3.559   2.805  12.691 -0.4171 -0.9396  0.1584
16153TIP3    H269951   3.647   2.767  12.808 -1.1506 -1.0354  0.6833
16154TIP3   OH269952   4.005   1.297   1.620  0.4119 -0.1726 -0.3182
16154TIP3    H169953   4.062   1.371   1.641  1.6205 -0.8134 -1.2589
16154TIP3    H269954   4.001   1.247   1.701 -0.2529  0.8156  0.2671
16155TIP3   OH269955   6.344   3.021   6.849 -0.5575 -0.1001  0.5287
16155TIP3    H169956   6.399   2.989   6.920  1.5430 -0.6246 -1.2850
16155TIP3    H269957   6.305   2.941   6.811  0.8619 -0.1179 -0.9241
16156TIP3   OH269958   3.190   1.067  15.086  0.2258 -0.3958 -0.3546
16156TIP3    H169959   3.255   1.004  15.052 -0.4447 -1.4875  0.3616
16156TIP3    H269960   3.219   1.084  15.175  0.5828  0.5679 -0.6503
16157TIP3   OH269961   6.413   5.553  12.418 -0.4434  0.0449  0.0207
16157TIP3    H169962   6.471   5.621  12.453 -1.1738  0.7579 -0.1531
16157TIP3    H269963   6.415   5.566  12.324 -0.9508  0.1125  0.0218
16158TIP3   OH269964   0.615   2.954   2.519 -0.2256 -0.0470  0.6198
16158TIP3    H169965   0.699   2.937   2.560  0.9061  0.1101 -1.5754
16158TIP3    H269966   0.620   2.912   2.433 -1.4134  2.0736 -0.5444
16159TIP3   OH269967   5.271   1.133  11.017  0.0265  0.4033 -0.0036
16159TIP3    H169968   5.272   1.037  11.008  1.8147  0.1985  1.9633
16159TIP3    H269969   5.339   1.163  10.957  0.4776  0.3171  0.4588
16160TIP3   OH269970   1.589   1.814  17.094 -0.0188 -0.9675  0.8912
16160TIP3    H169971   1.647   1.748  17.131  3.6082  1.8482  0.5176
16160TIP3    H269972   1.599   1.890  17.151 -1.2617  0.4433 -0.7161
16161TIP3   OH269973   1.123   6.231   0.153  0.5986  0.3111  0.1805
16161TIP3    H169974   1.073   6.307   0.181 -1.3008 -1.3191  1.3540
16161TIP3    H269975   1.156   6.254   0.067 -4.8361  0.3582 -2.0986
16162TIP3   OH269976   3.419   1.775  16.350 -0.5258 -0.8244 -0.1594
16162TIP3    H169977   3.465   1.759  16.432 -1.0273 -1.9759 -0.0999
16162TIP3    H269978   3.480   1.828  16.298  0.3024 -1.1697  0.4535
16163TIP3   OH269979   0.331   4.776   4.037  0.0543 -0.1831  0.4255
16163TIP3    H169980   0.360   4.742   3.953  0.6514 -1.2145  1.0469
16163TIP3    H269981   0.272   4.709   4.071 -0.1830  0.2313  0.8317
16164TIP3   OH269982   1.938   4.218   4.356 -0.1553 -0.4494  0.5551
16164TIP3    H169983   1.883   4.290   4.326  1.5112  0.8739  0.6065
16164TIP3    H269984   1.915   4.206   4.448  1.2363  1.5932  1.1807
16165TIP3   OH269985   3.740   0.697  17.105  0.2729 -0.3393 -0.1380
16165TIP3    H169986   3.688   0.775  17.119 -0.4704 -0.9863  0.7132
16165TIP3    H269987   3.734   0.680  17.010  1.0622  1.0489 -0.4530
16166TIP3   OH269988   4.406   4.623   2.085  0.0297 -0.7050 -0.4409
16166TIP3    H169989   4.468   4.695   2.073  2.3196 -2.2596  1.4701
16166TIP3    H269990   4.328   4.665   2.121  1.8613  0.7016  2.1164
16167TIP3   OH269991   2.880   4.306   3.762  0.3946  0.6789  0.1180
16167TIP3    H169992   2.889   4.281   3.854  2.3836 -0.4852 -0.3621
16167TIP3    H269993   2.832   4.233   3.722  2.5548 -0.4825 -0.4378
16168TIP3   OH269994   5.665   4.350  13.296  0.5792 -0.3879  0.1684
16168TIP3    H169995   5.681   4.323  13.387  1.5560 -0.7164 -0.0977
16168TIP3    H269996   5.709   4.434  13.287 -0.2771  0.0699  0.2548
16169TIP3   OH269997   1.627   0.005   1.785  0.0679 -0.0798 -0.3284
16169TIP3    H169998   1.649   0.018   1.693  1.6149 -0.0974  0.0280
16169TIP3    H269999   1.594   0.091   1.813  0.4929  0.1954 -0.6564
16170TIP3   OH270000   3.398   5.219  14.669  0.1192 -0.5545  0.6311
16170TIP3    H170001   3.409   5.125  14.650 -0.2851 -0.2527 -1.1374
16170TIP3    H270002   3.348   5.253  14.595 -0.1671  0.9708  1.5105
16171TIP3   OH270003   2.325   1.574   0.683  0.4467  0.3605 -0.1872
16171TIP3    H170004   2.358   1.659   0.654  0.4848  0.4445  0.1109
16171TIP3    H270005   2.258   1.552   0.618  0.9939  0.2473 -0.7185
16172TIP3   OH270006   0.044   1.056  15.803  0.1386 -0.1406  0.4891
16172TIP3    H170007  -0.022   1.044  15.872  0.8424  1.7605  1.5348
16172TIP3    H270008  -0.003   1.099  15.731  0.1872  1.1521  1.2089
16173TIP3   OH270009   1.229   3.535  16.337 -0.4881  0.2903  0.0565
16173TIP3    H170010   1.312   3.526  16.385 -0.0948  0.3419 -0.6110
16173TIP3    H270011   1.234   3.467  16.270 -1.6456 -0.7056  0.9520
16174TIP3   OH270012   2.731   2.793   0.620 -0.1247 -0.3430  0.0017
16174TIP3    H170013   2.791   2.867   0.610 -0.3761 -0.2224 -0.6644
16174TIP3    H270014   2.672   2.800   0.545  0.6508 -1.9411 -0.7995
16175TIP3   OH270015   5.925   6.109   1.538  0.4547 -0.3241  0.4897
16175TIP3    H170016   6.011   6.115   1.495  0.2574 -0.0826  0.1309
16175TIP3    H270017   5.937   6.042   1.605  0.5447 -1.2435 -0.4364
16176TIP3   OH270018   3.557   0.920   4.416  0.0055 -0.1018  0.0704
16176TIP3    H170019   3.558   1.015   4.405 -0.3088  0.2499  2.7411
16176TIP3    H270020   3.647   0.898   4.439  0.4375 -0.6841 -2.0736
16177TIP3   OH270021   5.948   0.076  11.784 -0.3974  0.0073  0.7776
16177TIP3    H170022   5.986   0.038  11.863 -0.0848  0.0555  0.6529
16177TIP3    H270023   5.870   0.024  11.766 -0.2733 -0.2261  0.9198
16178TIP3   OH270024   2.546   4.171   4.823  0.1588 -0.6157  0.5548
16178TIP3    H170025   2.635   4.203   4.809  0.4665 -1.4416  0.5815
16178TIP3    H270026   2.508   4.232   4.886  1.5475 -1.6857  2.5018
16179TIP3   OH270027   4.440   4.680  12.445  0.2303  0.4949  0.5442
16179TIP3    H170028   4.467   4.588  12.440 -0.4957  0.2331  1.3539
16179TIP3    H270029   4.356   4.683  12.400  0.9249  1.0505 -0.7505
16180TIP3   OH270030   1.200   0.434  15.176 -0.0226 -0.0639 -0.0291
16180TIP3    H170031   1.278   0.484  15.149  0.5274 -0.2201  1.2252
16180TIP3    H270032   1.172   0.477  15.257 -1.0685 -0.2093 -0.3133
16181TIP3   OH270033   4.987   0.167   2.983  0.6302  0.7546 -0.0212
16181TIP3    H170034   5.018   0.193   2.896 -0.6694  2.3687 -0.0234
16181TIP3    H270035   4.982   0.249   3.032 -0.1063  0.0481  1.0940
16182TIP3   OH270036   5.681   6.811  11.780 -0.2043 -0.2393 -0.5159
16182TIP3    H170037   5.620   6.748  11.818 -1.1274  0.6722 -0.4651
16182TIP3    H270038   5.629   6.891  11.768  0.8432  0.3899 -0.9508
16183TIP3   OH270039   4.679   6.116   2.253 -0.1957 -0.0525 -0.2294
16183TIP3    H170040   4.700   6.083   2.166  0.1416  1.8163 -0.8844
16183TIP3    H270041   4.718   6.053   2.313 -0.6011 -1.4646 -1.4228
16184TIP3   OH270042   1.639   5.302   4.026  0.5754  0.2664  0.0734
16184TIP3    H170043   1.587   5.235   4.070  0.2772  1.1142  1.0368
16184TIP3    H270044   1.718   5.256   3.999  0.2302 -0.5561  0.4329
16185TIP3   OH270045   0.581   2.741   6.760 -0.9824  0.2738  0.0214
16185TIP3    H170046   0.489   2.720   6.773 -1.0426  0.3687 -0.2548
16185TIP3    H270047   0.583   2.836   6.750 -0.8629  0.2639 -0.0521
16186TIP3   OH270048   2.685   2.128   2.395  0.5458 -0.0625 -0.0447
16186TIP3    H170049   2.749   2.159   2.458  2.8188 -1.6540 -1.4905
16186TIP3    H270050   2.600   2.146   2.435  1.9005  1.5137  2.1783
16187TIP3   OH270051   0.385   4.186   1.025 -0.2196 -0.5347 -0.7262
16187TIP3    H170052   0.295   4.164   1.048  0.3037 -0.2887  1.6597
16187TIP3    H270053   0.392   4.280   1.041  0.6400 -0.6655 -0.3013
16188TIP3   OH270054   1.142   3.724  14.370  0.1338 -0.2620  0.3992
16188TIP3    H170055   1.105   3.811  14.353  0.3992  0.0094  1.1600
16188TIP3    H270056   1.133   3.713  14.465 -1.5293 -1.8111  0.0989
16189TIP3   OH270057   0.173   1.495  15.152  0.0421  0.6110  0.4833
16189TIP3    H170058   0.156   1.511  15.059  1.3349 -2.5348 -0.3348
16189TIP3    H270059   0.094   1.527  15.196 -0.5078  2.3149 -1.6401
16190TIP3   OH270060   5.864   1.752  11.355 -0.0016  0.1400 -0.0274
16190TIP3    H170061   5.794   1.744  11.291 -0.8202 -0.6702  0.9500
16190TIP3    H270062   5.833   1.703  11.431  2.0169 -0.9875  0.1019
16191TIP3   OH270063   3.206   4.641   4.106  0.4112 -0.6336 -0.2856
16191TIP3    H170064   3.268   4.568   4.106  1.5777  0.2452  3.1505
16191TIP3    H270065   3.261   4.719   4.096 -0.4609 -0.0194 -0.3155
16192TIP3   OH270066   1.887   3.696   0.065  0.1679 -0.2339 -0.0859
16192TIP3    H170067   1.885   3.648   0.147  0.2098 -1.0397 -0.5493
16192TIP3    H270068   1.875   3.787   0.090  2.1457 -0.2386  1.0027
16193TIP3   OH270069   2.704   5.822   2.226 -0.2030  0.5065  0.4981
16193TIP3    H170070   2.682   5.729   2.234  3.2591 -0.6540 -2.2410
16193TIP3    H270071   2.628   5.861   2.185 -1.4948 -1.2323  1.1691
16194TIP3   OH270072   1.773   0.642   0.820  0.1389  0.1740 -0.4090
16194TIP3    H170073   1.830   0.641   0.897 -1.0830 -1.1358  0.5071
16194TIP3    H270074   1.718   0.719   0.833  0.1970  0.1769 -0.1777
16195TIP3   OH270075   5.207   4.123   0.575 -0.5136  0.2360  0.2546
16195TIP3    H170076   5.119   4.099   0.604 -0.4369  1.4310  1.4990
16195TIP3    H270077   5.240   4.181   0.643  0.8272  0.6697 -0.7449
16196TIP3   OH270078   2.445   6.645  13.933 -0.4017 -0.0101  0.4263
16196TIP3    H170079   2.369   6.667  13.879  0.8277  2.6585 -0.3162
16196TIP3    H270080   2.480   6.565  13.895 -2.0488 -0.5098 -0.0560
16197TIP3   OH270081   3.898   6.637   4.737 -0.1352 -0.0325 -0.0483
16197TIP3    H170082   3.874   6.625   4.645 -1.5628  1.4822  0.0906
16197TIP3    H270083   3.814   6.636   4.784  0.4531  0.6698  1.0540
16198TIP3   OH270084   3.167   1.003   0.925  0.1828  0.2622  0.4170
16198TIP3    H170085   3.257   0.983   0.899  0.2570  1.0938  0.0416
16198TIP3    H270086   3.168   0.993   1.021  0.6589  0.2124  0.4118
16199TIP3   OH270087   6.202   2.143   2.206 -0.0106  0.0650  0.1089
16199TIP3    H170088   6.166   2.073   2.261 -0.5978  0.2970  0.0215
16199TIP3    H270089   6.234   2.208   2.268 -2.9646  1.5045  0.1919
16200TIP3   OH270090   1.923   2.299  14.185 -0.2841 -0.5652  0.2659
16200TIP3    H170091   1.976   2.278  14.262 -1.9816 -4.4791  0.4988
16200TIP3    H270092   1.966   2.252  14.113  0.7916  2.3670 -1.0857
16201TIP3   OH270093   6.009   4.521  14.002 -0.0229 -0.3042 -0.1824
16201TIP3    H170094   5.966   4.606  13.992 -0.8280 -0.4195  1.8898
16201TIP3    H270095   6.099   4.543  14.028 -0.8119 -0.0215  2.5417
16202TIP3   OH270096   5.258   1.218   5.392 -0.4854 -0.6821  0.5199
16202TIP3    H170097   5.241   1.247   5.482  0.2114  0.3980  0.3059
16202TIP3    H270098   5.242   1.296   5.339  2.7122 -0.2991  0.0619
16203TIP3   OH270099   2.987   4.132   1.378  0.1581 -0.3292 -0.3901
16203TIP3    H170100   3.047   4.181   1.322  1.9845 -0.7042  1.1830
16203TIP3    H270101   2.954   4.061   1.323  0.9287  0.0610 -1.3549
16204TIP3   OH270102   5.492   6.814  12.740  0.6765  0.5806  0.3348
16204TIP3    H170103   5.533   6.882  12.793  0.6044  2.3354 -1.8231
16204TIP3    H270104   5.401   6.812  12.769  1.2410 -0.2909  2.0844
16205TIP3   OH270105   3.939   0.014   4.215 -0.4532  0.2752 -0.2704
16205TIP3    H170106   4.016  -0.039   4.233 -1.5112 -1.0643  0.4235
16205TIP3    H270107   3.880  -0.044   4.167 -0.8854  1.4045 -1.1252
16206TIP3   OH270108   4.079   4.785   1.812 -0.0238  0.1404  0.2184
16206TIP3    H170109   4.028   4.725   1.759 -0.2179 -0.1652  0.7486
16206TIP3    H270110   4.123   4.841   1.748 -2.8441  1.9543 -0.2084
16207TIP3   OH270111   3.422   0.129  16.903 -0.2983  0.6657  0.0890
16207TIP3    H170112   3.509   0.152  16.871 -0.0432 -0.0341  0.2859
16207TIP3    H270113   3.431   0.127  16.999 -0.0408 -1.3621  0.0381
16208TIP3   OH270114   3.436   0.493  13.942 -0.0703 -0.1285 -0.2696
16208TIP3    H170115   3.350   0.488  13.900 -0.1000 -0.0023 -0.2272
16208TIP3    H270116   3.487   0.551  13.886  0.4584 -1.3698 -1.0841
16209TIP3   OH270117   5.749   1.097   4.205 -0.4761 -0.2428 -0.2254
16209TIP3    H170118   5.802   1.140   4.272 -1.3465  0.3712  0.0750
16209TIP3    H270119   5.700   1.030   4.252 -0.2092 -0.6026 -0.4534
16210TIP3   OH270120   1.618   0.867   2.017 -0.0247  0.0419  0.3727
16210TIP3    H170121   1.529   0.883   1.985  0.1456  1.7459  0.7334
16210TIP3    H270122   1.658   0.812   1.950 -1.0002  0.1626 -0.3215
16211TIP3   OH270123   5.888   3.395   0.413 -0.3200 -0.2711  0.2933
16211TIP3    H170124   5.983   3.404   0.413 -0.4593  1.3671  1.1333
16211TIP3    H270125   5.863   3.403   0.505 -1.5839  3.2296 -0.2580
16212TIP3   OH270126   3.489   0.801   1.218 -0.6370 -0.5991 -0.4144
16212TIP3    H170127   3.487   0.757   1.133 -0.0143  1.3589 -1.4686
16212TIP3    H270128   3.579   0.791   1.248 -0.9038 -1.4532  0.1103
16213TIP3   OH270129   3.564   5.127   6.458  0.8267 -0.0903 -0.2714
16213TIP3    H170130   3.632   5.061   6.452 -0.3368 -1.3937  0.5870
16213TIP3    H270131   3.493   5.094   6.403  0.7248  1.0394 -0.8240
16214TIP3   OH270132   3.914   1.022   1.590  1.0920  0.0909  0.1973
16214TIP3    H170133   3.942   0.995   1.677  0.4520 -0.5242  0.2241
16214TIP3    H270134   3.987   1.072   1.555  1.2229  0.6204  1.2178
16215TIP3   OH270135   0.350   0.148   5.812 -0.2656  0.5142 -0.0349
16215TIP3    H170136   0.308   0.231   5.835  0.0911  1.0732 -1.3393
16215TIP3    H270137   0.344   0.095   5.891 -0.4348  1.8101  0.8346
16216TIP3   OH270138   0.057   3.134  12.131  0.1455 -0.2444  0.2039
16216TIP3    H170139  -0.029   3.099  12.111 -0.4058  0.2547  1.6057
16216TIP3    H270140   0.040   3.206  12.192  1.5795 -0.4075  0.8213
16217TIP3   OH270141   1.561   4.512  11.645  0.1759 -0.2671  0.7459
16217TIP3    H170142   1.625   4.512  11.716  1.1845  0.8375 -0.1387
16217TIP3    H270143   1.486   4.561  11.678 -0.7625 -2.6441  2.2475
16218TIP3   OH270144   4.149   1.663  16.132 -0.2792  0.0787  0.0105
16218TIP3    H170145   4.105   1.718  16.196  1.1883  0.6742  0.5410
16218TIP3    H270146   4.188   1.592  16.183  0.8250  0.5114 -0.2078
16219TIP3   OH270147   0.915   3.325   3.456  0.4759 -0.0751  0.3179
16219TIP3    H170148   0.893   3.416   3.434  1.7308 -0.2406 -1.7875
16219TIP3    H270149   0.938   3.328   3.549  1.6994  1.9995 -0.0085
16220TIP3   OH270150   4.691   4.552  11.304 -0.0622  0.0029  0.2983
16220TIP3    H170151   4.682   4.593  11.390 -0.3109  0.2969  0.1308
16220TIP3    H270152   4.622   4.591  11.251 -0.0535 -0.3446  0.0271
16221TIP3   OH270153   0.392   1.672   3.189  0.3367  0.0541 -0.0659
16221TIP3    H170154   0.428   1.756   3.159 -2.3096  1.2484  0.0067
16221TIP3    H270155   0.405   1.674   3.284 -0.1650  0.5952 -0.0060
16222TIP3   OH270156   6.658   2.481  12.264 -0.0773  0.4329  0.4609
16222TIP3    H170157   6.619   2.499  12.178 -0.7409 -2.3038  0.1477
16222TIP3    H270158   6.588   2.503  12.326 -0.2683  0.5745  0.1989
16223TIP3   OH270159   4.166   5.224  14.552 -0.2068 -0.0661 -0.0794
16223TIP3    H170160   4.242   5.278  14.571 -0.2649 -0.0018 -0.0297
16223TIP3    H270161   4.200   5.135  14.546 -0.1763 -0.0802  0.2593
16224TIP3   OH270162   0.583   1.267  14.863  0.4888 -0.1843 -0.0814
16224TIP3    H170163   0.651   1.240  14.802  0.4540  0.2141 -0.2959
16224TIP3    H270164   0.568   1.190  14.917  0.3509 -0.6196 -0.7313
16225TIP3   OH270165   5.499   0.389  14.400 -0.2673  0.1075 -0.2907
16225TIP3    H170166   5.590   0.392  14.429 -1.0283  0.2816  2.1555
16225TIP3    H270167   5.503   0.350  14.312  2.1831  0.5076 -0.3831
16226TIP3   OH270168   6.756   3.633  17.029  0.3613 -0.6130 -0.0948
16226TIP3    H170169   6.660   3.629  17.038  0.3400  0.7698  0.3786
16226TIP3    H270170   6.782   3.542  17.017 -0.4967 -1.7316  5.3087
16227TIP3   OH270171   3.276   5.440   1.097  0.4851 -0.1035  0.1280
16227TIP3    H170172   3.275   5.531   1.126  0.9188 -0.0353 -0.0645
16227TIP3    H270173   3.234   5.392   1.168 -0.7717  0.3870 -0.2751
16228TIP3   OH270174   5.142   4.752  12.297 -0.4316  0.5797 -0.2095
16228TIP3    H170175   5.055   4.781  12.270 -0.5169 -0.0976 -0.6780
16228TIP3    H270176   5.125   4.694  12.372 -0.4234  0.0698 -0.6000
16229TIP3   OH270177   3.164   6.076  15.254  0.2024 -0.3777 -0.2118
16229TIP3    H170178   3.196   5.986  15.247  0.8418  0.0035 -2.6379
16229TIP3    H270179   3.212   6.123  15.187  0.0502  1.8524  1.2045
16230TIP3   OH270180   6.473   5.561  16.085  0.0417  0.0146  0.3283
16230TIP3    H170181   6.418   5.492  16.049  2.3489 -0.7650 -1.9151
16230TIP3    H270182   6.464   5.633  16.023  1.3894 -0.0845 -0.0192
16231TIP3   OH270183   1.306   6.315  16.392  0.0506 -0.3045 -0.3831
16231TIP3    H170184   1.244   6.263  16.342 -0.3671  0.1251 -0.3180
16231TIP3    H270185   1.372   6.342  16.328 -0.4138  0.1363 -0.6766
16232TIP3   OH270186   4.210   6.502   5.149 -0.4163 -0.4374 -0.0410
16232TIP3    H170187   4.120   6.509   5.117 -0.6226 -0.4095  0.5549
16232TIP3    H270188   4.202   6.487   5.243  0.1884 -0.8889 -0.0530
16233TIP3   OH270189   3.054   1.308  16.179 -0.1292 -0.1036  0.5867
16233TIP3    H170190   3.004   1.383  16.147 -1.5424 -1.0645  0.5490
16233TIP3    H270191   3.123   1.295  16.114 -0.6702  0.3490 -0.0747
16234TIP3   OH270192   3.407   4.818  16.010 -0.1941  0.1026 -0.7412
16234TIP3    H170193   3.426   4.784  16.098 -0.1444  0.3743 -0.6449
16234TIP3    H270194   3.445   4.754  15.951  0.4848  0.3370 -0.5548
16235TIP3   OH270195   4.563   2.322  15.032  0.0037  0.0422 -0.2269
16235TIP3    H170196   4.518   2.249  14.989  1.7595 -1.8103  0.9889
16235TIP3    H270197   4.621   2.357  14.964 -0.7367  0.2106 -0.7743
16236TIP3   OH270198   6.403   1.446  12.759 -0.8169 -0.0248  0.3823
16236TIP3    H170199   6.496   1.452  12.780 -0.2618 -1.4911 -1.5578
16236TIP3    H270200   6.377   1.358  12.789 -1.4888  0.2409  0.5910
16237TIP3   OH270201   0.081   3.910   4.168  0.2206  0.8612  0.1178
16237TIP3    H170202   0.158   3.963   4.188  0.0764  0.9618  0.4151
16237TIP3    H270203   0.009   3.955   4.212  0.5495 -1.1907  2.8513
16238TIP3   OH270204   2.533   3.884   3.257 -0.2809  0.2074  0.8265
16238TIP3    H170205   2.514   3.812   3.197  1.1768 -0.6024  1.3193
16238TIP3    H270206   2.493   3.961   3.216 -1.5389 -0.8087  0.1195
16239TIP3   OH270207   1.488   1.725   6.691  0.3577  0.1526  0.4001
16239TIP3    H170208   1.439   1.663   6.745 -3.7399  0.9414 -2.1614
16239TIP3    H270209   1.459   1.811   6.723  2.3294  0.7208  0.7245
16240TIP3   OH270210   0.422   0.837   3.238 -0.0523 -0.0044 -0.4367
16240TIP3    H170211   0.452   0.923   3.208  2.5036 -0.0046  1.9113
16240TIP3    H270212   0.485   0.812   3.305 -2.8740 -2.0839  1.5494
16241TIP3   OH270213   4.958   1.861  11.536  0.3950 -0.0634  0.1022
16241TIP3    H170214   5.000   1.819  11.611 -0.5048 -0.3545  0.4467
16241TIP3    H270215   4.886   1.802  11.512 -0.3661  0.8620  0.0638
16242TIP3   OH270216   5.611   0.250  13.415  0.3251  0.2615  0.5178
16242TIP3    H170217   5.584   0.247  13.323  1.2263 -0.5583  0.2706
16242TIP3    H270218   5.675   0.180  13.423  0.6866  0.7129  1.6353
16243TIP3   OH270219   2.219   3.606  11.857  0.1644 -0.2286 -0.0945
16243TIP3    H170220   2.193   3.584  11.947 -1.1588  0.8078 -0.2016
16243TIP3    H270221   2.226   3.521  11.813  0.7516 -0.7413  0.9571
16244TIP3   OH270222   2.334   3.767  15.609  0.2535 -0.0606 -0.2642
16244TIP3    H170223   2.401   3.788  15.544  1.9207 -3.2020  0.3101
16244TIP3    H270224   2.260   3.734  15.557  0.8089 -0.6400 -0.6993
16245TIP3   OH270225   4.188   3.898   1.636 -0.5017  0.6740  0.5633
16245TIP3    H170226   4.143   3.973   1.598 -0.3187  0.2615 -0.4743
16245TIP3    H270227   4.268   3.934   1.673  1.3839  0.4904 -3.0927
16246TIP3   OH270228   2.721   3.725  10.728  0.0726  0.2319  0.1832
16246TIP3    H170229   2.674   3.807  10.742 -0.6174 -0.0524 -0.4512
16246TIP3    H270230   2.792   3.748  10.669 -0.0656  0.3940  0.0798
16247TIP3   OH270231   0.249   4.869  16.431 -0.2815  0.3254 -0.1619
16247TIP3    H170232   0.205   4.953  16.419 -0.2631  0.4753  0.7919
16247TIP3    H270233   0.246   4.854  16.525  0.2031 -0.4805 -0.2724
16248TIP3   OH270234   2.899   4.907  15.734 -0.2254  0.3538  0.0693
16248TIP3    H170235   2.982   4.915  15.780 -0.3619 -1.2387  0.6134
16248TIP3    H270236   2.833   4.904  15.803 -0.6132  0.2183 -0.3004
16249TIP3   OH270237   0.916   5.457  15.701  0.0027  0.2898 -0.0467
16249TIP3    H170238   0.918   5.521  15.773 -1.6432  0.8109 -0.4583
16249TIP3    H270239   1.001   5.412  15.708  0.2720  0.9895  1.6199
16250TIP3   OH270240   2.084   6.316  12.432 -0.0318  0.2298 -0.6506
16250TIP3    H170241   2.123   6.278  12.353  0.3447  1.2493 -0.9668
16250TIP3    H270242   2.027   6.247  12.466  1.7436 -1.1408 -0.3926
16251TIP3   OH270243   2.186   5.738  11.641 -0.1160 -0.2929  0.2592
16251TIP3    H170244   2.277   5.730  11.615  0.0179 -0.0215  0.6388
16251TIP3    H270245   2.143   5.662  11.602 -0.1797  0.7980 -1.8699
16252TIP3   OH270246   5.730   1.672   0.513  0.5568 -0.2799 -0.2530
16252TIP3    H170247   5.759   1.604   0.573  0.1224 -0.0418  0.2291
16252TIP3    H270248   5.643   1.644   0.485  1.2684 -1.0454 -1.7741
16253TIP3   OH270249   0.193   3.970  11.830  0.0092  0.3798  0.7139
16253TIP3    H170250   0.171   4.004  11.743  0.2788  1.8517  1.2136
16253TIP3    H270251   0.166   4.039  11.890 -1.8444 -1.3750  1.9577
16254TIP3   OH270252   6.159   5.403  13.069  0.0843  1.2159  0.5577
16254TIP3    H170253   6.223   5.407  13.140  0.4315 -2.3353  0.5568
16254TIP3    H270254   6.211   5.384  12.991 -0.7565  0.3251  0.2044
16255TIP3   OH270255   0.597   1.314  13.126 -0.0138 -0.1670 -0.1887
16255TIP3    H170256   0.566   1.305  13.215 -2.1948  0.6416 -0.8417
16255TIP3    H270257   0.645   1.397  13.125  2.2301 -1.4176  0.8186
16256TIP3   OH270258   5.561   5.803   5.447 -0.1604 -0.2258 -0.1818
16256TIP3    H170259   5.620   5.728   5.436 -0.0203 -0.1129 -0.2114
16256TIP3    H270260   5.600   5.853   5.519  0.6366  0.6637 -1.2050
16257TIP3   OH270261   4.925   3.821   6.611  0.1660 -0.2641  0.4777
16257TIP3    H170262   4.890   3.852   6.528  1.7088 -1.8609 -0.8058
16257TIP3    H270263   5.017   3.847   6.609 -0.2222  1.3547  2.5316
16258TIP3   OH270264   0.590   4.390   5.636 -0.2813 -0.0691  0.0124
16258TIP3    H170265   0.612   4.313   5.688 -1.0737  0.2349  0.8241
16258TIP3    H270266   0.546   4.355   5.558  0.7981 -0.5167 -0.4009
16259TIP3   OH270267   2.963   0.395   2.703 -0.2555 -0.3581  0.6332
16259TIP3    H170268   2.963   0.303   2.732 -1.1632 -0.3734  0.6007
16259TIP3    H270269   2.882   0.431   2.738 -0.6012  0.0495 -0.5885
16260TIP3   OH270270   2.113   0.414   5.614  0.0629  0.5991  0.1490
16260TIP3    H170271   2.019   0.395   5.622  0.4028 -0.7276  1.2011
16260TIP3    H270272   2.148   0.340   5.564  0.5798  0.9642 -0.0256
16261TIP3   OH270273   5.608   0.194   2.738 -0.3778  0.2581 -0.0463
16261TIP3    H170274   5.584   0.102   2.736  1.4589 -0.2202 -2.4712
16261TIP3    H270275   5.703   0.195   2.728 -0.4802  2.4288 -1.3610
16262TIP3   OH270276   5.686   0.039   1.219 -0.7355 -0.4228 -0.0090
16262TIP3    H170277   5.731  -0.045   1.214 -1.0372 -0.5507 -0.7538
16262TIP3    H270278   5.636   0.044   1.137 -1.1147  0.2542  0.2572
16263TIP3   OH270279   3.380   1.486   6.020 -0.0669 -0.0329 -0.0981
16263TIP3    H170280   3.288   1.466   6.033 -0.0181  1.5486  3.4355
16263TIP3    H270281   3.396   1.564   6.074  3.2133  0.0276 -1.0059
16264TIP3   OH270282   4.911   6.737  14.783 -0.3267 -0.1244  0.5750
16264TIP3    H170283   4.957   6.729  14.866 -0.3767  0.8205  0.7006
16264TIP3    H270284   4.978   6.763  14.720 -0.2652 -0.9560  0.2899
16265TIP3   OH270285   5.080   6.640  12.592 -0.2839 -0.3409  0.1169
16265TIP3    H170286   5.148   6.601  12.538 -0.2978  0.8539 -0.7601
16265TIP3    H270287   5.102   6.732  12.597 -1.5197 -0.0410  0.3002
16266TIP3   OH270288   6.613   3.710  10.801 -0.0625 -0.8621 -0.3539
16266TIP3    H170289   6.608   3.720  10.896  1.0417 -2.1229 -0.1465
16266TIP3    H270290   6.571   3.788  10.766 -3.1751 -1.7995  1.1526
16267TIP3   OH270291   0.587   0.040   2.388  0.0175  0.8225  0.3821
16267TIP3    H170292   0.540  -0.037   2.355  0.0556  0.0098  2.1925
16267TIP3    H270293   0.640   0.007   2.460  2.6277  1.9229 -0.9647
16268TIP3   OH270294   0.057   3.757  15.405  0.3078 -0.3712  0.1319
16268TIP3    H170295   0.114   3.681  15.407  1.1272  0.2173 -0.3483
16268TIP3    H270296   0.033   3.772  15.496  1.1751 -0.4441  0.3819
16269TIP3   OH270297   0.657   4.963  12.939 -0.1459 -0.5043  0.4547
16269TIP3    H170298   0.615   5.008  12.865 -1.9595 -0.4473  1.4838
16269TIP3    H270299   0.750   4.958  12.915 -0.4648  0.8637 -1.1424
16270TIP3   OH270300   6.195   3.460   0.127 -0.0444  0.4103 -0.2694
16270TIP3    H170301   6.123   3.483   0.068 -0.2805 -0.5556 -0.3776
16270TIP3    H270302   6.152   3.446   0.212 -0.4840 -3.0613 -0.9531
16271TIP3   OH270303   0.199   0.724  15.163  0.2113 -0.1052  0.2889
16271TIP3    H170304   0.108   0.750  15.177 -0.3504 -0.2137 -2.8846
16271TIP3    H270305   0.204   0.634  15.197 -1.1748 -0.5101 -0.5401
16272TIP3   OH270306   2.313   3.001  14.305 -0.1820  0.1132 -0.5262
16272TIP3    H170307   2.257   2.953  14.244 -1.0453 -1.1539  1.1869
16272TIP3    H270308   2.284   3.092  14.298 -0.7649 -0.1427 -1.4815
16273TIP3   OH270309   6.586   0.866  11.762  0.0317 -0.1193 -0.5458
16273TIP3    H170310   6.646   0.939  11.743 -0.3114  0.2104 -0.3566
16273TIP3    H270311   6.537   0.895  11.839  0.5931 -0.9674  0.1351
16274TIP3   OH270312   4.578   1.736   4.828 -0.4180  0.8812  0.1526
16274TIP3    H170313   4.561   1.675   4.758 -2.4738  0.7485  0.7421
16274TIP3    H270314   4.492   1.774   4.849  0.3039  1.5983  1.9414
16275TIP3   OH270315   1.691   4.577  15.435  0.4802  0.4047 -0.5807
16275TIP3    H170316   1.661   4.530  15.357  0.7687 -0.4020 -0.2067
16275TIP3    H270317   1.689   4.669  15.409 -0.2630  0.2081 -1.2594
16276TIP3   OH270318   3.646   5.480  11.209  0.0254  0.2805  0.5781
16276TIP3    H170319   3.700   5.421  11.261 -0.0254  0.9647  1.4118
16276TIP3    H270320   3.613   5.425  11.137  3.7792  0.4361 -1.3679
16277TIP3   OH270321   4.527   0.518   1.219 -0.0685  0.2989  0.0015
16277TIP3    H170322   4.577   0.437   1.235 -2.1015 -1.1051 -0.5395
16277TIP3    H270323   4.536   0.533   1.125  1.6115  1.6105  0.3535
16278TIP3   OH270324   1.825   4.231  14.814  0.2316  0.2390 -0.1619
16278TIP3    H170325   1.910   4.228  14.858  0.7833  1.7169 -1.1043
16278TIP3    H270326   1.761   4.215  14.884  1.1149  2.2039  1.1452
16279TIP3   OH270327   2.009   4.357   3.460  0.0775 -0.2442  0.2083
16279TIP3    H170328   1.958   4.277   3.469  0.4538 -0.4399  0.6129
16279TIP3    H270329   1.944   4.427   3.470 -0.0297 -0.4888  1.3285
16280TIP3   OH270330   2.655   0.532  16.150  0.5418  0.3274  0.2774
16280TIP3    H170331   2.601   0.611  16.153 -0.1319 -0.0961 -0.4459
16280TIP3    H270332   2.629   0.482  16.227 -2.1013 -1.1456 -1.4977
16281TIP3   OH270333   3.876   5.167   5.179  0.2424  0.0422  0.0983
16281TIP3    H170334   3.803   5.105   5.187 -0.6036  0.7164 -1.9664
16281TIP3    H270335   3.890   5.200   5.268 -3.4396  1.5397  0.2044
16282TIP3   OH270336   0.659   2.342   2.984  0.3058  0.2325 -0.0592
16282TIP3    H170337   0.723   2.412   2.993 -1.0683  1.5032  0.0891
16282TIP3    H270338   0.611   2.363   2.903  2.3046 -2.5775 -2.1004
16283TIP3   OH270339   1.605   0.377  11.902 -0.0080  0.3967 -0.1088
16283TIP3    H170340   1.636   0.331  11.824 -0.4672  1.0980 -0.7188
16283TIP3    H270341   1.547   0.315  11.945 -1.1878  0.6562 -1.3041
16284TIP3   OH270342   6.142   1.832   5.723  0.5484  0.4318 -0.0344
16284TIP3    H170343   6.115   1.780   5.647 -0.3867  1.6046 -0.5276
16284TIP3    H270344   6.153   1.920   5.689  1.4698  0.7099  0.9321
16285TIP3   OH270345   5.706   3.682  17.209  0.6613 -0.3499  0.8127
16285TIP3    H170346   5.628   3.636  17.177 -0.1562  0.6104  1.4219
16285TIP3    H270347   5.700   3.769  17.169  1.5634 -0.3579  0.6514
16286TIP3   OH270348   1.050   6.272   5.242  0.0677  0.4222  0.0324
16286TIP3    H170349   1.133   6.281   5.288 -0.2776  2.1494  0.3601
16286TIP3    H270350   1.007   6.357   5.253 -0.5236  0.4839 -2.4966
16287TIP3   OH270351   6.371   2.673  13.588  0.4178  0.0915  0.5170
16287TIP3    H170352   6.448   2.730  13.597  0.0936  0.7155 -0.5744
16287TIP3    H270353   6.374   2.644  13.497  1.3427 -2.7616  1.4136
16288TIP3   OH270354   4.931   0.555   1.342  0.6479 -0.5322  0.2723
16288TIP3    H170355   5.006   0.601   1.304 -0.9962  0.7445 -1.4961
16288TIP3    H270356   4.970   0.490   1.400  3.0858  1.1055  0.5201
16289TIP3   OH270357   6.359   3.430  16.005 -0.4169 -0.1846  0.0948
16289TIP3    H170358   6.281   3.377  16.022 -0.4853 -0.0681  0.1471
16289TIP3    H270359   6.394   3.448  16.093 -1.1236  0.9493  0.1517
16290TIP3   OH270360   1.827   2.926  16.169  0.5726 -0.4395 -0.3863
16290TIP3    H170361   1.813   2.832  16.157 -0.6384 -0.3099 -0.0451
16290TIP3    H270362   1.836   2.937  16.264  1.4776 -0.3129 -0.4875
16291TIP3   OH270363   1.859   5.660   0.261 -0.1243 -0.5735  0.2522
16291TIP3    H170364   1.803   5.673   0.185 -1.1806 -2.5327  0.6399
16291TIP3    H270365   1.911   5.740   0.268 -1.4104  0.4198 -1.3484
16292TIP3   OH270366   5.323   5.233   4.470 -0.5823  0.0381 -0.0275
16292TIP3    H170367   5.304   5.325   4.489  1.3193  0.7702 -1.4647
16292TIP3    H270368   5.345   5.195   4.555 -1.2262  0.9531  0.5504
16293TIP3   OH270369   6.027   4.942  15.914  0.4972  0.3895 -0.2086
16293TIP3    H170370   5.951   4.984  15.874 -0.8423 -1.3089  0.4576
16293TIP3    H270371   5.990   4.887  15.983  2.1294 -1.9913 -1.1535
16294TIP3   OH270372   6.811   1.405  14.395 -0.4933 -0.1800  0.0829
16294TIP3    H170373   6.884   1.442  14.346  0.6868 -2.9792 -0.3842
16294TIP3    H270374   6.744   1.384  14.329 -0.6501  0.0047  0.1826
16295TIP3   OH270375   0.868   4.189   6.510 -0.1157  0.0253  0.2689
16295TIP3    H170376   0.947   4.242   6.512 -1.0461  1.4084  1.1601
16295TIP3    H270377   0.892   4.112   6.459  1.1828  1.4252 -1.2903
16296TIP3   OH270378   1.362   2.731  15.271  0.0844 -0.6273  0.1704
16296TIP3    H170379   1.323   2.787  15.204  0.5473 -1.2678 -0.6498
16296TIP3    H270380   1.294   2.721  15.337 -0.1958  0.4345  0.0495
16297TIP3   OH270381   5.470   1.955   5.072  0.0811  0.1327  0.2474
16297TIP3    H170382   5.511   1.922   4.991  0.1265 -0.3755  0.4772
16297TIP3    H270383   5.485   1.886   5.136  1.7577  1.3859  1.2271
16298TIP3   OH270384   4.440   4.239   0.022  0.1613 -0.1497 -0.1371
16298TIP3    H170385   4.501   4.303   0.058 -0.1529 -0.5366  1.1414
16298TIP3    H270386   4.394   4.205   0.099 -0.1957 -1.3633 -0.8724
16299TIP3   OH270387   4.725   3.358  17.217 -0.2149  0.0678  0.2353
16299TIP3    H170388   4.796   3.367  17.154 -0.4524  0.5979  0.0431
16299TIP3    H270389   4.658   3.307  17.172 -0.7602  1.2135 -0.2549
16300TIP3   OH270390   4.098   0.651   3.108 -0.0973  0.1520 -0.3495
16300TIP3    H170391   4.095   0.666   3.203 -1.6778  2.3731 -0.7189
16300TIP3    H270392   4.064   0.562   3.097  0.7984 -0.4011  1.2217
16301TIP3   OH270393   0.683   6.020   2.098 -0.6457 -0.0564  0.7675
16301TIP3    H170394   0.752   6.057   2.153 -1.9737  0.6832  1.9474
16301TIP3    H270395   0.642   5.953   2.152 -0.4032 -1.0025 -0.1903
16302TIP3   OH270396   1.169   2.460  14.755  0.1799 -0.0823  0.0920
16302TIP3    H170397   1.139   2.469  14.845  0.2840 -1.5552  0.2899
16302TIP3    H270398   1.199   2.370  14.749  0.5417  0.1225 -1.3103
16303TIP3   OH270399   0.132   1.222  14.868  0.5369  0.2704 -0.2457
16303TIP3    H170400   0.209   1.227  14.812  0.9712 -1.5693  0.1284
16303TIP3    H270401   0.162   1.255  14.953  0.5313  0.8621 -0.4765
16304TIP3   OH270402   1.247   5.565  16.481  0.4297  0.3755  0.1378
16304TIP3    H170403   1.263   5.655  16.508 -0.6290  0.2740  1.1262
16304TIP3    H270404   1.154   5.550  16.499  0.0326 -0.1781 -2.1566
16305TIP3   OH270405   0.661   2.409   5.949 -0.3559  0.2052 -0.5817
16305TIP3    H170406   0.606   2.440   5.877 -1.4807 -0.5221 -0.0607
16305TIP3    H270407   0.710   2.486   5.977 -0.2308  0.5943 -1.8345
16306TIP3   OH270408   5.154   3.157  16.306  0.4918 -0.7753  0.8329
16306TIP3    H170409   5.103   3.206  16.370  2.9541  0.5771  1.8275
16306TIP3    H270410   5.163   3.070  16.345 -3.4657 -1.9891 -0.7109
16307TIP3   OH270411   3.220   4.991   2.683  0.2093  0.0548  0.1902
16307TIP3    H170412   3.244   5.017   2.594 -3.1987 -1.5552 -1.3385
16307TIP3    H270413   3.127   5.013   2.690 -0.3598 -2.6402  2.2183
16308TIP3   OH270414   5.671   4.920  17.155  0.2956 -0.1325 -0.3726
16308TIP3    H170415   5.670   4.910  17.060  1.5200  0.4578 -0.4596
16308TIP3    H270416   5.763   4.905  17.179  0.0780  0.1796  0.6575
16309TIP3   OH270417   2.156   6.722  15.508  0.0856 -0.1006 -0.5457
16309TIP3    H170418   2.154   6.814  15.480 -1.5435 -0.9037 -3.1143
16309TIP3    H270419   2.173   6.672  15.428  0.1838 -2.1084  0.6935
16310TIP3   OH270420   3.726   3.491   3.437  0.2573 -0.0951  0.0215
16310TIP3    H170421   3.721   3.397   3.420  0.6786 -0.1156 -0.0018
16310TIP3    H270422   3.817   3.513   3.419  0.9499 -0.2584  3.1043
16311TIP3   OH270423   5.560   4.526  15.324  0.1203 -0.1920  0.2099
16311TIP3    H170424   5.653   4.506  15.320  0.1974  0.3412 -0.6276
16311TIP3    H270425   5.544   4.584  15.250 -1.0652 -1.0353 -0.1994
16312TIP3   OH270426   1.873   5.342   2.951 -0.2317  0.3351  0.6887
16312TIP3    H170427   1.835   5.259   2.979 -0.4810  0.4708  0.7539
16312TIP3    H270428   1.869   5.397   3.029  2.7294 -0.5689  1.5551
16313TIP3   OH270429   5.047   3.443   5.119 -0.4631 -0.0290  0.4804
16313TIP3    H170430   5.012   3.365   5.162  1.3662 -0.4250  1.3285
16313TIP3    H270431   5.105   3.409   5.051  1.0950  0.5643  1.4900
16314TIP3   OH270432   3.261   5.476  15.529 -0.0706  0.2711 -0.0763
16314TIP3    H170433   3.184   5.534  15.533  0.1723  0.6079 -0.2079
16314TIP3    H270434   3.329   5.524  15.577  0.3138  0.3718 -0.7169
16315TIP3   OH270435   3.556   0.903  13.257  0.2590 -0.3268  0.2003
16315TIP3    H170436   3.520   0.852  13.330  1.9648 -0.4894  0.9593
16315TIP3    H270437   3.485   0.961  13.231 -0.5925 -0.7157  1.5754
16316TIP3   OH270438   6.582   2.426   5.444 -0.0975 -0.9412 -0.7635
16316TIP3    H170439   6.549   2.505   5.401  1.0654 -0.9708 -1.7396
16316TIP3    H270440   6.593   2.452   5.536 -0.6764 -0.2695 -0.8771
16317TIP3   OH270441   1.795   5.850   2.313 -0.2403  0.3684 -0.0744
16317TIP3    H170442   1.842   5.774   2.280 -0.5342  0.7212 -1.3400
16317TIP3    H270443   1.823   5.858   2.404 -1.0966 -1.9277  0.4215
16318TIP3   OH270444   4.855   6.122   0.638 -0.2653 -0.7576  0.3319
16318TIP3    H170445   4.769   6.091   0.610 -0.4397 -1.4960  1.6160
16318TIP3    H270446   4.848   6.126   0.734  1.5221 -2.0785  0.5464
16319TIP3   OH270447   5.108   5.709  13.444 -0.6643  0.2809  0.2886
16319TIP3    H170448   5.036   5.739  13.500 -1.1091  1.8820 -1.0726
16319TIP3    H270449   5.067   5.653  13.379 -0.4256 -0.1383  0.4961
16320TIP3   OH270450   6.142   6.380  16.419  0.2784  0.6113 -0.4601
16320TIP3    H170451   6.058   6.384  16.466  0.1261 -2.5409 -0.4106
16320TIP3    H270452   6.118   6.391  16.327 -0.3116 -1.1755 -0.5330
16321TIP3   OH270453   3.966   0.909  11.534 -0.0976 -0.1383 -0.7078
16321TIP3    H170454   4.000   0.963  11.606 -1.3440 -1.5139  0.9781
16321TIP3    H270455   3.931   0.972  11.471  2.2996  1.1557 -0.8170
16322TIP3   OH270456   2.460   6.266  16.592  0.1004  0.1115 -0.1166
16322TIP3    H170457   2.545   6.267  16.548  0.4420 -2.1672  0.4592
16322TIP3    H270458   2.481   6.265  16.685 -0.6023  1.4209  0.0796
16323TIP3   OH270459   0.111   2.047  12.713 -0.7728  0.7585  0.0103
16323TIP3    H170460   0.018   2.068  12.716 -0.5200  2.0421 -0.6597
16323TIP3    H270461   0.155   2.131  12.731  0.2530  0.2021  0.1516
16324TIP3   OH270462   6.594   0.020   1.365 -0.0649 -0.1348  0.1208
16324TIP3    H170463   6.603   0.110   1.398 -0.5418 -0.1952  0.4154
16324TIP3    H270464   6.666   0.011   1.303  1.1146 -0.1584  1.4517
16325TIP3   OH270465   0.617   2.997   6.684 -0.1166  0.0576 -0.1254
16325TIP3    H170466   0.534   3.034   6.656 -0.0275 -0.0686 -0.5663
16325TIP3    H270467   0.652   2.954   6.605  0.5360  0.4270 -0.0409
16326TIP3   OH270468   5.420   5.986   2.580 -0.1483  0.1772 -0.2293
16326TIP3    H170469   5.411   5.937   2.498 -0.7957  1.0215 -0.6637
16326TIP3    H270470   5.456   6.070   2.554 -1.9356  1.0662  0.1591
16327TIP3   OH270471   4.978   1.206   2.158 -0.0444 -0.2334  0.3861
16327TIP3    H170472   4.909   1.228   2.220 -1.7084 -3.2708 -0.3200
16327TIP3    H270473   5.036   1.148   2.207  1.0516  0.8446  0.4021
16328TIP3   OH270474   5.195   4.709   4.123 -0.2960 -0.3410 -0.1502
16328TIP3    H170475   5.286   4.732   4.108 -0.1570 -1.4057 -1.0592
16328TIP3    H270476   5.146   4.790   4.106  0.3448 -0.1611 -1.1643
16329TIP3   OH270477   6.328   2.686  11.063  0.4705  0.1016 -0.0357
16329TIP3    H170478   6.310   2.619  11.130 -0.0120  1.5855  1.3544
16329TIP3    H270479   6.274   2.760  11.089  0.8595  0.9837 -1.6807
16330TIP3   OH270480   2.470   4.172  12.274 -0.4367 -0.0492  0.2559
16330TIP3    H170481   2.558   4.176  12.313 -0.8659  2.2862  1.0618
16330TIP3    H270482   2.419   4.236  12.323 -1.8946  0.5476 -1.9794
16331TIP3   OH270483   4.556   1.612  16.774 -0.4368  0.1324  0.3033
16331TIP3    H170484   4.571   1.620  16.680 -0.6103  1.1819  0.3584
16331TIP3    H270485   4.497   1.684  16.795  0.4590  0.5557  1.4022
16332TIP3   OH270486   4.804   4.887  16.030  0.5775  0.0792  0.1824
16332TIP3    H170487   4.746   4.919  15.961  0.9069 -0.3042 -0.2774
16332TIP3    H270488   4.749   4.832  16.085 -0.1861  2.0595  1.4303
16333TIP3   OH270489   5.288   4.312   0.773  0.3445 -0.3548  0.4474
16333TIP3    H170490   5.238   4.351   0.845  2.4347  4.2563 -0.4397
16333TIP3    H270491   5.379   4.332   0.795  1.1994 -1.3444 -2.1132
16334TIP3   OH270492   2.045   1.894  12.153 -0.1208 -0.1619  0.7368
16334TIP3    H170493   2.096   1.867  12.230  1.8195 -1.2666 -0.8958
16334TIP3    H270494   2.054   1.990  12.151  0.6505 -0.2167  1.3246
16335TIP3   OH270495   1.670   4.490  13.887 -0.7164 -0.0159 -0.0517
16335TIP3    H170496   1.586   4.520  13.923 -1.3685 -1.2678 -0.4926
16335TIP3    H270497   1.673   4.527  13.799 -1.1445 -0.5601 -0.2993
16336TIP3   OH270498   6.761   4.890   4.780 -0.1899  0.3797 -0.1645
16336TIP3    H170499   6.831   4.918   4.721  1.9113 -0.5494  1.8117
16336TIP3    H270500   6.694   4.958   4.773  1.5784  2.0564 -0.9603
16337TIP3   OH270501   4.053   1.358  17.267  0.2525 -0.6148  0.0625
16337TIP3    H170502   4.125   1.421  17.275  0.9133 -1.1885 -1.1388
16337TIP3    H270503   4.027   1.339  17.357 -1.1233  2.6703  0.4358
16338TIP3   OH270504   4.340   3.668  16.698 -0.0354 -0.0647  0.4072
16338TIP3    H170505   4.258   3.713  16.718  0.8696  2.3768 -1.2573
16338TIP3    H270506   4.382   3.655  16.783 -1.2398  0.3961  1.0810
16339TIP3   OH270507   6.290   2.372   2.352 -0.2051 -0.2087 -0.3423
16339TIP3    H170508   6.345   2.353   2.428  1.3914  1.5934 -1.0310
16339TIP3    H270509   6.225   2.434   2.384 -0.5342 -0.6889 -0.0661
16340TIP3   OH270510   1.072   0.915   3.427  0.2841 -0.2926  0.4602
16340TIP3    H170511   1.157   0.884   3.395 -0.6889 -1.9042 -0.6043
16340TIP3    H270512   1.041   0.847   3.486  0.6307  1.2359  2.4506
16341TIP3   OH270513   0.963   1.729  16.797 -0.2317  0.5948 -0.0526
16341TIP3    H170514   0.967   1.649  16.744 -1.1064 -0.2578  1.1443
16341TIP3    H270515   0.902   1.786  16.750  0.1513  0.4432 -0.7424
16342TIP3   OH270516   5.110   2.634   1.168  0.6097  0.5821  0.2335
16342TIP3    H170517   5.090   2.726   1.183 -0.8494  0.3747 -0.4040
16342TIP3    H270518   5.103   2.622   1.074  0.8231 -0.1861  0.3052
16343TIP3   OH270519   4.335   5.482   2.230  0.8314 -0.1020  0.0477
16343TIP3    H170520   4.397   5.553   2.248  0.0020  0.8216 -0.6769
16343TIP3    H270521   4.261   5.499   2.288 -0.1686  0.6931 -1.4179
16344TIP3   OH270522   6.119   2.424  11.078  0.6094 -0.1124  0.2912
16344TIP3    H170523   6.097   2.398  11.168  0.0963 -0.9899 -0.0880
16344TIP3    H270524   6.093   2.350  11.024 -0.1878  0.8852 -0.7283
16345TIP3   OH270525   0.086   0.310  13.830  0.1206 -0.3342  0.5505
16345TIP3    H170526   0.055   0.387  13.781  3.6773  0.9030  0.0760
16345TIP3    H270527   0.054   0.235  13.779  0.2329  0.8990 -1.4100
16346TIP3   OH270528   3.427   5.806  14.673 -0.6448  0.0235 -0.4687
16346TIP3    H170529   3.391   5.875  14.617 -0.8253 -0.2714 -0.7141
16346TIP3    H270530   3.373   5.808  14.752  0.3071  1.1894  0.1709
16347TIP3   OH270531   5.219   3.112   3.145 -0.0672 -0.0573 -0.0066
16347TIP3    H170532   5.269   3.032   3.159 -2.0134 -1.1382  0.8916
16347TIP3    H270533   5.269   3.180   3.191  0.3847 -1.1860  1.1810
16348TIP3   OH270534   5.756   0.110   0.793  0.6545  0.7917 -0.7012
16348TIP3    H170535   5.684   0.052   0.815  1.4193  0.4378  0.9653
16348TIP3    H270536   5.827   0.051   0.768  1.7146  0.9124  1.8397
16349TIP3   OH270537   6.370   0.238   1.376  0.2567 -0.2579 -0.2555
16349TIP3    H170538   6.388   0.249   1.283  1.8860  1.0061  0.1800
16349TIP3    H270539   6.453   0.258   1.419 -1.0915  1.6131  1.6051
16350TIP3   OH270540   0.423   4.777   2.205  0.0019  0.2489  0.3468
16350TIP3    H170541   0.375   4.852   2.170 -2.0797 -1.2991 -0.1804
16350TIP3    H270542   0.481   4.750   2.135  0.0943  0.7810  0.2138
16351TIP3   OH270543   6.517   2.494   1.773  0.3346  0.2376 -0.4701
16351TIP3    H170544   6.575   2.556   1.816  1.3543 -0.8912 -0.1774
16351TIP3    H270545   6.566   2.464   1.697 -0.2143 -0.0746 -0.7044
16352TIP3   OH270546   0.100   6.227  14.510 -0.1930  0.1801  0.1492
16352TIP3    H170547   0.006   6.230  14.531 -0.0378  0.2397  0.8528
16352TIP3    H270548   0.139   6.292  14.568  0.3212 -0.0336  0.0427
16353TIP3   OH270549   1.304   0.754   4.359  0.0551  0.1365 -0.1035
16353TIP3    H170550   1.263   0.798   4.433  2.4680 -1.5412  2.3392
16353TIP3    H270551   1.271   0.664   4.363 -0.7851  0.3173 -1.9147
16354TIP3   OH270552   2.678   3.456  13.710  1.0240 -0.4455 -0.0786
16354TIP3    H170553   2.749   3.429  13.769  2.1811 -2.0749 -2.1479
16354TIP3    H270554   2.647   3.375  13.671 -1.6155  0.3260  0.3218
16355TIP3   OH270555   1.433   4.393   0.245  0.2358  0.4726 -0.1844
16355TIP3    H170556   1.490   4.329   0.287 -0.7915  0.1560  0.7336
16355TIP3    H270557   1.460   4.392   0.153  1.7310  0.3580  0.2366
16356TIP3   OH270558   5.496   2.102   6.919  0.3058 -0.0739  0.0064
16356TIP3    H170559   5.523   2.122   6.829  2.9069 -1.0829  0.5327
16356TIP3    H270560   5.531   2.174   6.971 -2.3562  1.2298  0.0933
16357TIP3   OH270561   0.346   1.691  11.711 -0.0597  0.1595 -0.7127
16357TIP3    H170562   0.250   1.689  11.720  0.1330 -0.4734  1.5632
16357TIP3    H270563   0.361   1.710  11.618 -2.3941  1.0590 -0.9473
16358TIP3   OH270564   3.526   1.904   4.748 -0.2409 -0.5263 -0.2071
16358TIP3    H170565   3.610   1.917   4.792 -1.2363 -1.3623  2.0446
16358TIP3    H270566   3.507   1.811   4.759  0.0135 -1.0306 -3.5066
16359TIP3   OH270567   0.379   4.875   0.071 -0.1126 -0.0481 -0.2277
16359TIP3    H170568   0.304   4.818   0.057  0.1839 -0.5569  0.2251
16359TIP3    H270569   0.455   4.818   0.058  0.1791 -0.0317  1.3455
16360TIP3   OH270570   4.774   0.831   4.943  0.1579 -0.1671  0.4280
16360TIP3    H170571   4.868   0.814   4.952  0.1591  0.9124  2.7071
16360TIP3    H270572   4.750   0.876   5.024 -2.0085  1.0295 -0.8503
16361TIP3   OH270573   5.221   6.372  12.116  0.3108 -0.1715  0.1215
16361TIP3    H170574   5.169   6.321  12.054  1.0089 -0.2896 -0.3720
16361TIP3    H270575   5.179   6.458  12.117 -1.7779 -1.1796  2.0973
16362TIP3   OH270576   2.243   4.019  10.894  0.2248 -0.5413 -0.3096
16362TIP3    H170577   2.254   3.930  10.928 -0.1027 -1.3374 -2.2069
16362TIP3    H270578   2.292   4.019  10.812 -1.8053  0.2902 -1.5449
16363TIP3   OH270579   6.025   5.313  11.831  0.5184  0.2654  0.1506
16363TIP3    H170580   6.108   5.347  11.799  0.7420 -1.2037 -0.8915
16363TIP3    H270581   6.035   5.308  11.926  1.4501  0.5431  0.0620
16364TIP3   OH270582   1.547   3.823   1.579 -0.2715 -0.0064 -0.5712
16364TIP3    H170583   1.520   3.915   1.574  0.5973  0.3297  0.6858
16364TIP3    H270584   1.532   3.799   1.671  1.1074 -0.6130 -0.5009
16365TIP3   OH270585   3.575   4.114  15.439 -0.0139  0.4767 -0.1275
16365TIP3    H170586   3.537   4.058  15.371  0.5140  0.2151 -0.2144
16365TIP3    H270587   3.575   4.202  15.401  0.9915  0.2121 -0.7851
16366TIP3   OH270588   3.627   4.405   5.400  0.4597 -0.3216 -0.1263
16366TIP3    H170589   3.663   4.480   5.447  0.9766 -0.6221 -0.0361
16366TIP3    H270590   3.584   4.352   5.467 -1.0872  0.5759 -0.3926
16367TIP3   OH270591   0.460   3.853  16.940  0.4112  0.4056  0.6052
16367TIP3    H170592   0.516   3.892  17.007  2.7019 -0.9488 -0.4499
16367TIP3    H270593   0.407   3.788  16.987  1.9833 -0.5250  1.1405
16368TIP3   OH270594   0.464   3.797   3.905  0.2876 -0.4607 -0.3582
16368TIP3    H170595   0.411   3.721   3.882  0.4253 -1.0569  1.2721
16368TIP3    H270596   0.402   3.860   3.942  0.6275 -0.9955  1.1584
16369TIP3   OH270597   3.354   4.276  13.138 -0.0428 -0.2024 -0.0937
16369TIP3    H170598   3.426   4.281  13.201 -0.2328  0.3662  0.0808
16369TIP3    H270599   3.396   4.283  13.053  0.3303 -1.9941 -0.0923
16370TIP3   OH270600   3.623   3.439  11.671 -0.6923 -0.2038  0.5047
16370TIP3    H170601   3.579   3.469  11.750 -1.7083  0.1116 -0.1639
16370TIP3    H270602   3.663   3.517  11.634  0.2171 -0.4422  0.9678
16371TIP3   OH270603   5.628   1.240   3.130  0.2422 -0.1982 -0.1465
16371TIP3    H170604   5.694   1.301   3.162  2.3961 -1.6876 -1.6198
16371TIP3    H270605   5.622   1.259   3.036  0.0690 -1.4807 -0.3935
16372TIP3   OH270606   0.298   6.121   2.463 -0.6680  0.2135 -0.5782
16372TIP3    H170607   0.256   6.036   2.471  0.3067 -0.2117  0.1349
16372TIP3    H270608   0.325   6.127   2.371  0.1068 -0.6536 -0.4111
16373TIP3   OH270609   5.863   0.443   6.042 -0.5810 -0.4566  0.2647
16373TIP3    H170610   5.871   0.355   6.077 -1.2679 -0.4234  0.5178
16373TIP3    H270611   5.778   0.474   6.073  0.0214  0.6195  0.9168
16374TIP3   OH270612   4.967   2.852   5.453 -0.9027 -0.2034  0.0148
16374TIP3    H170613   4.940   2.944   5.453 -1.0121 -0.2310  1.0360
16374TIP3    H270614   5.051   2.852   5.407 -0.3854  0.5703  0.9411
16375TIP3   OH270615   0.475   1.903   5.483  0.1445  0.5290 -0.9255
16375TIP3    H170616   0.465   1.961   5.558  1.1764 -0.5842  0.1192
16375TIP3    H270617   0.405   1.928   5.423 -2.0945 -0.0247  1.3630
16376TIP3   OH270618   2.108   6.314   5.346  0.4488 -0.2966  0.0866
16376TIP3    H170619   2.029   6.359   5.376 -0.1632 -1.0239 -0.4292
16376TIP3    H270620   2.155   6.381   5.296  0.7773  0.5040  1.4277
16377TIP3   OH270621   1.766   0.812  13.354 -0.7406  0.5030 -0.5279
16377TIP3    H170622   1.779   0.720  13.376 -1.4539 -0.3893 -3.6178
16377TIP3    H270623   1.671   0.825  13.356 -0.6754  1.0309 -0.6365
16378TIP3   OH270624   2.568   2.906   0.130  0.1194  0.1625 -0.1450
16378TIP3    H170625   2.527   2.987   0.162 -1.3473 -0.2300 -0.9887
16378TIP3    H270626   2.604   2.865   0.208  0.6071  1.4808  0.3424
16379TIP3   OH270627   0.780   4.122   1.852  0.0885 -0.1257  0.3947
16379TIP3    H170628   0.685   4.122   1.862 -0.1991 -1.2862 -2.0517
16379TIP3    H270629   0.804   4.215   1.848 -0.8167  0.1859  1.7685
16380TIP3   OH270630   4.456   4.845  17.214  0.0932 -0.3692 -0.1621
16380TIP3    H170631   4.482   4.923  17.264  2.9284 -1.9564  0.9475
16380TIP3    H270632   4.475   4.772  17.273 -0.3549 -2.0503 -2.0692
16381TIP3   OH270633   4.180   2.429   3.249  0.1565  0.1440 -0.9294
16381TIP3    H170634   4.183   2.344   3.292 -0.9211  0.0671 -0.9871
16381TIP3    H270635   4.141   2.412   3.163  1.2507  0.4763 -1.5052
16382TIP3   OH270636   5.072   4.651  16.609 -0.6606  0.3622 -0.0912
16382TIP3    H170637   5.120   4.683  16.686 -0.0648  2.3703 -1.2707
16382TIP3    H270638   4.979   4.659  16.634 -0.4530 -0.5640  1.0241
16383TIP3   OH270639   2.678   2.891  14.785 -0.1059  0.3429 -0.1765
16383TIP3    H170640   2.628   2.925  14.712 -0.7324 -1.1797 -0.4800
16383TIP3    H270641   2.740   2.961  14.807 -1.4276  1.6898 -0.6818
16384TIP3   OH270642   2.641   3.986  11.467 -0.3874  0.1979  0.2294
16384TIP3    H170643   2.587   3.910  11.489  0.5321 -0.5302 -0.0029
16384TIP3    H270644   2.730   3.959  11.488  0.3191  0.1306 -2.6052
16385TIP3   OH270645   5.328   2.736  13.766  0.1547 -0.2564  0.3251
16385TIP3    H170646   5.357   2.650  13.736 -1.2046 -0.9403  0.9355
16385TIP3    H270647   5.352   2.796  13.695 -0.4412 -1.4065 -0.8570
16386TIP3   OH270648   6.688   5.611   1.737 -0.4021 -0.2859 -0.1314
16386TIP3    H170649   6.658   5.522   1.753  0.1580  0.0006  2.9873
16386TIP3    H270650   6.682   5.623   1.642  0.8619 -4.0959 -0.7553
16387TIP3   OH270651   1.327   1.869  14.453 -0.3686 -0.2424 -0.3947
16387TIP3    H170652   1.391   1.936  14.428 -0.1601 -0.7937 -1.3497
16387TIP3    H270653   1.332   1.804  14.384  0.4244 -1.9351  1.2122
16388TIP3   OH270654   1.134   0.788  11.782 -0.0931  0.0471 -0.3091
16388TIP3    H170655   1.114   0.777  11.689  1.0203 -2.4725 -0.2870
16388TIP3    H270656   1.119   0.702  11.820 -0.9110  1.1593  1.9379
16389TIP3   OH270657   4.860   1.161   3.344  0.4853  0.0546 -0.2395
16389TIP3    H170658   4.889   1.164   3.253 -0.0064  1.0498 -0.3746
16389TIP3    H270659   4.768   1.137   3.339  0.2622  0.8741 -0.0496
16390TIP3   OH270660   4.759   6.809  14.246 -0.1114 -0.3478  0.1032
16390TIP3    H170661   4.771   6.806  14.152 -0.0226 -1.2714  0.1483
16390TIP3    H270662   4.835   6.858  14.278 -0.7223  0.9683 -0.3984
16391TIP3   OH270663   1.672   4.886  12.401  0.6980 -0.4136  0.3852
16391TIP3    H170664   1.714   4.971  12.393 -1.1647  0.6071  1.0907
16391TIP3    H270665   1.658   4.875  12.495 -0.5480 -0.7367  0.1728
16392TIP3   OH270666   6.517   5.208  16.763  0.0380  0.0951  0.4065
16392TIP3    H170667   6.485   5.249  16.843 -1.0842 -0.6640  0.3572
16392TIP3    H270668   6.491   5.116  16.771  0.4192 -0.1062 -0.5706
16393TIP3   OH270669   5.353   0.733  11.790 -0.3397 -0.0902 -0.1146
16393TIP3    H170670   5.313   0.654  11.828  0.1304 -0.4036 -0.2739
16393TIP3    H270671   5.443   0.707  11.770 -0.2019  0.4712 -0.2207
16394TIP3   OH270672   5.003   2.491   4.945  0.5284  0.4923 -0.0339
16394TIP3    H170673   4.934   2.432   4.977  0.8187  1.0925  1.7648
16394TIP3    H270674   5.082   2.438   4.944 -0.0679 -0.4021 -2.7934
16395TIP3   OH270675   1.710   2.125   4.431 -1.0465  0.0708  0.0040
16395TIP3    H170676   1.684   2.086   4.347 -0.8418 -3.2460  1.4160
16395TIP3    H270677   1.635   2.110   4.488 -0.4917  0.7440  0.9114
16396TIP3   OH270678   4.052   5.733  13.247  0.4985 -0.5307 -0.0697
16396TIP3    H170679   4.106   5.704  13.321 -1.4904  2.0150  2.4618
16396TIP3    H270680   4.077   5.824  13.233 -1.7155  0.0955 -0.1171
16397TIP3   OH270681   4.872   6.591   3.302  0.3243  0.2042  0.3847
16397TIP3    H170682   4.893   6.540   3.380 -1.2596 -0.3060  0.4835
16397TIP3    H270683   4.954   6.594   3.253  0.2928 -2.9821  0.0578
16398TIP3   OH270684   2.204   2.554   5.517 -0.0099  0.1472  0.3095
16398TIP3    H170685   2.197   2.638   5.562  0.9287  1.0595 -1.1938
16398TIP3    H270686   2.282   2.513   5.554  0.5826  0.7571 -0.2458
16399TIP3   OH270687   0.347   1.858   2.364 -0.0939 -0.3716 -0.2155
16399TIP3    H170688   0.373   1.767   2.356 -1.0875 -0.6697 -0.0092
16399TIP3    H270689   0.370   1.883   2.453  3.8666  0.7481 -1.4265
16400TIP3   OH270690   1.188   3.593   5.840 -0.2527  0.6635 -0.0350
16400TIP3    H170691   1.223   3.509   5.810  1.2330  1.0058  0.6941
16400TIP3    H270692   1.264   3.651   5.841 -0.6799  1.2154  2.3123
16401TIP3   OH270693   2.995   4.579   3.867 -1.4066 -0.3512 -0.4223
16401TIP3    H170694   2.988   4.513   3.798  0.9374 -0.0027 -1.0490
16401TIP3    H270695   3.075   4.557   3.914 -0.8747  1.7097 -0.3026
16402TIP3   OH270696   1.034   0.376  10.812 -0.5735 -0.0701 -0.9272
16402TIP3    H170697   0.962   0.354  10.870 -0.3386  0.7730 -0.3005
16402TIP3    H270698   1.029   0.312  10.741 -0.3132 -1.6813  0.4844
16403TIP3   OH270699   2.028   2.248  13.900  0.0182 -0.2026  0.0267
16403TIP3    H170700   2.115   2.272  13.868 -0.2672  0.1666 -0.4756
16403TIP3    H270701   2.028   2.152  13.902  0.4512 -0.2009  0.0778
16404TIP3   OH270702   0.491   4.727   1.925 -0.4749  0.3231  0.3957
16404TIP3    H170703   0.501   4.677   1.844 -1.2708  1.6058 -0.5049
16404TIP3    H270704   0.401   4.710   1.952 -0.1918 -0.1605  1.0823
16405TIP3   OH270705   1.147   0.000  15.652 -0.0206 -0.7229 -0.9065
16405TIP3    H170706   1.081   0.054  15.696 -0.2534 -1.5013 -0.2980
16405TIP3    H270707   1.204  -0.032  15.722  1.0154 -0.0655 -1.4244
16406TIP3   OH270708   4.302   4.037  14.602 -0.7153  0.3287 -0.0514
16406TIP3    H170709   4.370   3.989  14.555 -0.9577  1.1162 -1.2093
16406TIP3    H270710   4.323   4.024  14.695  1.0844  0.6641 -0.4003
16407TIP3   OH270711   2.997   6.786   4.406  0.1359  0.2198  1.0794
16407TIP3    H170712   3.029   6.699   4.383  2.2844  1.3129 -0.2862
16407TIP3    H270713   2.976   6.781   4.499 -0.6949 -2.0032  0.7960
16408TIP3   OH270714   1.533   1.633   1.404  0.0359 -0.1657  0.5465
16408TIP3    H170715   1.478   1.555   1.393 -0.7016  0.4813 -0.4163
16408TIP3    H270716   1.486   1.703   1.358  0.7217  0.8410  1.3394
16409TIP3   OH270717   4.565   3.857  11.019  0.0619  0.2824 -0.1877
16409TIP3    H170718   4.653   3.890  11.031  0.7072 -1.2555 -0.5400
16409TIP3    H270719   4.557   3.843  10.924  0.2802 -1.7951  0.0793
16410TIP3   OH270720   5.672   6.040  16.874 -0.4065 -0.1523 -0.0955
16410TIP3    H170721   5.677   5.987  16.795 -1.6605  1.0186 -0.9760
16410TIP3    H270722   5.581   6.070  16.878  0.0868  1.3123  0.7797
16411TIP3   OH270723   6.072   4.145  14.646 -0.1206  0.1561  0.5140
16411TIP3    H170724   6.062   4.223  14.700  0.8333  1.0973 -0.6471
16411TIP3    H270725   5.982   4.119  14.625 -0.4424  2.4993 -1.2746
16412TIP3   OH270726   5.974   4.441   6.562  0.0727 -0.2420  0.0188
16412TIP3    H170727   5.915   4.377   6.523  1.3107 -1.6608  0.4107
16412TIP3    H270728   6.044   4.451   6.498 -0.9633  2.0365 -0.8002
16413TIP3   OH270729   5.296   5.384  16.770  0.4038 -0.2124 -0.6567
16413TIP3    H170730   5.270   5.373  16.678  0.5258 -0.3132 -0.6787
16413TIP3    H270731   5.213   5.383  16.818  0.2735  0.6658 -0.8444
16414TIP3   OH270732   5.447   2.886  13.559  0.7307  0.3613 -0.0616
16414TIP3    H170733   5.534   2.847  13.551  1.2557  0.8789  2.4612
16414TIP3    H270734   5.463   2.979  13.573 -0.3337  0.7819 -1.4978
16415TIP3   OH270735   3.695   1.961  16.979 -0.3680 -0.5623 -0.1157
16415TIP3    H170736   3.790   1.965  16.991 -0.0927 -2.2172 -1.5534
16415TIP3    H270737   3.660   2.023  17.043  1.6910  0.2152  0.2900
16416TIP3   OH270738   3.463   3.045   5.644  0.2599 -0.3346  0.1981
16416TIP3    H170739   3.458   2.971   5.704 -1.0428 -1.1342 -0.8675
16416TIP3    H270740   3.410   3.113   5.685 -1.1171 -1.0861 -0.3262
16417TIP3   OH270741   2.248   6.647  14.886  0.2790  0.0051  0.1875
16417TIP3    H170742   2.194   6.641  14.807  0.6865 -0.2592 -0.0724
16417TIP3    H270743   2.208   6.718  14.937  0.2860  0.4762 -0.4570
16418TIP3   OH270744   3.304   2.809  11.229 -0.1020  0.4199  0.3113
16418TIP3    H170745   3.294   2.840  11.139  1.7623  0.5357  0.1310
16418TIP3    H270746   3.286   2.886  11.283  0.8552  0.8844 -0.0285
16419TIP3   OH270747   0.765   4.464  11.646  0.3598 -0.0622 -0.0267
16419TIP3    H170748   0.859   4.470  11.662  0.2713 -1.8937  1.3774
16419TIP3    H270749   0.728   4.538  11.692  1.0668  0.4020 -0.1936
16420TIP3   OH270750   2.644   3.023  10.827  0.0383  0.2245  0.7148
16420TIP3    H170751   2.665   3.002  10.737  2.2519 -0.5469  1.3872
16420TIP3    H270752   2.627   3.117  10.827 -0.5011  0.1355 -0.5859
16421TIP3   OH270753   0.991   4.554   5.757 -0.5615 -0.0674  0.1095
16421TIP3    H170754   1.023   4.614   5.691  0.8349 -2.6623 -1.6492
16421TIP3    H270755   0.903   4.586   5.778 -0.2505  1.9472 -1.5177
16422TIP3   OH270756   0.599   4.123   4.089 -0.2501  0.1285 -0.1230
16422TIP3    H170757   0.600   4.118   3.994  4.2813  1.8769 -0.3237
16422TIP3    H270758   0.661   4.056   4.117 -0.1085  0.9081  1.4819
16423TIP3   OH270759   5.333   5.160   0.792  0.7514  0.4320 -0.0037
16423TIP3    H170760   5.277   5.230   0.758 -0.4803  0.2370  1.5152
16423TIP3    H270761   5.279   5.081   0.784 -0.1233  0.5871  3.5253
16424TIP3   OH270762   2.649   3.899   4.396  0.0029  0.3370 -0.0746
16424TIP3    H170763   2.688   3.876   4.312  2.5389  0.2638  1.0944
16424TIP3    H270764   2.606   3.818   4.426  2.2204 -0.6945  0.3839
16425TIP3   OH270765   0.478   0.182   4.797  0.6204 -0.2615 -0.0349
16425TIP3    H170766   0.433   0.266   4.797 -0.9618 -1.0554 -1.5302
16425TIP3    H270767   0.571   0.203   4.793  0.2491  1.4049 -0.0872
16426TIP3   OH270768   2.666   1.588  13.948 -0.1938 -0.2966  0.2157
16426TIP3    H170769   2.737   1.565  13.888  1.1715  0.6490  1.4382
16426TIP3    H270770   2.623   1.663  13.906 -0.4524 -0.8398 -0.5023
16427TIP3   OH270771   3.770   0.130   5.066  0.7326  0.1570  0.0065
16427TIP3    H170772   3.794   0.179   4.987 -1.8709 -0.0248 -0.9485
16427TIP3    H270773   3.729   0.050   5.033  0.8916 -0.5754  1.5543
16428TIP3   OH270774   2.392   6.190   5.177 -0.8212 -0.0891  1.0601
16428TIP3    H170775   2.373   6.257   5.111  0.5570  1.0205  1.7651
16428TIP3    H270776   2.401   6.239   5.259 -0.5843 -1.2347  1.7280
16429TIP3   OH270777   5.382   2.577   2.496  0.0663  0.1164  0.1074
16429TIP3    H170778   5.364   2.633   2.421 -0.1669 -0.1745 -0.0556
16429TIP3    H270779   5.468   2.538   2.476  0.4251  0.7481  0.4244
16430TIP3   OH270780   5.699   3.366   3.644 -0.1430  0.5676 -0.3187
16430TIP3    H170781   5.683   3.453   3.681 -0.3789  0.0422  0.8409
16430TIP3    H270782   5.790   3.346   3.668  0.0647  0.6823 -0.9902
16431TIP3   OH270783   3.917   5.359  16.153 -0.2179  0.1080  0.1081
16431TIP3    H170784   3.891   5.302  16.224 -0.3421 -0.0912 -0.0963
16431TIP3    H270785   3.968   5.304  16.094  3.1825  1.2011  1.9610
16432TIP3   OH270786   2.793   5.424   4.511 -0.2711 -0.6651  0.3112
16432TIP3    H170787   2.872   5.373   4.530 -0.7357 -0.5151  2.7318
16432TIP3    H270788   2.826   5.507   4.477  0.6001 -0.8076  0.7887
16433TIP3   OH270789   4.304   4.701  15.310 -0.1804 -0.4821 -0.0601
16433TIP3    H170790   4.290   4.770  15.244  1.6641 -0.7793 -0.7962
16433TIP3    H270791   4.357   4.636  15.265  0.9334 -0.7902  1.6808
16434TIP3   OH270792   5.051   1.264  14.061  0.0227  0.0529  0.2057
16434TIP3    H170793   5.089   1.198  14.119 -0.8199 -1.3428 -0.8262
16434TIP3    H270794   5.121   1.284  13.998  0.2666  0.1255  0.4964
16435TIP3   OH270795   3.846   6.009   3.335  0.2606  0.3766 -0.5959
16435TIP3    H170796   3.864   5.949   3.262  1.4224  0.0482 -0.0349
16435TIP3    H270797   3.897   6.087   3.315 -0.4208  0.7846 -0.7759
16436TIP3   OH270798   5.675   0.132  12.591 -0.5380 -0.1433  0.4153
16436TIP3    H170799   5.621   0.055  12.607 -0.8137 -0.7878 -3.1807
16436TIP3    H270800   5.764   0.098  12.583 -0.5820 -0.0395 -0.6104
16437TIP3   OH270801   5.982   3.348   5.213  0.0791  0.1373 -0.4516
16437TIP3    H170802   6.051   3.363   5.147  1.8185  0.1140  1.3306
16437TIP3    H270803   5.951   3.260   5.195  0.9661 -0.0991 -0.8800
16438TIP3   OH270804   4.829   5.448  10.608  0.2082  0.5716  0.1099
16438TIP3    H170805   4.747   5.399  10.602  1.0375 -1.0027  1.2394
16438TIP3    H270806   4.822   5.516  10.541 -1.1578 -0.8097 -1.1628
16439TIP3   OH270807   0.259   1.731  13.239  0.3155 -0.0759  0.7743
16439TIP3    H170808   0.350   1.704  13.229  0.6940  2.2088 -3.1109
16439TIP3    H270809   0.209   1.664  13.192 -0.0254 -1.1386  2.6037
16440TIP3   OH270810   4.826   6.597   3.782  0.0987 -0.2859  0.0892
16440TIP3    H170811   4.743   6.583   3.736 -0.0618  0.1694  0.2438
16440TIP3    H270812   4.801   6.632   3.867  0.4440 -0.2527  0.1778
16441TIP3   OH270813   5.872   1.002  13.469 -0.0429 -0.1455  0.4757
16441TIP3    H170814   5.864   0.995  13.564 -0.9396  0.6760  0.4729
16441TIP3    H270815   5.965   1.019  13.454 -0.4903  3.6342  1.5023
16442TIP3   OH270816   5.610   6.161   0.161 -0.0876  0.2748  0.0797
16442TIP3    H170817   5.553   6.217   0.214 -2.6961 -1.1994 -1.0555
16442TIP3    H270818   5.590   6.186   0.070  2.0587  0.6329 -0.3185
16443TIP3   OH270819   0.435   4.544  13.501  0.2142 -0.5925 -0.5259
16443TIP3    H170820   0.438   4.515  13.409 -0.7252 -0.1512 -0.7045
16443TIP3    H270821   0.526   4.564  13.523  0.3037  0.3952 -1.7199
16444TIP3   OH270822   6.288   3.555  12.034 -0.4616  0.3525 -0.0415
16444TIP3    H170823   6.354   3.578  11.969  0.0737 -0.9809  0.0167
16444TIP3    H270824   6.251   3.639  12.061 -0.1505  0.9761 -1.4910
16445TIP3   OH270825   0.863   3.592  15.135  0.0821  0.4708  0.4980
16445TIP3    H170826   0.876   3.686  15.131 -0.7475  0.5860  0.4030
16445TIP3    H270827   0.951   3.555  15.140  0.4448  1.2091 -0.3341
16446TIP3   OH270828   0.142   6.113   1.604  0.2249 -0.1557  0.2810
16446TIP3    H170829   0.082   6.168   1.655  3.1520  2.7406  0.7917
16446TIP3    H270830   0.220   6.106   1.658  1.4467 -1.4461 -1.5836
16447TIP3   OH270831   3.351   5.997  14.421 -0.4366  0.0169  0.1616
16447TIP3    H170832   3.262   5.963  14.411 -0.3613  0.0393 -0.5789
16447TIP3    H270833   3.340   6.079  14.468 -0.6645 -0.8009  1.5573
16448TIP3   OH270834   4.671   4.327  13.851 -0.1019 -0.1479 -0.3578
16448TIP3    H170835   4.698   4.417  13.835 -0.8368 -0.0801 -1.2841
16448TIP3    H270836   4.578   4.325  13.826  0.1204 -1.3544 -1.1730
16449TIP3   OH270837   2.526   0.789   1.177 -0.8119  0.2981  0.6830
16449TIP3    H170838   2.611   0.828   1.193 -0.4627  0.4078 -1.2959
16449TIP3    H270839   2.539   0.696   1.196  0.0859  0.1159 -0.7302
16450TIP3   OH270840   3.178   2.220   0.914  0.3465 -0.2221  0.9062
16450TIP3    H170841   3.238   2.241   0.985  2.5042 -0.1781 -0.8812
16450TIP3    H270842   3.232   2.225   0.835 -1.9689 -0.3855 -0.7253
16451TIP3   OH270843   3.698   4.581  12.615  0.0571  0.2235 -0.0535
16451TIP3    H170844   3.729   4.616  12.531  0.2321  0.7883  0.2428
16451TIP3    H270845   3.776   4.579  12.671 -0.6888  3.2565  1.2385
16452TIP3   OH270846   4.938   3.085  10.936 -0.2331 -0.2661  0.1605
16452TIP3    H170847   4.879   3.160  10.931  0.7991  0.6266  1.1606
16452TIP3    H270848   4.903   3.031  11.006  1.6499  1.6431  2.6646
16453TIP3   OH270849   1.150   5.961   4.397  0.1190  0.3686  0.2045
16453TIP3    H170850   1.187   6.007   4.472  0.4106 -0.3452  0.5014
16453TIP3    H270851   1.186   5.873   4.402 -1.9243 -0.4652  0.7373
16454TIP3   OH270852   2.512   4.424  16.719 -0.1116  0.5839 -0.7398
16454TIP3    H170853   2.431   4.474  16.727 -0.4503  0.0281 -0.6654
16454TIP3    H270854   2.575   4.486  16.683  0.2222  1.8374  1.8774
16455TIP3   OH270855   0.506   3.089  16.459  0.0953 -0.3434  0.2662
16455TIP3    H170856   0.418   3.087  16.420 -0.6223  1.7714  1.7058
16455TIP3    H270857   0.530   3.182  16.460  1.6969 -0.7417  1.3447
16456TIP3   OH270858   5.116   4.999   5.566 -0.4119  0.0477 -0.5284
16456TIP3    H170859   5.189   5.054   5.539 -0.5993 -0.6594 -2.5643
16456TIP3    H270860   5.098   5.025   5.656  2.7366 -0.2053  0.2159
16457TIP3   OH270861   5.206   4.471  11.376 -0.1795  0.1672 -0.1417
16457TIP3    H170862   5.180   4.398  11.432 -1.4840 -0.3109 -1.3487
16457TIP3    H270863   5.279   4.512  11.422 -1.2180 -0.2279  1.8884
16458TIP3   OH270864   3.654   6.775  11.425 -0.5298  0.2756  0.0839
16458TIP3    H170865   3.715   6.826  11.372 -1.8755 -0.9180 -2.7198
16458TIP3    H270866   3.601   6.841  11.470  0.2607  1.3395 -0.5068
16459TIP3   OH270867   1.746   3.491   5.444  0.0994 -0.1549  0.0618
16459TIP3    H170868   1.795   3.418   5.408 -1.6014 -1.4250  0.2554
16459TIP3    H270869   1.812   3.555   5.469  1.5513 -1.2202 -1.0047
16460TIP3   OH270870   3.012   1.621   4.220  0.2589 -0.4422 -0.5048
16460TIP3    H170871   3.098   1.616   4.177 -0.2421 -2.3438 -1.3149
16460TIP3    H270872   2.980   1.531   4.220 -1.1727  0.0563  0.9829
16461TIP3   OH270873   6.474   5.558   1.022  0.3260  0.4870 -0.6348
16461TIP3    H170874   6.531   5.632   1.044 -0.2590  1.1835 -1.4430
16461TIP3    H270875   6.386   5.590   1.038  0.0983 -0.2290 -0.4475
16462TIP3   OH270876   2.457   4.753  11.116  0.3970  0.8242 -0.5716
16462TIP3    H170877   2.531   4.809  11.092 -0.1958  2.4674  1.3240
16462TIP3    H270878   2.380   4.807  11.101 -0.2858 -0.0611 -0.2619
16463TIP3   OH270879   4.580   1.616   1.989  0.4874 -0.5607 -0.3477
16463TIP3    H170880   4.620   1.657   2.066 -1.8741 -1.2477  1.2789
16463TIP3    H270881   4.653   1.607   1.928  2.1571  1.1852  1.2853
16464TIP3   OH270882   1.794   2.098  12.725 -0.4321  0.3607  0.7853
16464TIP3    H170883   1.725   2.084  12.660  0.3008 -0.0181  0.0776
16464TIP3    H270884   1.822   2.010  12.749  1.0243  0.5416 -0.2456
16465TIP3   OH270885   6.429   3.623   0.197 -0.0381 -0.0081  0.7272
16465TIP3    H170886   6.481   3.647   0.120 -0.8959  1.3643  0.5584
16465TIP3    H270887   6.350   3.583   0.161 -0.0106 -0.2432  0.9255
16466TIP3   OH270888   4.264   6.295   1.299  0.0197 -0.3381  0.0327
16466TIP3    H170889   4.344   6.317   1.252 -0.1671 -0.1933 -0.2182
16466TIP3    H270890   4.265   6.199   1.305  0.8371 -0.2633  1.1401
16467TIP3   OH270891   4.810   3.673   5.712  0.2802  0.4659  0.7670
16467TIP3    H170892   4.770   3.626   5.786  1.1946 -2.4373 -0.5117
16467TIP3    H270893   4.903   3.676   5.733  0.2241  1.9509  0.9086
16468TIP3   OH270894   0.214   0.132   6.497  0.8400 -0.3675 -0.0662
16468TIP3    H170895   0.296   0.117   6.546  1.2628 -1.0857 -0.9822
16468TIP3    H270896   0.153   0.166   6.563  1.9654  0.4701  0.5650
16469TIP3   OH270897   3.407   6.613  15.748 -0.2349 -0.1686 -0.0473
16469TIP3    H170898   3.369   6.545  15.692 -0.2495 -1.5677  1.6275
16469TIP3    H270899   3.502   6.602  15.739 -0.2368 -0.2655  0.0529
16470TIP3   OH270900   5.654   4.676  15.574 -0.3387  0.2125  0.3874
16470TIP3    H170901   5.747   4.657  15.586 -0.2544 -0.4448 -1.1544
16470TIP3    H270902   5.635   4.648  15.484 -1.2015  3.6337 -0.5684
16471TIP3   OH270903   0.467   0.755  15.996  0.4054  0.4776  0.4229
16471TIP3    H170904   0.399   0.822  15.983  2.0593  2.0730 -0.2618
16471TIP3    H270905   0.453   0.724  16.085 -1.5917  0.3287  0.0992
16472TIP3   OH270906   4.199   2.560   5.147  0.5918  0.4724  0.2645
16472TIP3    H170907   4.290   2.590   5.155 -0.0984  1.7612  5.0819
16472TIP3    H270908   4.153   2.633   5.105  1.6599  0.0314 -1.7048
16473TIP3   OH270909   1.726   2.926   5.173 -0.2885 -0.2212 -0.2117
16473TIP3    H170910   1.662   2.872   5.220 -0.2987  0.1176  0.1707
16473TIP3    H270911   1.785   2.959   5.241  2.0287 -2.8099 -0.8791
16474TIP3   OH270912   1.519   1.465  14.152  0.2245  0.0112  0.0421
16474TIP3    H170913   1.502   1.371  14.160 -0.4452  0.2341  1.5123
16474TIP3    H270914   1.540   1.478  14.060 -2.7546 -1.1029 -0.8796
16475TIP3   OH270915   2.641   3.388  15.032  0.0839  0.0429  0.2565
16475TIP3    H170916   2.695   3.311  15.047 -0.8459 -0.6991 -0.1945
16475TIP3    H270917   2.686   3.459  15.079  0.8817 -0.7897  0.7474
16476TIP3   OH270918   0.854   2.014  11.944  0.1249 -0.2273  0.4055
16476TIP3    H170919   0.914   2.031  11.871 -0.5587 -0.5749 -0.2476
16476TIP3    H270920   0.859   1.919  11.958 -0.4306 -0.2890  0.2041
16477TIP3   OH270921   0.672   2.384   4.075 -0.1852  0.4217 -0.4266
16477TIP3    H170922   0.759   2.390   4.035  1.0629 -1.6774  1.8063
16477TIP3    H270923   0.630   2.309   4.032  1.3071 -2.0850  2.2879
16478TIP3   OH270924   1.414   3.775   4.815 -0.6892 -0.1312  0.3794
16478TIP3    H170925   1.330   3.793   4.858 -1.5238 -1.1637 -0.7779
16478TIP3    H270926   1.427   3.681   4.825  0.8306  0.1790  1.4140
16479TIP3   OH270927   4.055   4.819   6.095 -0.2845 -0.4068 -0.3768
16479TIP3    H170928   3.997   4.757   6.138 -0.7978 -0.6797 -1.4421
16479TIP3    H270929   4.036   4.903   6.137 -0.5623 -0.7209  0.1307
16480TIP3   OH270930   2.003   1.584   0.300 -0.4126 -0.1100  0.2672
16480TIP3    H170931   1.981   1.677   0.298  0.4252  0.0784 -0.7039
16480TIP3    H270932   2.062   1.575   0.375  0.3429  0.3377 -0.2683
16481TIP3   OH270933   3.386   3.867  14.618 -0.1805 -0.1472 -0.0909
16481TIP3    H170934   3.390   3.923  14.540  0.5760 -0.4659 -0.2886
16481TIP3    H270935   3.478   3.851  14.639 -0.3972 -1.3571 -0.0639
16482TIP3   OH270936   4.433   0.797  12.239  0.2500  0.4677  0.3275
16482TIP3    H170937   4.397   0.735  12.176  3.0982  1.3330 -2.2918
16482TIP3    H270938   4.426   0.882  12.197  1.8319  1.1305  1.3217
16483TIP3   OH270939   1.518   5.023   2.196 -0.4479  0.7622 -0.3654
16483TIP3    H170940   1.595   5.063   2.236  0.5304  0.2092 -1.6491
16483TIP3    H270941   1.475   4.976   2.267 -0.3127  2.1090  0.6407
16484TIP3   OH270942   4.381   3.897   4.135  0.2751 -0.1559  0.6515
16484TIP3    H170943   4.311   3.898   4.200 -1.8610  0.5451 -1.6205
16484TIP3    H270944   4.440   3.967   4.162 -2.2683  2.2647  0.0571
16485TIP3   OH270945   0.539   3.348  16.489  0.6940  0.0242  0.1954
16485TIP3    H170946   0.468   3.411  16.479  0.2311 -0.0744  2.5510
16485TIP3    H270947   0.593   3.383  16.559  1.1579 -1.5322  0.6397
16486TIP3   OH270948   5.936   4.297  15.313  0.0410  0.2703  0.0947
16486TIP3    H170949   5.865   4.232  15.318  1.2138 -0.8827  2.7467
16486TIP3    H270950   5.959   4.300  15.221 -2.4198 -0.4867 -0.5860
16487TIP3   OH270951   4.206   3.211  16.342 -0.2327  0.1014  0.3987
16487TIP3    H170952   4.115   3.240  16.346  0.0164  0.9663 -0.2343
16487TIP3    H270953   4.229   3.192  16.433 -1.5044 -1.5751  0.3898
16488TIP3   OH270954   4.293   6.002  13.686 -0.3030  0.3384 -0.0238
16488TIP3    H170955   4.380   5.963  13.693 -0.1201  0.3597 -1.8446
16488TIP3    H270956   4.235   5.941  13.731  0.4465 -0.4456 -0.1143
16489TIP3   OH270957   2.889   6.482   0.240 -0.6428 -0.4808  0.0249
16489TIP3    H170958   2.918   6.412   0.182 -1.9281 -1.3447  0.4022
16489TIP3    H270959   2.963   6.543   0.243  0.3668 -1.6560 -0.5559
16490TIP3   OH270960   6.523   2.415   4.476 -0.0618  0.1619 -0.8547
16490TIP3    H170961   6.484   2.481   4.418 -0.1572  0.5711 -0.3289
16490TIP3    H270962   6.449   2.384   4.528 -0.4636 -1.9902 -2.6370
16491TIP3   OH270963   5.896   0.264   2.658  0.2493 -0.3472  0.0446
16491TIP3    H170964   5.970   0.257   2.598  1.2548  0.8885  1.1077
16491TIP3    H270965   5.911   0.196   2.723 -0.5081 -1.2719 -0.7335
16492TIP3   OH270966   5.783   6.561  14.097 -0.0556 -0.5237 -0.0788
16492TIP3    H170967   5.813   6.581  14.185  0.0729 -2.4349  0.3313
16492TIP3    H270968   5.718   6.491  14.108 -1.4880  0.5619 -1.3266
16493TIP3   OH270969   2.135   3.410   0.123  0.0934  0.0735  0.1476
16493TIP3    H170970   2.163   3.461   0.199  1.0876 -0.4366  0.1365
16493TIP3    H270971   2.215   3.401   0.070  0.2674 -2.6856  0.8182
16494TIP3   OH270972   0.021   1.900  12.106  0.4405 -0.5182  0.4308
16494TIP3    H170973   0.021   1.809  12.076  0.0081 -0.2347 -0.4356
16494TIP3    H270974  -0.072   1.921  12.120  0.6093 -0.5410  1.6581
16495TIP3   OH270975   5.011   2.813  16.322  0.4179  0.5159 -0.6861
16495TIP3    H170976   5.042   2.722  16.323  1.3777  0.8471  0.3522
16495TIP3    H270977   5.087   2.865  16.347  0.0332  1.6649 -1.8658
16496TIP3   OH270978   0.183   3.795  14.170  0.3430  0.4804  0.4367
16496TIP3    H170979   0.090   3.819  14.172  0.3520  0.8859 -2.2180
16496TIP3    H270980   0.222   3.859  14.111  2.1326 -0.3235  0.7419
16497TIP3   OH270981   4.884   5.159  12.600  0.0907  0.2884 -0.3266
16497TIP3    H170982   4.863   5.089  12.662 -0.6900  2.2852  1.6832
16497TIP3    H270983   4.979   5.169  12.607  0.0282  0.3733  0.3718
16498TIP3   OH270984   3.134   5.589   3.708  0.1263 -0.2534  0.4057
16498TIP3    H170985   3.159   5.639   3.786  0.2725 -0.1401  0.2861
16498TIP3    H270986   3.070   5.525   3.740 -0.3787  0.2882  0.4818
16499TIP3   OH270987   1.180   2.787   0.867  0.3550 -0.0875 -0.2517
16499TIP3    H170988   1.113   2.848   0.838 -0.4740 -1.4262 -1.1816
16499TIP3    H270989   1.179   2.794   0.963  0.5701  1.6514 -0.3631
16500TIP3   OH270990   0.597   3.677   3.151  0.2517 -0.0364  0.2499
16500TIP3    H170991   0.661   3.610   3.129 -1.0636 -0.9373 -0.8490
16500TIP3    H270992   0.538   3.635   3.213 -0.0560  0.3993  0.2571
16501TIP3   OH270993   2.671   0.735   4.671  0.5449  0.0864  0.1025
16501TIP3    H170994   2.667   0.830   4.681  1.6101  0.4133 -2.1839
16501TIP3    H270995   2.613   0.717   4.596  0.8852 -0.9887  0.0900
16502TIP3   OH270996   1.740   6.551  13.802 -0.8177  0.3696  0.1116
16502TIP3    H170997   1.654   6.574  13.838 -1.3079  1.4198 -1.6995
16502TIP3    H270998   1.802   6.593  13.862 -1.5653 -0.0212  1.1818
16503TIP3   OH270999   0.588   5.986  16.384 -0.1529  0.6046 -0.0092
16503TIP3    H171000   0.621   6.042  16.455  3.4390  0.9093 -1.7826
16503TIP3    H271001   0.602   5.897  16.417  0.1686  0.7535  0.2685
16504TIP3   OH271002   5.854   2.654  16.334 -0.4932  0.0685 -0.1178
16504TIP3    H171003   5.806   2.624  16.256 -1.0691  0.0279  0.2492
16504TIP3    H271004   5.845   2.749  16.332 -0.1645  0.0943 -0.3205
16505TIP3   OH271005   6.666   6.068   3.572  0.0951 -0.2842 -0.0746
16505TIP3    H171006   6.577   6.096   3.593 -0.4252 -2.0824  0.2040
16505TIP3    H271007   6.698   6.027   3.652  0.7611 -0.6451 -0.5155
16506TIP3   OH271008   4.698   0.473  10.644  0.2181 -0.7913  0.3624
16506TIP3    H171009   4.787   0.495  10.618 -0.1156  1.0807  0.7222
16506TIP3    H271010   4.686   0.518  10.728 -1.1596 -0.8206  0.1904
16507TIP3   OH271011   4.027   2.249  17.188  1.6109  0.2210  0.1249
16507TIP3    H171012   3.964   2.320  17.200 -0.8497 -1.8953  0.1184
16507TIP3    H271013   4.038   2.212  17.276  3.6447  1.2138  0.3063
16508TIP3   OH271014   4.809   2.121  11.643  0.1972  0.1079 -0.8148
16508TIP3    H171015   4.773   2.045  11.598  1.2567 -2.2606  2.2301
16508TIP3    H271016   4.738   2.153  11.698  0.5071 -0.1947 -0.2324
16509TIP3   OH271017   2.962   4.709   0.053  0.1725  0.4452  0.1025
16509TIP3    H171018   2.908   4.633   0.031  0.6409 -0.8100  3.0849
16509TIP3    H271019   2.899   4.775   0.082 -0.0142  0.0561  0.6004
16510TIP3   OH271020   5.998   4.043  16.349 -0.3323  0.3273  0.0617
16510TIP3    H171021   5.925   4.103  16.364 -0.9142 -0.2526 -0.4404
16510TIP3    H271022   5.998   3.985  16.425 -0.2156  0.5030  0.1961
16511TIP3   OH271023   6.588   5.949   0.965  0.0513  0.1582 -0.2147
16511TIP3    H171024   6.530   5.999   1.022 -1.0229 -1.3174  0.0037
16511TIP3    H271025   6.568   5.980   0.876  0.6038  1.3184  0.0567
16512TIP3   OH271026   3.740   6.764   2.252 -0.4312  0.3318  0.5810
16512TIP3    H171027   3.821   6.759   2.302  0.5811  1.7849 -0.8763
16512TIP3    H271028   3.687   6.830   2.298  0.0322  0.8464  0.3747
16513TIP3   OH271029   6.482   5.045   5.780 -0.6663  0.0023  0.5978
16513TIP3    H171030   6.470   4.975   5.846  1.1313  0.3843  1.3862
16513TIP3    H271031   6.447   5.123   5.822 -0.1208  0.1110  0.8716
16514TIP3   OH271032   0.014   0.024  16.625 -0.2274 -0.4733  0.3139
16514TIP3    H171033  -0.029  -0.056  16.594 -0.7773 -0.5655  1.2742
16514TIP3    H271034   0.094   0.030  16.573 -0.4164 -1.3874 -0.1004
16515TIP3   OH271035   3.894   4.681  10.388 -0.7011 -0.2258 -0.0735
16515TIP3    H171036   3.851   4.711  10.308 -0.1881 -0.4542 -0.4365
16515TIP3    H271037   3.927   4.594  10.367 -1.1670 -0.5778  0.6056
16516TIP3   OH271038   4.276   1.313   0.553 -0.2391  0.6369  0.3995
16516TIP3    H171039   4.189   1.273   0.545 -0.4629  1.2315 -0.2009
16516TIP3    H271040   4.286   1.364   0.473  0.7888  0.3425  0.3362
16517TIP3   OH271041   0.959   5.255   0.727  0.4331  0.4187  0.0130
16517TIP3    H171042   0.891   5.199   0.689  1.5811 -0.8231 -0.2449
16517TIP3    H271043   0.948   5.243   0.822  0.7545 -0.3662 -0.0396
16518TIP3   OH271044   2.022   0.539  13.227 -0.3106  0.3579  0.2814
16518TIP3    H171045   2.110   0.502  13.225  0.1058  1.4000 -0.6077
16518TIP3    H271046   2.018   0.598  13.152 -1.5317  0.8669  0.7270
16519TIP3   OH271047   5.533   1.505   3.774  0.4648  0.5232 -0.2683
16519TIP3    H171048   5.578   1.448   3.836 -0.1937 -0.5530 -0.7609
16519TIP3    H271049   5.586   1.584   3.771 -0.0686  1.0543  2.4984
16520TIP3   OH271050   2.098   3.666  15.446  0.6646 -0.1951 -0.5129
16520TIP3    H171051   2.093   3.618  15.363  0.1689 -0.2704 -0.4430
16520TIP3    H271052   2.006   3.681  15.470  0.8111  0.4165 -0.3234
16521TIP3   OH271053   3.935   3.889  11.573 -0.1125 -0.2953  0.0677
16521TIP3    H171054   4.028   3.878  11.592 -0.1713  0.8255  1.0901
16521TIP3    H271055   3.890   3.850  11.648 -0.4945 -1.4545 -0.7468
16522TIP3   OH271056   1.894   3.049   2.365 -0.1825 -0.1855 -0.3954
16522TIP3    H171057   1.881   2.990   2.440 -0.2817  2.9183  2.1733
16522TIP3    H271058   1.987   3.072   2.369  0.1370 -1.1081 -2.1401
16523TIP3   OH271059   2.610   4.804  17.040 -0.6538  0.4086  0.6881
16523TIP3    H171060   2.666   4.875  17.008 -0.8669 -0.0443 -0.6903
16523TIP3    H271061   2.655   4.724  17.015 -1.4016  0.0466  0.4720
16524TIP3   OH271062   6.820   3.571   4.779  0.4321  0.0118 -0.2657
16524TIP3    H171063   6.763   3.531   4.713  2.2052  0.6987 -2.2340
16524TIP3    H271064   6.908   3.542   4.757  1.2186  1.3553  0.9711
16525TIP3   OH271065   2.735   0.935   4.045 -0.5277 -0.2892  0.2336
16525TIP3    H171066   2.788   0.915   4.122  1.0492  0.0420 -0.7316
16525TIP3    H271067   2.645   0.943   4.078  0.6349  3.9483  2.7782
16526TIP3   OH271068   5.755   0.569   3.509  0.3528 -0.3940 -0.3574
16526TIP3    H171069   5.818   0.524   3.452 -0.1578  0.2297 -1.4400
16526TIP3    H271070   5.766   0.662   3.487  0.8405 -0.0566  1.2893
16527TIP3   OH271071   5.984   6.455  16.182 -0.3173  0.4111 -0.0055
16527TIP3    H171072   5.957   6.385  16.123  1.5196 -0.0831 -0.2961
16527TIP3    H271073   5.915   6.459  16.248 -0.7693 -1.2324 -0.3592
16528TIP3   OH271074   3.944   3.328  16.315  0.8413  0.2400 -0.5010
16528TIP3    H171075   3.885   3.301  16.244  0.3145  0.8436 -0.3070
16528TIP3    H271076   3.927   3.422  16.325 -0.8218 -0.2631  2.0025
16529TIP3   OH271077   6.265   5.457  15.901  0.5891  0.7296 -0.7182
16529TIP3    H171078   6.210   5.522  15.946  1.1178  1.3387 -0.9448
16529TIP3    H271079   6.205   5.412  15.841 -1.0347 -2.7019  3.2046
16530TIP3   OH271080   1.885   6.326   4.138 -0.8944  0.2766  0.3053
16530TIP3    H171081   1.870   6.362   4.051  1.0666  2.6297  0.8590
16530TIP3    H271082   1.798   6.320   4.177 -1.7313 -0.2803 -1.5972
16531TIP3   OH271083   6.276   3.826   2.231  0.4840 -0.2180  0.4657
16531TIP3    H171084   6.196   3.876   2.220  0.6897  0.1324  0.5490
16531TIP3    H271085   6.263   3.777   2.312 -0.5158 -1.8184 -0.6521
16532TIP3   OH271086   2.143   5.820  16.657 -0.0338 -0.9206 -0.0986
16532TIP3    H171087   2.145   5.875  16.578 -1.1181 -0.7331 -0.0022
16532TIP3    H271088   2.220   5.848  16.707 -0.3257  0.1971 -0.2621
16533TIP3   OH271089   2.496   5.880  17.138 -0.1364 -0.0700  0.3156
16533TIP3    H171090   2.559   5.953  17.131 -0.8660  0.5836  0.4918
16533TIP3    H271091   2.534   5.822  17.204  1.2860 -0.6965 -1.0407
16534TIP3   OH271092   5.749   3.206   1.867 -0.0012  0.5277  0.0596
16534TIP3    H171093   5.770   3.116   1.888 -0.4524  0.2849 -0.5080
16534TIP3    H271094   5.720   3.204   1.776 -4.3203  0.4916  1.2830
16535TIP3   OH271095   1.639   4.649  17.145 -0.3046  0.4773 -0.0901
16535TIP3    H171096   1.688   4.727  17.118  0.8313  0.7679  2.6479
16535TIP3    H271097   1.696   4.576  17.123 -1.1407  0.4127 -2.1638
16536TIP3   OH271098   1.313   0.039  15.169  0.3832 -0.1631 -0.0298
16536TIP3    H171099   1.270  -0.006  15.242  0.6465  1.7613  1.3692
16536TIP3    H271100   1.393  -0.011  15.154  0.0151 -0.9491  0.6087
16537TIP3   OH271101   2.194   1.374  12.609  0.0190 -0.0295  0.0070
16537TIP3    H171102   2.275   1.336  12.575 -0.0820  0.2913 -0.6090
16537TIP3    H271103   2.222   1.426  12.685  0.1974 -1.0449  0.6477
16538TIP3   OH271104   0.927   0.629   3.375 -0.2554  0.0642  0.0420
16538TIP3    H171105   0.952   0.652   3.465 -1.4124  2.6249 -0.2602
16538TIP3    H271106   1.010   0.617   3.330  0.3551 -2.3333  1.6774
16539TIP3   OH271107   0.008   6.061  12.412  1.0016  0.2996 -0.2665
16539TIP3    H171108  -0.072   6.082  12.459  0.9211  2.2822 -1.2236
16539TIP3    H271109  -0.018   6.057  12.320  1.7709 -0.2361 -0.4703
16540TIP3   OH271110   3.687   0.539  16.023  0.4398  0.0629  0.3692
16540TIP3    H171111   3.699   0.561  15.931 -4.5357 -0.9256 -0.6677
16540TIP3    H271112   3.664   0.446  16.023 -3.1676  0.8538  2.1672
16541TIP3   OH271113   5.561   1.510   1.427  0.1308 -0.4840  0.5635
16541TIP3    H171114   5.519   1.510   1.513  1.4163 -0.2693  1.1980
16541TIP3    H271115   5.649   1.543   1.443 -0.7965  3.2314 -1.4066
16542TIP3   OH271116   6.096   6.456   1.589 -0.4082 -0.2246 -0.2443
16542TIP3    H171117   6.016   6.457   1.538 -0.5533 -0.8546 -0.0344
16542TIP3    H271118   6.070   6.424   1.675  0.1118 -0.6816 -0.2525
16543TIP3   OH271119   4.662   5.019   5.000  0.6487  0.1076 -0.1674
16543TIP3    H171120   4.597   5.059   5.057  1.1323  0.0831  0.4083
16543TIP3    H271121   4.633   4.928   4.992 -0.2290  0.4626 -1.1581
16544TIP3   OH271122   4.446   0.000  15.610 -0.2394  0.8021 -0.8253
16544TIP3    H171123   4.489   0.083  15.634  0.0328  0.6603 -0.8210
16544TIP3    H271124   4.367   0.027  15.564 -0.2526  1.0698 -0.6493
16545TIP3   OH271125   6.541   5.261   2.420  0.1388  0.5523  0.1132
16545TIP3    H171126   6.455   5.298   2.399  0.7675  2.4794  0.8210
16545TIP3    H271127   6.557   5.288   2.510  1.3731 -0.0219  0.0689
16546TIP3   OH271128   0.970   1.234  11.977  0.1509 -0.0368  0.2997
16546TIP3    H171129   0.951   1.224  12.070  2.7316  0.0749  0.8861
16546TIP3    H271130   0.887   1.262  11.938 -0.4223  2.0986  2.9141
16547TIP3   OH271131   2.032   2.123   4.156  0.0740  0.4489  0.6068
16547TIP3    H171132   2.103   2.187   4.159 -2.0876  3.1504 -2.6707
16547TIP3    H271133   1.963   2.159   4.212 -0.1800 -0.3291  0.8156
16548TIP3   OH271134   2.934   4.760  12.287  0.3194 -0.2026  0.6123
16548TIP3    H171135   3.001   4.825  12.307  0.2826  0.1445 -0.4158
16548TIP3    H271136   2.980   4.693  12.237 -0.5644  1.0911 -1.9711
16549TIP3   OH271137   0.665   3.455   1.097 -0.0212 -0.1556  0.2517
16549TIP3    H171138   0.574   3.479   1.078 -0.7648 -0.7622  2.8334
16549TIP3    H271139   0.717   3.521   1.051 -1.8203  1.3572  0.3304
16550TIP3   OH271140   2.938   6.629   1.094 -0.6452  0.1512  0.3545
16550TIP3    H171141   2.843   6.640   1.091 -0.5074  0.9074 -1.5788
16550TIP3    H271142   2.950   6.535   1.111 -1.7249 -0.1729 -0.6210
16551TIP3   OH271143   0.697   5.624   3.516 -0.0426  0.1371  0.4566
16551TIP3    H171144   0.756   5.679   3.568  3.1367 -1.3564 -1.4748
16551TIP3    H271145   0.752   5.585   3.449 -3.7915  0.9959 -3.3577
16552TIP3   OH271146   1.109   4.380   2.612  0.0150  0.1106 -0.3256
16552TIP3    H171147   1.159   4.299   2.601  0.1848  0.1366  0.2380
16552TIP3    H271148   1.111   4.397   2.706  2.0348  2.0926 -0.6854
16553TIP3   OH271149   5.021   2.078   2.265  0.2008  0.2796  0.2189
16553TIP3    H171150   5.059   1.990   2.264 -0.1686  0.1220  0.2757
16553TIP3    H271151   5.090   2.133   2.227  0.4200 -0.0356  0.1529
16554TIP3   OH271152   0.015   2.408  12.974 -0.1831 -0.5763 -0.0516
16554TIP3    H171153   0.105   2.377  12.974 -1.2359 -3.8198  0.1885
16554TIP3    H271154   0.022   2.503  12.963  3.2255 -0.7782 -0.0746
16555TIP3   OH271155   5.284   5.765  14.170  0.0578  0.1046 -0.4381
16555TIP3    H171156   5.247   5.743  14.085 -1.8242  0.8079  0.1779
16555TIP3    H271157   5.228   5.835  14.204  0.1833 -0.8185  1.7919
16556TIP3   OH271158   0.652   4.336   6.528  0.1648 -0.1047 -0.3429
16556TIP3    H171159   0.597   4.302   6.458  1.0221  0.8157 -1.4891
16556TIP3    H271160   0.727   4.277   6.530  0.4856  0.2875 -0.6933
16557TIP3   OH271161   3.239   1.029  15.444 -0.9628 -0.4446  0.2090
16557TIP3    H171162   3.184   0.963  15.402 -1.2591  0.0898 -0.2490
16557TIP3    H271163   3.195   1.048  15.527 -2.3693  1.1468 -0.8507
16558TIP3   OH271164   2.480   6.503  16.909  0.4152  0.2669 -0.2032
16558TIP3    H171165   2.485   6.408  16.900 -1.1613  0.2615 -1.3471
16558TIP3    H271166   2.554   6.526  16.965  1.4195 -1.5104 -0.7614
16559TIP3   OH271167   3.763   3.036   5.604  0.0865  1.1316 -0.3354
16559TIP3    H171168   3.785   3.101   5.671  0.8210 -0.0245  0.5648
16559TIP3    H271169   3.669   3.023   5.613  0.4350 -0.2982  1.6878
16560TIP3   OH271170   5.138   4.869  14.912  0.6131  0.0340 -0.2322
16560TIP3    H171171   5.190   4.826  14.980 -0.3396 -0.8801 -0.0701
16560TIP3    H271172   5.187   4.854  14.832 -0.0833 -2.0237 -0.2927
16561TIP3   OH271173   6.244   2.169  16.974  0.1173  0.1906  0.0564
16561TIP3    H171174   6.187   2.104  17.017  2.7215 -0.7923  2.1682
16561TIP3    H271175   6.191   2.248  16.971 -0.6682 -0.0275  4.0950
16562TIP3   OH271176   4.121   1.665   1.985  0.4410  0.7058 -0.0520
16562TIP3    H171177   4.144   1.577   1.954 -1.4854 -0.6809  2.3051
16562TIP3    H271178   4.205   1.712   1.988  1.4301 -0.9190 -1.7128
16563TIP3   OH271179   2.706   2.127   5.271  0.1382 -0.3019  0.2425
16563TIP3    H171180   2.669   2.211   5.299 -1.2922 -0.4055 -1.2699
16563TIP3    H271181   2.763   2.149   5.198  1.2584 -0.4406  1.0562
16564TIP3   OH271182   3.325   2.226   3.363  0.2916  0.0855  0.1319
16564TIP3    H171183   3.245   2.189   3.326 -0.0658  1.3267 -0.3869
16564TIP3    H271184   3.380   2.151   3.384 -0.7310 -0.7476 -0.1608
16565TIP3   OH271185   6.409   1.307   4.218  0.2093 -0.2663  0.2497
16565TIP3    H171186   6.483   1.249   4.236  2.2720  2.0097 -0.6974
16565TIP3    H271187   6.429   1.347   4.133 -1.2712  1.6919  0.7812
16566TIP3   OH271188   2.745   0.054  11.007 -0.1767 -0.3394  0.5056
16566TIP3    H171189   2.697   0.135  10.990 -1.1247 -0.9415  0.2596
16566TIP3    H271190   2.820   0.057  10.948 -0.8404 -0.1782 -0.3377
16567TIP3   OH271191   0.257   1.761   0.247  0.4542 -0.0733  0.2176
16567TIP3    H171192   0.348   1.781   0.225  0.6308 -0.9485  0.1451
16567TIP3    H271193   0.249   1.784   0.339  0.7349  0.0666  0.2077
16568TIP3   OH271194   1.627   4.202   3.856  0.4606  0.3048 -0.4661
16568TIP3    H171195   1.655   4.293   3.859 -0.6182  0.6577 -0.7783
16568TIP3    H271196   1.567   4.197   3.782 -1.6639 -0.0044  1.2197
16569TIP3   OH271197   3.636   1.433   4.580  0.8583 -0.2367  0.3691
16569TIP3    H171198   3.694   1.357   4.570 -2.2841 -2.6650 -0.0354
16569TIP3    H271199   3.639   1.476   4.495  0.0260 -1.9005 -0.5396
16570TIP3   OH271200   5.329   6.512   0.032 -0.0041  0.1755 -0.8022
16570TIP3    H171201   5.236   6.488   0.032  0.3303 -1.1577  0.7801
16570TIP3    H271202   5.360   6.488  -0.056 -0.3119 -2.6994 -0.1599
16571TIP3   OH271203   6.207   6.246   0.455  0.7502  0.2707  1.1977
16571TIP3    H171204   6.289   6.242   0.505  1.0772 -2.5190  0.5105
16571TIP3    H271205   6.220   6.186   0.382 -1.1357  1.4261 -0.1194
16572TIP3   OH271206   1.928   2.930  13.819  0.0355  0.3318  0.0948
16572TIP3    H171207   1.866   2.858  13.831  1.1214 -0.5466  0.6253
16572TIP3    H271208   1.992   2.918  13.889 -0.0102  2.0933  0.4551
16573TIP3   OH271209   1.989   0.959   2.439 -0.2047 -0.1582 -0.3167
16573TIP3    H171210   2.012   0.950   2.531 -1.0256  3.1743  0.2796
16573TIP3    H271211   2.034   1.038   2.410 -0.6754 -0.6673 -2.5431
16574TIP3   OH271212   4.102   2.473  16.188  0.5137  0.2925 -0.3412
16574TIP3    H171213   4.102   2.565  16.214  1.5332  0.2072 -0.0309
16574TIP3    H271214   4.189   2.459  16.150  0.1458 -0.3889 -0.9403
16575TIP3   OH271215   1.077   6.067  13.239 -0.1307 -0.1809 -0.3436
16575TIP3    H171216   1.124   6.126  13.297 -1.4344  0.7173 -0.1643
16575TIP3    H271217   1.123   6.073  13.155 -0.2363  1.0964 -0.3184
16576TIP3   OH271218   1.641   2.047   1.038  0.3132 -0.4307  0.1254
16576TIP3    H171219   1.714   2.031   0.979 -0.1036 -1.0726 -0.2176
16576TIP3    H271220   1.570   1.995   1.003 -0.1154 -0.3335  0.8436
16577TIP3   OH271221   5.593   2.139  12.584  0.2518 -0.4998  0.9438
16577TIP3    H171222   5.508   2.138  12.539  0.0723 -0.3890  1.2822
16577TIP3    H271223   5.579   2.194  12.661  0.8155  0.0686  0.6483
16578TIP3   OH271224   1.789   1.534  16.271  0.3077  0.4550 -0.2570
16578TIP3    H171225   1.812   1.604  16.209  1.9287  0.6915  0.5724
16578TIP3    H271226   1.707   1.498  16.237 -0.0281  2.0877 -1.2615
16579TIP3   OH271227   6.529   1.649  10.985  0.4291  0.2121  0.2286
16579TIP3    H171228   6.613   1.694  10.996 -0.6361  1.8824  1.7921
16579TIP3    H271229   6.518   1.600  11.066  0.2914 -0.6998 -0.3368
16580TIP3   OH271230   6.731   5.273  14.591 -0.0645  0.3606 -0.6439
16580TIP3    H171231   6.752   5.347  14.647 -1.1629 -0.1653  0.4978
16580TIP3    H271232   6.753   5.302  14.502  1.0157  1.4602 -0.0290
16581TIP3   OH271233   5.040   6.715  12.036  0.3139 -0.3246  0.0937
16581TIP3    H171234   5.045   6.787  11.972 -0.0999 -2.1681 -2.0630
16581TIP3    H271235   5.127   6.714  12.077  1.1569 -0.1581 -1.6273
16582TIP3   OH271236   0.139   2.075   3.884  0.4128 -0.3503  0.7772
16582TIP3    H171237   0.211   2.132   3.911  1.0002  0.1946 -1.8168
16582TIP3    H271238   0.182   1.992   3.862  0.2686 -0.0485 -0.7010
16583TIP3   OH271239   6.595   5.573  14.262  0.2032  0.2851 -0.1770
16583TIP3    H171240   6.672   5.601  14.311  0.5183 -0.1588 -0.4215
16583TIP3    H271241   6.533   5.646  14.271 -0.0690 -0.1321  1.6128
16584TIP3   OH271242   3.326   0.622   4.557 -0.3436 -0.0446  0.1616
16584TIP3    H171243   3.332   0.668   4.641  1.8030  3.3164 -1.7097
16584TIP3    H271244   3.414   0.588   4.542 -0.8915 -1.2316 -0.4331
16585TIP3   OH271245   6.722   0.935  14.291 -0.2401  0.3007 -0.3763
16585TIP3    H171246   6.686   0.906  14.375  0.4215  2.3637  0.6393
16585TIP3    H271247   6.817   0.931  14.303 -0.1492  0.8699 -0.9333
16586TIP3   OH271248   5.893   4.145  14.372  0.3370 -0.4409  0.2255
16586TIP3    H171249   5.884   4.233  14.408  1.5159 -0.3432  0.2732
16586TIP3    H271250   5.808   4.128  14.330 -0.3109  0.2446  1.2354
16587TIP3   OH271251   2.856   6.595  14.590 -0.5053  0.2825 -0.5842
16587TIP3    H171252   2.814   6.676  14.619 -3.7433 -1.9394  1.0920
16587TIP3    H271253   2.872   6.546  14.670 -1.5598 -2.1601 -1.8427
16588TIP3   OH271254   4.356   1.002  13.298 -0.3422  0.0793  0.0102
16588TIP3    H171255   4.423   0.959  13.246 -0.8064 -0.5900 -0.0531
16588TIP3    H271256   4.309   1.058  13.237 -1.5168 -1.4556 -0.5145
16589TIP3   OH271257   2.596   1.705  11.374  0.0494 -0.1063 -0.0802
16589TIP3    H171258   2.671   1.669  11.420  0.2043 -0.7331 -0.8113
16589TIP3    H271259   2.535   1.632  11.365 -0.7528  0.4524  0.7034
16590TIP3   OH271260   6.386   1.009  14.630 -0.0746 -0.2681  0.3289
16590TIP3    H171261   6.388   0.921  14.669 -0.8653 -0.6419 -0.4428
16590TIP3    H271262   6.310   1.051  14.671 -0.7288 -0.5576 -0.5791
16591TIP3   OH271263   4.481   5.270  13.423  0.1005  0.2259 -0.2297
16591TIP3    H171264   4.419   5.276  13.350 -0.4938  0.5825  0.3019
16591TIP3    H271265   4.537   5.196  13.401 -0.3399  0.0729 -0.8470
16592TIP3   OH271266   1.611   0.835  16.255 -0.0207  0.5141 -0.4446
16592TIP3    H171267   1.678   0.861  16.320 -0.4694 -0.7968  0.5584
16592TIP3    H271268   1.546   0.905  16.260 -0.5892 -0.1172  1.3181
16593TIP3   OH271269   4.082   0.607  12.603 -0.4331  0.7651  0.0991
16593TIP3    H171270   4.060   0.697  12.629  0.1455  0.8739  0.2393
16593TIP3    H271271   4.175   0.599  12.624 -0.9816 -0.5914  2.1454
16594TIP3   OH271272   2.885   6.385   2.755  0.5204 -0.0192  0.4889
16594TIP3    H171273   2.935   6.445   2.699 -1.3676  0.8734 -0.2905
16594TIP3    H271274   2.951   6.342   2.810  2.3292 -0.2428 -1.7812
16595TIP3   OH271275   2.160   0.925  15.650  0.3135 -0.2564  0.5508
16595TIP3    H171276   2.131   0.846  15.604  0.7802 -0.0630 -0.0751
16595TIP3    H271277   2.252   0.908  15.670  0.9348  0.8996 -1.2340
16596TIP3   OH271278   1.841   0.936  14.982  0.4145  0.1581  0.1947
16596TIP3    H171279   1.884   0.934  14.897  1.2830  0.2378  0.6247
16596TIP3    H271280   1.880   1.011  15.027 -0.2620  0.2979  0.5449
16597TIP3   OH271281   1.810   3.706   3.281  0.0881  0.0603  0.2789
16597TIP3    H171282   1.873   3.766   3.241  1.2614 -0.9443  0.6282
16597TIP3    H271283   1.731   3.760   3.291  0.9987  1.4468  0.2440
16598TIP3   OH271284   0.339   6.172  15.165  0.1405 -0.0243  0.7103
16598TIP3    H171285   0.346   6.080  15.189  1.1083 -0.3324 -0.7266
16598TIP3    H271286   0.379   6.219  15.238  0.4903 -0.7897  1.0160
16599TIP3   OH271287   6.548   4.374  14.872  0.3490 -0.5829  0.3549
16599TIP3    H171288   6.501   4.431  14.933  0.1662 -1.1230  0.7223
16599TIP3    H271289   6.598   4.314  14.928  0.4468 -0.8603 -0.0247
16600TIP3   OH271290   0.576   0.861   2.262 -0.2313  0.1985  0.1682
16600TIP3    H171291   0.575   0.792   2.196 -1.3589 -1.5954  2.0139
16600TIP3    H271292   0.661   0.903   2.253  0.3283 -1.2156 -1.1961
16601TIP3   OH271293   1.138   5.344  15.135  0.2050 -0.0860  0.2352
16601TIP3    H171294   1.206   5.281  15.158  1.9974  1.0282 -1.7624
16601TIP3    H271295   1.172   5.389  15.058 -2.3495  1.2592 -0.1891
16602TIP3   OH271296   4.314   3.191  13.046  0.1072  0.1258  0.1883
16602TIP3    H171297   4.377   3.177  12.976  0.4870  0.3856  0.4800
16602TIP3    H271298   4.342   3.132  13.117  1.5972  2.1882  1.3482
16603TIP3   OH271299   6.697   0.329   2.811  0.5072  0.0952  0.0276
16603TIP3    H171300   6.727   0.365   2.895  0.4280  0.3540 -0.0541
16603TIP3    H271301   6.758   0.258   2.792  0.5660  0.0800  0.2724
16604TIP3   OH271302   4.678   6.142   5.440  0.2735  0.3511  0.5723
16604TIP3    H171303   4.760   6.163   5.396 -0.1706  1.0166  0.0538
16604TIP3    H271304   4.625   6.222   5.431 -1.7799 -1.2133 -2.2091
16605TIP3   OH271305   6.606   6.289  15.965 -0.0140 -0.2256 -0.0987
16605TIP3    H171306   6.641   6.298  16.054 -0.2217 -2.2228  0.2247
16605TIP3    H271307   6.626   6.372  15.922  1.9021  0.0010  1.1873
16606TIP3   OH271308   1.559   5.071  17.211 -0.4900 -0.5563 -0.0224
16606TIP3    H171309   1.477   5.085  17.165 -1.4846 -0.9734  1.5739
16606TIP3    H271310   1.534   5.067  17.303  1.2983 -0.9140  0.4604
16607TIP3   OH271311   1.428   2.419  16.299 -0.4265 -0.4358 -0.0635
16607TIP3    H171312   1.432   2.477  16.224  1.1859  0.9402  1.0458
16607TIP3    H271313   1.500   2.357  16.286 -0.8913 -0.9506 -0.2362
16608TIP3   OH271314   2.895   0.511  16.551 -0.0359 -0.0137 -0.0282
16608TIP3    H171315   2.910   0.572  16.479  0.3184 -2.3238 -1.9675
16608TIP3    H271316   2.874   0.428  16.509 -2.5359 -0.7934  2.5337
16609TIP3   OH271317   0.023   3.396   0.545 -0.3036 -0.6213  0.1252
16609TIP3    H171318   0.010   3.302   0.547 -0.0494 -0.6599 -0.0659
16609TIP3    H271319  -0.064   3.432   0.527 -0.1326 -0.8921 -1.3065
16610TIP3   OH271320   6.056   4.657  16.434  1.2305  0.3945 -0.0815
16610TIP3    H171321   6.088   4.567  16.430  0.1428 -0.0160  0.3118
16610TIP3    H271322   5.961   4.650  16.427  0.9672  1.3393  2.1303
16611TIP3   OH271323   1.172   0.427  15.906 -0.2681  0.6799 -0.1698
16611TIP3    H171324   1.267   0.442  15.907 -0.0561 -0.4828  2.9094
16611TIP3    H271325   1.136   0.501  15.954 -0.6213 -0.3314  1.1714
16612TIP3   OH271326   4.537   0.216  12.378  0.4405 -0.3786  0.2876
16612TIP3    H171327   4.493   0.224  12.463 -1.5448  0.5566 -0.8009
16612TIP3    H271328   4.487   0.151  12.331 -0.8261  1.9008 -1.5882
16613TIP3   OH271329   6.571   1.952  12.642 -0.4248 -0.5211  0.2248
16613TIP3    H171330   6.611   1.984  12.723  3.1899 -0.3403 -1.5181
16613TIP3    H271331   6.497   2.010  12.627  2.0129  2.9027  0.6914
16614TIP3   OH271332   5.204   1.619   2.313  0.2544  0.0566  0.1608
16614TIP3    H171333   5.278   1.659   2.359  0.8123 -0.7936  0.0132
16614TIP3    H271334   5.197   1.532   2.351  0.1075 -0.3038 -0.6975
16615TIP3   OH271335   1.390   6.739  16.565 -0.4599 -0.0850  0.2842
16615TIP3    H171336   1.327   6.804  16.599 -0.1996 -0.2291  1.0629
16615TIP3    H271337   1.460   6.791  16.527 -0.4141  0.0932  0.6078
16616TIP3   OH271338   2.839   4.184   0.417 -0.0858  0.4930 -0.1446
16616TIP3    H171339   2.828   4.209   0.325 -0.3226  0.1248 -0.2191
16616TIP3    H271340   2.758   4.137   0.439  1.7722 -3.2810 -1.0197
16617TIP3   OH271341   0.426   5.934   3.156 -0.2427 -0.4848 -0.1343
16617TIP3    H171342   0.500   5.982   3.120  1.5146 -2.9430  0.0866
16617TIP3    H271343   0.389   5.993   3.222 -0.2001  1.8636 -2.1741
16618TIP3   OH271344   1.539   2.270  17.043 -0.0739  0.0593 -0.8652
16618TIP3    H171345   1.527   2.360  17.073 -2.4005 -0.7904  0.8298
16618TIP3    H271346   1.495   2.267  16.958 -2.2473 -0.1160  0.2378
16619TIP3   OH271347   6.604   4.526   0.560  0.2695  0.0573  0.6294
16619TIP3    H171348   6.536   4.458   0.555  1.4084 -1.1949  1.8551
16619TIP3    H271349   6.674   4.495   0.503  0.4255  0.6295  0.5051
16620TIP3   OH271350   1.368   0.265  12.375 -0.3521 -0.0566 -0.4776
16620TIP3    H171351   1.362   0.305  12.288 -1.8150 -2.2543 -1.4268
16620TIP3    H271352   1.279   0.238  12.396  0.2102 -0.7462  1.1298
16621TIP3   OH271353   4.717   4.926   1.027  0.3444 -0.3671  0.3808
16621TIP3    H171354   4.734   5.020   1.039 -3.7507  0.4177  0.7088
16621TIP3    H271355   4.703   4.917   0.932 -2.4375  0.0310  0.6997
16622TIP3   OH271356   6.576   2.945  14.904  0.2206  0.6131 -0.1143
16622TIP3    H171357   6.529   2.904  14.977  0.2802 -0.4796 -0.6693
16622TIP3    H271358   6.512   3.005  14.865  0.3750  1.6208  1.1751
16623TIP3   OH271359   0.503   2.158   3.625  0.2847  0.7516  0.0576
16623TIP3    H171360   0.563   2.225   3.659 -0.3097  2.1754 -1.6019
16623TIP3    H271361   0.420   2.204   3.614 -0.2773 -0.4016 -0.6046
16624TIP3   OH271362   3.994   3.508  14.350 -0.1133 -0.4159 -0.8844
16624TIP3    H171363   3.916   3.562  14.363 -0.8122 -0.6019 -3.9332
16624TIP3    H271364   4.016   3.519  14.258  1.5093 -2.9680 -0.8668
16625TIP3   OH271365   4.521   0.564  15.157 -0.0801 -0.1834 -0.4519
16625TIP3    H171366   4.438   0.581  15.111 -0.2378  1.2070  0.3280
16625TIP3    H271367   4.496   0.508  15.230  0.1120 -2.0835 -1.8078
16626TIP3   OH271368   5.492   1.175  13.904 -0.0826  0.1699 -0.2978
16626TIP3    H171369   5.526   1.188  13.993 -2.1171  0.4826  0.4784
16626TIP3    H271370   5.500   1.081  13.889  2.3120  0.4110 -0.6633
16627TIP3   OH271371   5.228   2.844   1.399  0.0536 -0.4633  0.0493
16627TIP3    H171372   5.156   2.878   1.344  0.4473  0.4364  0.0803
16627TIP3    H271373   5.217   2.749   1.396 -0.0314 -0.4254 -1.4738
16628TIP3   OH271374   4.962   6.383  14.714 -0.6595  0.3618 -0.3447
16628TIP3    H171375   4.910   6.309  14.746 -1.7919  1.5365  0.5665
16628TIP3    H271376   4.927   6.402  14.627 -0.9112  0.3372 -0.2498
16629TIP3   OH271377   5.564   5.994  13.564  0.3746  0.7026  0.4649
16629TIP3    H171378   5.574   5.899  13.572 -1.3248  0.5285  0.5714
16629TIP3    H271379   5.635   6.030  13.618  1.5004 -0.4900 -0.1812
16630TIP3   OH271380   1.443   0.890   1.688  0.7283 -0.5995  0.3454
16630TIP3    H171381   1.468   0.958   1.626  1.0002  0.2646  1.3966
16630TIP3    H271382   1.368   0.925   1.735  1.8049 -0.3738  1.9520
16631TIP3   OH271383   5.783   5.934  17.176 -0.2956 -0.0038  0.7227
16631TIP3    H171384   5.794   5.850  17.219 -0.9091 -0.5002 -0.0832
16631TIP3    H271385   5.870   5.954  17.141  0.0186  0.0404  1.5162
16632TIP3   OH271386   5.820   0.004   4.523 -0.1525 -0.0977  0.2022
16632TIP3    H171387   5.751  -0.029   4.580  1.1497 -2.9725  0.2348
16632TIP3    H271388   5.880   0.050   4.582 -0.3638 -0.4588  0.6999
16633TIP3   OH271389   4.167   4.178  16.786 -0.4459 -0.3577  0.0001
16633TIP3    H171390   4.161   4.133  16.702  0.2181  0.1131 -0.3025
16633TIP3    H271391   4.077   4.207  16.804 -0.2609  1.2221 -1.4798
16634TIP3   OH271392   3.720   5.560  13.747 -0.4542  0.4071 -0.0788
16634TIP3    H171393   3.747   5.644  13.785  2.6577  0.5083 -2.3705
16634TIP3    H271394   3.743   5.495  13.813  0.6042  1.0025  0.1405
16635TIP3   OH271395   3.183   3.966   2.269 -0.0076  0.0924 -0.2513
16635TIP3    H171396   3.098   3.937   2.301  0.1530 -0.9369 -0.7425
16635TIP3    H271397   3.241   3.892   2.284  0.4239  0.1746 -1.4444
16636TIP3   OH271398   3.046   6.475  15.866 -0.6956  0.1540 -0.1531
16636TIP3    H171399   3.012   6.390  15.894 -0.8674  0.0443 -0.6954
16636TIP3    H271400   3.133   6.456  15.831 -0.8684  0.1544 -0.5808
16637TIP3   OH271401   0.901   1.710  14.846 -0.3005  0.5953 -0.0561
16637TIP3    H171402   0.902   1.725  14.940  1.5600  0.4051 -0.0356
16637TIP3    H271403   0.838   1.773  14.812 -0.8276  0.7997  1.2826
16638TIP3   OH271404   0.092   3.851   3.869 -0.0906 -0.0993  0.1871
16638TIP3    H171405   0.124   3.814   3.951  0.1029  2.3396  1.2213
16638TIP3    H271406  -0.002   3.862   3.882 -0.7904 -3.4324 -1.3980
16639TIP3   OH271407   0.168   6.225  12.721 -0.0765  0.0011 -0.0792
16639TIP3    H171408   0.212   6.268  12.647  0.9879 -0.6426  0.1676
16639TIP3    H271409   0.172   6.132  12.700 -1.2615 -0.0810 -0.0032
16640TIP3   OH271410   5.799   0.333  14.704  0.0589 -0.2548  0.6216
16640TIP3    H171411   5.705   0.325  14.721  0.1734  1.6742  2.3663
16640TIP3    H271412   5.840   0.275  14.768  0.0694 -1.3118 -0.3219
16641TIP3   OH271413   0.811   1.928   5.612 -0.3951  0.2659  1.3666
16641TIP3    H171414   0.894   1.973   5.631  1.1225 -1.7780 -0.2003
16641TIP3    H271415   0.808   1.856   5.675 -1.7981  1.2464  2.4652
16642TIP3   OH271416   6.322   6.545   2.115  0.4563 -0.1098  0.5498
16642TIP3    H171417   6.412   6.531   2.085  0.6427  0.9162  0.6160
16642TIP3    H271418   6.287   6.457   2.126  0.6345 -0.5085 -1.9080
16643TIP3   OH271419   2.574   3.917   2.058 -0.3647 -0.0309  0.0292
16643TIP3    H171420   2.540   3.971   2.129 -0.2566  0.8753 -0.5874
16643TIP3    H271421   2.540   3.959   1.979  0.1185 -0.5946 -0.4784
16644TIP3   OH271422   2.822   1.077   1.857  0.0769 -0.5633  0.6975
16644TIP3    H171423   2.797   0.985   1.863 -0.5173 -0.5649 -1.4419
16644TIP3    H271424   2.911   1.075   1.822 -0.0302 -0.3114  0.4137
16645TIP3   OH271425   0.990   0.350  16.732  0.1098  0.0820  0.2793
16645TIP3    H171426   0.984   0.329  16.825  0.9053  0.4039  0.4075
16645TIP3    H271427   1.003   0.266  16.689  0.6003  0.0193  0.5427
16646TIP3   OH271428   6.276   2.115  11.068  0.1098  0.7498 -0.7834
16646TIP3    H171429   6.205   2.171  11.037  0.3956  0.2113 -2.4951
16646TIP3    H271430   6.266   2.113  11.163 -0.7156  2.5983 -0.8164
16647TIP3   OH271431   0.638   0.765  15.302 -0.6183 -0.0875  0.2528
16647TIP3    H171432   0.605   0.792  15.387  0.1877  0.3858  0.4190
16647TIP3    H271433   0.573   0.798  15.240  0.1660  1.9672  0.4755
16648TIP3   OH271434   1.744   0.358   0.781 -0.3805  0.2029 -0.4618
16648TIP3    H171435   1.756   0.452   0.794  0.7769  0.0609 -0.4524
16648TIP3    H271436   1.659   0.350   0.737 -1.6453  1.0694  1.7453
16649TIP3   OH271437   2.285   5.913   3.559  0.2572  0.5795 -0.6293
16649TIP3    H171438   2.372   5.872   3.561 -0.5935 -1.2091  1.2518
16649TIP3    H271439   2.294   5.984   3.495  2.9237  0.0382 -0.9322
16650TIP3   OH271440   0.636   5.437   0.606 -0.2519  0.0525  0.1728
16650TIP3    H171441   0.570   5.411   0.541  1.3690 -0.3396 -1.3745
16650TIP3    H271442   0.687   5.505   0.562  2.6349 -2.1676 -0.0578
16651TIP3   OH271443   6.544   1.241   3.544 -0.1822  0.0640 -0.1777
16651TIP3    H171444   6.540   1.332   3.574  1.8128  0.3106 -0.5759
16651TIP3    H271445   6.619   1.204   3.590 -1.5256 -1.6557  0.6621
16652TIP3   OH271446   6.667   6.041  16.191  0.0332  0.9229 -0.7272
16652TIP3    H171447   6.739   5.982  16.215 -1.1890 -0.1110  0.4725
16652TIP3    H271448   6.638   6.078  16.275 -1.5980  0.4393 -1.0837
16653TIP3   OH271449   6.676   4.012   2.659 -0.4829  0.2131  0.1182
16653TIP3    H171450   6.680   4.010   2.754  0.6797 -1.0466  0.0558
16653TIP3    H271451   6.661   3.921   2.633  1.2161  0.2255 -0.9715
16654TIP3   OH271452   1.198   6.670  15.871  0.2270  0.5192  0.3574
16654TIP3    H171453   1.188   6.680  15.965  2.6640  1.2661  0.5651
16654TIP3    H271454   1.108   6.657  15.839 -0.7455  1.3278  2.6264
16655TIP3   OH271455   0.434   0.900   2.544 -0.4829  0.0380 -0.1704
16655TIP3    H171456   0.354   0.873   2.589  0.1354 -0.4986  0.6031
16655TIP3    H271457   0.440   0.840   2.469  0.4793 -1.4804  1.1162
16656TIP3   OH271458   6.200   6.010   1.907 -0.0546 -0.1067  0.0096
16656TIP3    H171459   6.246   6.019   1.824  1.4472  3.3900  1.1301
16656TIP3    H271460   6.269   5.990   1.970 -0.7627  0.1684  0.8863
16657TIP3   OH271461   3.636   0.005   3.796 -0.0547 -0.2979  0.5416
16657TIP3    H171462   3.566  -0.027   3.852  0.1601  0.8230  1.4664
16657TIP3    H271463   3.615  -0.030   3.709 -0.8067 -1.4013  1.1591
16658TIP3   OH271464   0.398   6.512   3.036  0.3239 -0.7126 -0.3281
16658TIP3    H171465   0.317   6.558   3.013  1.0161  0.8284  0.2513
16658TIP3    H271466   0.378   6.468   3.119  0.1809 -0.0686 -0.0204
16659TIP3   OH271467   1.676   4.843   4.786  0.4826  0.1915  0.2169
16659TIP3    H171468   1.594   4.836   4.835 -0.6297  2.4655 -1.2408
16659TIP3    H271469   1.739   4.794   4.839 -1.6168 -0.9248  1.7778
16660TIP3   OH271470   3.198   0.408  13.863 -0.3236 -0.0291  0.1439
16660TIP3    H171471   3.208   0.315  13.843  1.2005  0.4645 -1.5196
16660TIP3    H271472   3.136   0.410  13.936  1.8290 -2.5145  2.1398
16661TIP3   OH271473   4.337   3.846  11.166  0.1686 -0.9545  0.3378
16661TIP3    H171474   4.392   3.820  11.240  0.3768  0.2472  0.6123
16661TIP3    H271475   4.393   3.836  11.089  0.8301  0.3995  0.6305
16662TIP3   OH271476   5.143   5.016  11.214 -0.1226  0.6838 -0.1283
16662TIP3    H171477   5.199   4.965  11.155 -0.1474  1.5003 -0.8595
16662TIP3    H271478   5.132   4.960  11.291  1.0511  0.1889 -0.3127
16663TIP3   OH271479   4.060   0.298  15.299 -0.1234  0.2535  0.2132
16663TIP3    H171480   4.098   0.378  15.263 -1.6533  0.8401 -0.1036
16663TIP3    H271481   3.968   0.301  15.273 -0.0745 -1.8836 -0.2772
16664TIP3   OH271482   1.894   0.456   2.423  0.0633 -0.1822  0.4863
16664TIP3    H171483   1.836   0.497   2.359  0.2584  0.5048  0.7487
16664TIP3    H271484   1.935   0.529   2.469 -0.1995 -0.6730  1.5048
16665TIP3   OH271485   2.433   2.167  15.491  0.4008  0.0518  0.0313
16665TIP3    H171486   2.391   2.178  15.576  0.1884  0.4412 -0.1217
16665TIP3    H271487   2.439   2.072  15.479  0.1080 -0.0030  0.3223
16666TIP3   OH271488   6.067   5.208  14.642 -0.0190  0.0080  0.3252
16666TIP3    H171489   5.990   5.208  14.586 -1.3381 -0.5861  2.0832
16666TIP3    H271490   6.115   5.287  14.617 -0.0682 -0.7195 -2.2535
16667TIP3   OH271491   0.457   6.236   2.274  0.2814  0.3815 -0.3408
16667TIP3    H171492   0.390   6.301   2.296  0.3482  0.3573 -0.0638
16667TIP3    H271493   0.536   6.268   2.317  0.7215  1.0139 -1.6279
16668TIP3   OH271494   1.847   3.608  14.621 -0.4357  0.9783  0.4070
16668TIP3    H171495   1.916   3.643  14.678 -0.0859  0.1062  0.5276
16668TIP3    H271496   1.889   3.537  14.573 -1.3888  0.0881  0.8818
16669TIP3   OH271497   6.307   5.811  15.274 -0.3355  0.3124  0.1234
16669TIP3    H171498   6.363   5.876  15.316 -1.0678  0.6117  0.6494
16669TIP3    H271499   6.230   5.861  15.246 -0.9577 -0.3549  0.6389
16670TIP3   OH271500   0.974   0.681  12.465  0.2857 -0.2060 -0.4130
16670TIP3    H171501   1.048   0.706  12.520  0.4028 -1.1343 -0.1380
16670TIP3    H271502   0.969   0.750  12.399 -1.2148  2.1325  2.0126
16671TIP3   OH271503   3.452   1.975   3.429  0.1519 -0.7257 -0.8064
16671TIP3    H171504   3.397   1.902   3.402  0.8770 -1.4589 -0.3134
16671TIP3    H271505   3.440   1.981   3.523 -0.5308  0.3081 -0.9568
16672TIP3   OH271506   1.792   4.068   1.832 -0.2641 -0.0442 -0.1282
16672TIP3    H171507   1.740   4.148   1.839 -1.4938 -0.6861 -1.6419
16672TIP3    H271508   1.820   4.065   1.741  0.5148 -0.8822  0.1339
16673TIP3   OH271509   2.601   6.197   2.384  0.4808  0.4654 -0.1505
16673TIP3    H171510   2.557   6.212   2.468  1.1679 -0.4152  0.3796
16673TIP3    H271511   2.691   6.227   2.398  0.4133  0.9910 -0.8069
16674TIP3   OH271512   1.045   2.914  14.497  0.2672  0.0936  0.1518
16674TIP3    H171513   1.119   2.964  14.532  0.7785 -1.0652  0.7563
16674TIP3    H271514   0.989   2.897  14.573 -1.1308  1.7941 -0.4651
16675TIP3   OH271515   5.602   5.968  14.451 -0.1218  0.1152 -0.1989
16675TIP3    H171516   5.642   6.012  14.376  3.1084  0.4125  1.5943
16675TIP3    H271517   5.517   6.011  14.461  0.5862  2.0405 -1.9190
16676TIP3   OH271518   4.914   0.912   2.737  0.4179 -0.3977 -0.1163
16676TIP3    H171519   4.877   0.905   2.825  0.9714 -0.6678  0.0982
16676TIP3    H271520   4.838   0.928   2.680  0.2405  1.4981  0.6114
16677TIP3   OH271521   2.298   6.452  11.359  0.0365  0.0498  0.0857
16677TIP3    H171522   2.280   6.414  11.273  0.9184 -0.2859  0.0516
16677TIP3    H271523   2.213   6.485  11.389 -0.3055  0.0074 -0.8370
16678TIP3   OH271524   6.803   5.242  14.247 -0.5239 -0.4529  0.2816
16678TIP3    H171525   6.739   5.300  14.206 -0.6448 -0.5413  0.3475
16678TIP3    H271526   6.762   5.156  14.247 -1.3034 -0.1095  2.2997
16679TIP3   OH271527   5.329   1.938   3.567  0.1082 -0.3129 -0.2466
16679TIP3    H171528   5.296   1.849   3.577  1.5565 -0.8672 -0.3175
16679TIP3    H271529   5.422   1.928   3.550  0.3980  1.2386  0.2954
16680TIP3   OH271530   0.054   1.973  11.796 -0.3161  0.1032  0.3135
16680TIP3    H171531   0.049   1.878  11.794 -0.7201  0.1464 -1.6738
16680TIP3    H271532  -0.031   2.001  11.830 -1.1549 -0.1781 -1.5119
16681TIP3   OH271533   0.702   5.134  12.399  0.1170 -0.0709 -0.7203
16681TIP3    H171534   0.738   5.218  12.426  2.2627 -0.6155 -1.8371
16681TIP3    H271535   0.608   5.151  12.386  0.1859  1.6818  0.8315
16682TIP3   OH271536   0.461   1.456   1.528  0.0276 -0.2033 -0.1355
16682TIP3    H171537   0.386   1.449   1.588 -0.1909  0.0336 -0.3796
16682TIP3    H271538   0.525   1.394   1.563 -0.2462 -0.3401  0.1303
16683TIP3   OH271539   4.890   5.330  17.231 -0.7373  0.2264 -0.3625
16683TIP3    H171540   4.979   5.342  17.200 -0.6872 -0.3971 -0.4508
16683TIP3    H271541   4.887   5.241  17.266 -0.1749  1.6360  3.5090
16684TIP3   OH271542   6.303   1.664  14.599 -0.1615 -0.2654 -0.5319
16684TIP3    H171543   6.382   1.703  14.563 -0.1298 -0.0805 -0.2675
16684TIP3    H271544   6.237   1.674  14.530 -0.6303  1.8492  0.1940
16685TIP3   OH271545   5.098   4.026   2.279 -0.7502 -0.1115  0.3673
16685TIP3    H171546   5.185   4.037   2.241 -0.6328  0.8831  0.8782
16685TIP3    H271547   5.110   4.049   2.372 -1.0784 -2.1992  0.9532
16686TIP3   OH271548   3.887   3.422   1.383 -0.3469  0.1652 -0.1750
16686TIP3    H171549   3.919   3.350   1.330 -0.9686 -1.3871  1.4940
16686TIP3    H271550   3.958   3.439   1.445 -1.0859 -0.5617  0.8959
16687TIP3   OH271551   5.560   5.143   0.328 -0.2091 -0.3410 -0.1388
16687TIP3    H171552   5.515   5.138   0.412  0.2900 -1.8332  0.0531
16687TIP3    H271553   5.494   5.118   0.264  0.1301 -1.9186  0.0870
16688TIP3   OH271554   2.444   4.863   4.586  0.3592 -0.5862  0.6717
16688TIP3    H171555   2.498   4.829   4.515  1.9281  0.6147  1.2711
16688TIP3    H271556   2.395   4.935   4.546  0.1814 -0.8177  0.4647
16689TIP3   OH271557   4.940   4.550   3.142 -0.1652 -0.4744  0.1201
16689TIP3    H171558   5.007   4.618   3.138  0.8685 -1.4159  0.9924
16689TIP3    H271559   4.871   4.587   3.197 -0.0590  0.2515 -0.2358
16690TIP3   OH271560   0.636   0.746   3.751  0.5151 -0.2314 -0.2145
16690TIP3    H171561   0.641   0.839   3.729 -0.5567  0.1381  1.0104
16690TIP3    H271562   0.718   0.727   3.796  0.0440  0.5381  0.9965
16691TIP3   OH271563   4.985   2.876   4.676 -0.6168 -0.6230 -0.3871
16691TIP3    H171564   4.960   2.964   4.704 -3.7811 -1.2783 -0.9841
16691TIP3    H271565   4.980   2.879   4.580 -0.2067 -1.2938 -0.4333
16692TIP3   OH271566   5.762   4.695  12.429 -0.2428 -0.2076 -0.5167
16692TIP3    H171567   5.819   4.755  12.380 -1.8646  2.0253  0.2786
16692TIP3    H271568   5.822   4.647  12.487  1.1694  0.0555 -1.7243
16693TIP3   OH271569   5.610   2.437   1.612 -0.3366 -0.1625 -0.1139
16693TIP3    H171570   5.696   2.450   1.574 -0.4767 -2.0258 -1.1388
16693TIP3    H271571   5.608   2.344   1.637 -2.1514 -0.2476 -0.4584
16694TIP3   OH271572   5.482   1.742   1.713  0.9365  0.2265 -0.0678
16694TIP3    H171573   5.442   1.661   1.681  0.7937  0.1827  0.2184
16694TIP3    H271574   5.458   1.808   1.648 -0.2860  0.3737  0.5043
16695TIP3   OH271575   5.053   6.348   5.999  0.3169 -0.3655  0.2390
16695TIP3    H171576   5.124   6.295   5.963  0.0737 -0.3016 -0.3393
16695TIP3    H271577   4.979   6.333   5.940  0.0858  0.1950  0.3821
16696TIP3   OH271578   5.519   0.037  14.929  0.2278  0.2162  1.0375
16696TIP3    H171579   5.519  -0.049  14.971 -1.8584 -1.3027 -1.8909
16696TIP3    H271580   5.609   0.049  14.898  0.8582 -0.2787  2.6320
16697TIP3   OH271581   0.960   4.627  10.467  0.2047 -0.2380  0.1531
16697TIP3    H171582   1.016   4.600  10.540  0.9181  0.2817 -0.2029
16697TIP3    H271583   0.872   4.625  10.503  0.5238 -0.2922  0.9418
16698TIP3   OH271584   2.330   6.399   5.019 -0.0570  0.1601 -0.1669
16698TIP3    H171585   2.282   6.481   5.005  0.1724  0.0001 -1.9863
16698TIP3    H271586   2.422   6.425   5.026 -0.1725  0.2455  1.2308
16699TIP3   OH271587   3.014   0.450  14.759  0.4885 -0.4054  0.2155
16699TIP3    H171588   2.978   0.405  14.835  1.3515 -0.5955  0.5144
16699TIP3    H271589   3.085   0.394  14.728  1.4269  0.6344  0.4578
16700TIP3   OH271590   0.498   2.892  15.086  0.2549  0.6560 -0.0250
16700TIP3    H171591   0.502   2.964  15.150  0.1340 -0.8787  1.7404
16700TIP3    H271592   0.438   2.829  15.125  1.0119 -0.7903 -1.1663
16701TIP3   OH271593   6.014   3.076   2.030 -0.3360 -0.3447  0.2130
16701TIP3    H171594   6.095   3.123   2.012 -0.4507 -1.0585 -2.4637
16701TIP3    H271595   6.041   2.996   2.074  0.4127 -0.4901 -0.4955
16702TIP3   OH271596   2.438   1.822   0.059  0.2184  0.0460 -0.5401
16702TIP3    H171597   2.381   1.898   0.075  0.9371  0.1054  1.8693
16702TIP3    H271598   2.406   1.755   0.119  1.4583 -0.5869 -0.5822
16703TIP3   OH271599   5.626   4.930  11.517 -0.3354  0.1752  0.3704
16703TIP3    H171600   5.554   4.958  11.460 -0.0492  0.6421  0.2354
16703TIP3    H271601   5.589   4.859  11.569  0.3174 -2.5365 -2.6778
16704TIP3   OH271602   1.353   5.269  13.917  0.2500 -0.3684 -0.5809
16704TIP3    H171603   1.366   5.247  14.009 -1.0516  0.9942 -0.0551
16704TIP3    H271604   1.258   5.281  13.908  0.3714 -0.4410 -2.0873
16705TIP3   OH271605   0.156   0.696  11.783  0.1292  0.1094  0.0651
16705TIP3    H171606   0.108   0.614  11.795  2.8548 -1.6514 -0.4727
16705TIP3    H271607   0.182   0.722  11.872  2.0921 -1.4601 -0.0015
16706TIP3   OH271608   5.938   2.296   1.028  0.1805  0.1330  0.2122
16706TIP3    H171609   5.886   2.377   1.029  2.1193  1.4194 -0.2076
16706TIP3    H271610   6.008   2.312   1.092  0.9405 -0.9462 -0.3401
16707TIP3   OH271611   6.018   2.074   2.758  1.0420  0.3305 -0.0696
16707TIP3    H171612   6.100   2.027   2.748  0.4051 -0.9199  0.4715
16707TIP3    H271613   5.952   2.005   2.767  0.1115  1.3233  0.8238
16708TIP3   OH271614   6.021   0.252  15.781 -0.2967 -0.2971  0.2246
16708TIP3    H171615   6.115   0.238  15.776 -0.1335  0.8345  0.0161
16708TIP3    H271616   5.983   0.164  15.781  0.6219 -0.7294 -2.3485
16709TIP3   OH271617   6.590   1.205   2.708 -0.3123 -0.4775 -0.4451
16709TIP3    H171618   6.676   1.236   2.682  0.1157 -1.5740 -0.3696
16709TIP3    H271619   6.583   1.229   2.801  0.9563 -2.6043  0.2349
16710TIP3   OH271620   6.315   2.707   0.340 -0.0129  0.4422  0.4079
16710TIP3    H171621   6.391   2.653   0.360 -0.6798 -0.3307  0.9113
16710TIP3    H271622   6.289   2.682   0.251 -0.2478  0.0131  0.5949
16711TIP3   OH271623   0.282   3.062   1.414 -0.1271 -0.2202 -0.1653
16711TIP3    H171624   0.351   3.102   1.361 -1.2671 -0.4838 -1.8983
16711TIP3    H271625   0.201   3.102   1.382 -0.8380 -0.2450  1.5366
16712TIP3   OH271626   0.297   2.030  11.661 -0.5550  0.7537  0.2131
16712TIP3    H171627   0.284   2.018  11.567 -0.2987 -1.5247  0.4383
16712TIP3    H271628   0.230   1.975  11.702 -0.7683  1.8563  1.3621
16713TIP3   OH271629   2.469   4.714   5.027  0.6635  0.1918  0.8515
16713TIP3    H171630   2.435   4.701   5.115  0.2901 -1.1960  0.5176
16713TIP3    H271631   2.564   4.710   5.036  0.5950 -1.0092  1.0272
16714TIP3   OH271632   4.317   0.403   0.303  0.2204  0.4820 -0.1750
16714TIP3    H171633   4.335   0.387   0.396 -0.8602 -0.8618 -0.1767
16714TIP3    H271634   4.362   0.331   0.258  1.1886  1.4291 -0.7420
16715TIP3   OH271635   0.278   0.032  12.342  0.2794 -0.2684  0.0668
16715TIP3    H171636   0.248  -0.011  12.262 -1.6210 -1.0556  1.1495
16715TIP3    H271637   0.270   0.126  12.324  0.7685 -0.4214 -0.9790
16716TIP3   OH271638   1.847   1.593   2.602  0.2729  0.5474 -0.2318
16716TIP3    H171639   1.811   1.564   2.686  0.7269 -2.0584 -0.8882
16716TIP3    H271640   1.779   1.649   2.564 -0.6307  0.3852  1.1210
16717TIP3   OH271641   6.144   6.305   2.379 -0.3290  0.1377  0.0594
16717TIP3    H171642   6.135   6.320   2.285  0.0142  0.3600  0.0620
16717TIP3    H271643   6.177   6.215   2.386  0.1628  0.3121 -0.0501
16718TIP3   OH271644   2.446   1.926  10.697 -0.4107 -0.3136  0.2384
16718TIP3    H171645   2.483   1.839  10.687 -0.2419 -0.5764  2.7075
16718TIP3    H271646   2.449   1.942  10.792 -2.9914  1.2568  0.0891
16719TIP3   OH271647   2.790   6.469   1.592 -0.5813  0.8008 -0.1074
16719TIP3    H171648   2.763   6.552   1.633 -0.6600 -0.2933  2.1209
16719TIP3    H271649   2.843   6.426   1.658 -0.9832 -1.1844 -1.0485
16720TIP3   OH271650   3.450   0.458   5.962  0.1859  0.0726 -0.2098
16720TIP3    H171651   3.519   0.500   6.014 -1.1618 -0.6445  2.2397
16720TIP3    H271652   3.482   0.369   5.948 -0.6990 -0.6452  1.9857
16721TIP3   OH271653   0.193   4.392  17.074 -0.3328 -0.3295  0.2755
16721TIP3    H171654   0.112   4.443  17.079 -0.2005 -0.2239  1.3177
16721TIP3    H271655   0.245   4.437  17.007 -0.9459 -0.1348 -0.0780
16722TIP3   OH271656   2.834   2.305   4.105  0.4253  0.5951 -0.4264
16722TIP3    H171657   2.799   2.394   4.100 -0.7168  0.2059  0.4231
16722TIP3    H271658   2.759   2.251   4.130  1.6460 -0.2495  1.4858
16723TIP3   OH271659   2.064   3.052  13.560  0.3707  0.2810 -0.3458
16723TIP3    H171660   2.121   2.981  13.531 -0.7003 -0.0432 -1.7095
16723TIP3    H271661   2.022   3.020  13.639  2.6480  0.8200  1.1268
16724TIP3   OH271662   3.164   2.452  14.687 -0.5803  0.1245 -0.0711
16724TIP3    H171663   3.098   2.391  14.718 -0.7115  0.4541  0.3076
16724TIP3    H271664   3.157   2.527  14.746  1.0185 -0.3785  0.7878
16725TIP3   OH271665   4.220   1.758  15.878  0.4369  0.0414 -0.1308
16725TIP3    H171666   4.199   1.851  15.883  1.6315  0.3521 -0.7683
16725TIP3    H271667   4.173   1.719  15.952 -0.4952  1.0586 -0.1646
16726TIP3   OH271668   4.339   3.896   0.643  0.6003 -0.7181 -0.2897
16726TIP3    H171669   4.276   3.918   0.712  0.7082 -1.0755 -0.0778
16726TIP3    H271670   4.357   3.803   0.656  1.0532 -0.6519 -0.4531
16727TIP3   OH271671   2.857   0.977   4.711 -0.2844 -0.1398  0.1094
16727TIP3    H171672   2.871   1.053   4.766  1.9079 -1.3615  1.2731
16727TIP3    H271673   2.848   0.904   4.772 -1.9923 -0.8920 -1.0051
16728TIP3   OH271674   6.810   2.982  11.847  0.6177 -0.3268  0.0323
16728TIP3    H171675   6.745   2.925  11.805 -0.9396  2.2080 -1.1072
16728TIP3    H271676   6.768   3.067  11.851  2.6951  0.6693  2.2131
16729TIP3   OH271677   6.059   0.619   4.639  0.1237 -0.2292 -0.3186
16729TIP3    H171678   6.111   0.698   4.626 -1.3774  0.3137 -3.6463
16729TIP3    H271679   5.981   0.649   4.687  0.7318 -0.2078  0.6759
16730TIP3   OH271680   6.802   2.418  14.979  0.5359  0.3997  0.5537
16730TIP3    H171681   6.753   2.443  15.057 -2.9070  0.9886 -1.6521
16730TIP3    H271682   6.805   2.497  14.926 -0.1203 -0.8162 -1.3581
16731TIP3   OH271683   2.177   2.000   2.633  0.3242  0.1965  0.4394
16731TIP3    H171684   2.117   2.072   2.612 -1.3052 -1.1379  0.3942
16731TIP3    H271685   2.164   1.984   2.726  0.2722 -0.3975  0.3338
16732TIP3   OH271686   5.188   0.023   3.884 -0.5923  0.2061 -0.3234
16732TIP3    H171687   5.278   0.035   3.915 -0.7281  0.2572  0.0577
16732TIP3    H271688   5.167   0.106   3.840 -1.3450  1.1994  1.8415
16733TIP3   OH271689   2.654   4.420  12.237  0.2606  0.1638 -0.8000
16733TIP3    H171690   2.573   4.397  12.190 -2.0868  0.2852  3.0049
16733TIP3    H271691   2.659   4.515  12.232 -0.8623  0.3016  0.5445
16734TIP3   OH271692   3.427   3.504   4.406 -0.3617 -0.2806 -0.6183
16734TIP3    H171693   3.390   3.492   4.494  0.4252 -2.9720 -0.6006
16734TIP3    H271694   3.444   3.415   4.376 -0.2943  0.6410 -3.3814
16735TIP3   OH271695   0.753   5.944   6.285 -0.4458  0.2531 -0.9281
16735TIP3    H171696   0.737   6.010   6.352 -1.6792  0.3837 -1.3418
16735TIP3    H271697   0.846   5.954   6.264 -0.3166  0.9816 -0.0666
16736TIP3   OH271698   6.312   2.451  14.140  0.4771  0.5968  0.0262
16736TIP3    H171699   6.355   2.517  14.193  0.4232  0.4712  0.2248
16736TIP3    H271700   6.262   2.501  14.074 -0.4177  0.7861  0.8359
16737TIP3   OH271701   3.821   0.583  13.830 -0.0826  0.0632  0.0989
16737TIP3    H171702   3.847   0.546  13.745  0.1401  0.3296  0.0487
16737TIP3    H271703   3.730   0.610  13.817  0.0781  0.4760 -0.1845
16738TIP3   OH271704   2.547   1.695   1.025 -0.2995  0.3965 -0.3157
16738TIP3    H171705   2.509   1.607   1.026  0.3773  0.1025 -0.4036
16738TIP3    H271706   2.599   1.700   1.105  1.0774  0.0946 -1.1852
16739TIP3   OH271707   3.294   3.774  10.860 -0.0744 -0.3199 -0.2843
16739TIP3    H171708   3.364   3.713  10.840  0.7547  0.3695  0.4933
16739TIP3    H271709   3.311   3.803  10.949 -0.3731  1.1422 -0.6819
16740TIP3   OH271710   1.793   4.520   1.036  0.0213 -0.5252  0.4400
16740TIP3    H171711   1.765   4.608   1.061  0.6257  0.0177 -0.7486
16740TIP3    H271712   1.888   4.521   1.047 -0.0912 -1.4211  1.5895
16741TIP3   OH271713   4.095   2.573  10.521 -0.2523  0.0436 -0.2078
16741TIP3    H171714   4.170   2.515  10.513 -0.5818 -0.7903  2.2291
16741TIP3    H271715   4.058   2.577  10.432  0.5287 -2.4688 -0.7039
16742TIP3   OH271716   2.132   0.695   6.648 -0.2341  0.3348  0.1388
16742TIP3    H171717   2.220   0.674   6.617  0.1763  0.3255  1.3079
16742TIP3    H271718   2.145   0.757   6.720 -1.1871  0.4774  0.2008
16743TIP3   OH271719   3.819   2.881  14.052 -0.5691 -0.4451 -0.1442
16743TIP3    H171720   3.794   2.889  14.144  0.6219 -0.2556  0.1645
16743TIP3    H271721   3.858   2.965  14.029  2.1971 -1.6011  0.1259
16744TIP3   OH271722   5.612   6.591  17.243 -0.0562 -0.0567 -0.0820
16744TIP3    H171723   5.663   6.513  17.267  0.3805  0.1194 -0.4361
16744TIP3    H271724   5.521   6.560  17.241  0.3012 -1.0639 -2.2175
16745TIP3   OH271725   0.920   0.938   5.182 -0.5200 -0.1409 -0.7101
16745TIP3    H171726   0.851   1.002   5.198  0.3585  0.9324 -1.1603
16745TIP3    H271727   0.963   0.927   5.266 -1.1377 -0.7137 -0.4595
16746TIP3   OH271728   1.811   6.146   4.441 -0.1420  0.1835 -0.0428
16746TIP3    H171729   1.748   6.177   4.506 -0.7482 -0.5086 -0.3045
16746TIP3    H271730   1.820   6.220   4.380 -0.7069  0.2873 -0.0059
16747TIP3   OH271731   5.294   0.907  11.576  0.5085  0.7994  0.0038
16747TIP3    H171732   5.290   0.861  11.660  0.8657 -0.8319 -0.8600
16747TIP3    H271733   5.388   0.917  11.559  0.4332  2.2286  0.3766
16748TIP3   OH271734   2.746   2.239   2.107  0.3556 -0.1739  0.3750
16748TIP3    H171735   2.710   2.211   2.192  0.3734  1.5242  0.9688
16748TIP3    H271736   2.834   2.202   2.105 -0.2082 -1.5597  0.3882
16749TIP3   OH271737   4.051   6.380   1.761  0.1064  0.4040  0.7743
16749TIP3    H171738   4.129   6.436   1.757  0.8488 -0.4693  2.2955
16749TIP3    H271739   3.997   6.419   1.830  0.8196 -0.9615  2.1266
16750TIP3   OH271740   2.736   4.104  13.308 -0.5590 -0.6282  0.0656
16750TIP3    H171741   2.770   4.176  13.361  1.3436 -0.1123 -1.7994
16750TIP3    H271742   2.651   4.084  13.347  0.1190  0.7624  2.3341
16751TIP3   OH271743   4.620   1.158   2.166  0.4314  0.0957  0.2812
16751TIP3    H171744   4.595   1.114   2.247  2.7338  0.1722  1.0519
16751TIP3    H271745   4.670   1.234   2.194  2.4028 -0.6043 -1.2236
16752TIP3   OH271746   3.560   1.231   5.148 -0.0069 -0.3483 -0.0903
16752TIP3    H171747   3.601   1.175   5.215  1.0741  0.7660  0.2117
16752TIP3    H271748   3.493   1.176   5.108  0.4184 -1.5575  0.8224
16753TIP3   OH271749   6.134   3.836   0.554 -0.3972 -0.3090 -0.0647
16753TIP3    H171750   6.170   3.896   0.619 -0.2590  1.2973 -1.5856
16753TIP3    H271751   6.207   3.817   0.496 -0.3392 -2.2927  0.6169
16754TIP3   OH271752   2.064   0.545   4.933  0.1566 -1.0240  0.4210
16754TIP3    H171753   2.026   0.609   4.993 -0.5210 -0.1090 -0.9646
16754TIP3    H271754   2.140   0.511   4.980 -0.5396 -0.5580  1.9231
16755TIP3   OH271755   0.164   5.394  15.540  0.2115  0.5947  0.1083
16755TIP3    H171756   0.107   5.319  15.556 -1.2853  1.5634 -0.5829
16755TIP3    H271757   0.139   5.458  15.606  1.6989  0.3784  0.8963
16756TIP3   OH271758   2.094   4.836   0.782 -0.2509 -0.4238 -0.1115
16756TIP3    H171759   2.007   4.838   0.823 -0.1119 -2.3580  0.3068
16756TIP3    H271760   2.078   4.861   0.691 -1.1407 -0.0410  0.1458
16757TIP3   OH271761   0.812   1.385  16.584 -0.8428 -0.7288 -0.0290
16757TIP3    H171762   0.755   1.451  16.624  0.1579 -0.5328  1.1036
16757TIP3    H271763   0.773   1.369  16.498 -1.8017  0.4346  0.1721
16758TIP3   OH271764   3.564   1.945  13.952  0.5350  0.6557 -0.0812
16758TIP3    H171765   3.573   1.905  14.038  0.2677 -0.0581 -0.3808
16758TIP3    H271766   3.564   2.039  13.969  1.5077  0.5365  0.5941
16759TIP3   OH271767   1.567   1.777  11.236  0.3281  0.5466  0.3898
16759TIP3    H171768   1.583   1.789  11.142  2.4447  1.9295  0.8912
16759TIP3    H271769   1.494   1.715  11.240 -2.3268  3.3735 -2.1833
16760TIP3   OH271770   6.771   5.753  14.484 -0.1807  0.3080 -1.0110
16760TIP3    H171771   6.781   5.840  14.446  1.1104  0.4564 -0.3563
16760TIP3    H271772   6.698   5.761  14.545 -3.2610 -0.2971 -4.4582
16761TIP3   OH271773   6.713   2.128  13.475 -0.2455  0.5390  0.0174
16761TIP3    H171774   6.732   2.220  13.495  1.3202 -0.0614  1.4720
16761TIP3    H271775   6.787   2.080  13.511 -1.5022 -1.3857  0.1285
16762TIP3   OH271776   2.022   4.469   2.654  0.1924  0.3047  0.9377
16762TIP3    H171777   1.928   4.489   2.653  0.0684 -0.2892  0.2732
16762TIP3    H271778   2.059   4.531   2.591  0.3981  1.2542  1.9868
16763TIP3   OH271779   3.418   4.945  14.680 -0.3867  0.0390 -0.3629
16763TIP3    H171780   3.505   4.914  14.705 -0.5408  1.8684  2.6940
16763TIP3    H271781   3.412   4.928  14.586  2.3636 -2.2112 -0.1755
16764TIP3   OH271782   6.473   3.897   0.739 -0.4924  0.3917  0.2577
16764TIP3    H171783   6.527   3.933   0.669 -0.6488  1.4106  0.6407
16764TIP3    H271784   6.396   3.954   0.741 -1.1434 -0.4758  0.3397
16765TIP3   OH271785   2.373   3.986   5.158 -0.6230 -0.1202 -0.3164
16765TIP3    H171786   2.355   4.000   5.250  1.3406 -3.9600  0.7872
16765TIP3    H271787   2.451   4.039   5.140 -0.6369  0.1482  0.4096
16766TIP3   OH271788   2.101   5.086   4.827 -0.0867 -0.1693  0.0821
16766TIP3    H171789   2.110   5.145   4.752  1.4517 -0.8501 -0.2862
16766TIP3    H271790   2.007   5.070   4.834 -0.2956  0.3958 -1.3209
16767TIP3   OH271791   2.380   5.641  11.922  0.1188  0.0826 -0.1038
16767TIP3    H171792   2.376   5.571  11.987 -0.9499  1.3017  1.1852
16767TIP3    H271793   2.459   5.622  11.871 -1.0813 -3.0135 -0.9382
16768TIP3   OH271794   5.760   5.939   0.206  0.2796  0.0074 -0.1411
16768TIP3    H171795   5.733   6.028   0.184 -0.0304  0.3810  1.7042
16768TIP3    H271796   5.680   5.887   0.200  0.2033  0.1002  0.0739
16769TIP3   OH271797   4.835   5.878  17.291  0.1770 -0.1959 -0.1526
16769TIP3    H171798   4.812   5.940  17.223  1.4189 -0.7311 -1.0929
16769TIP3    H271799   4.752   5.838  17.317 -0.4379  0.8016 -0.5752
16770TIP3   OH271800   4.557   3.846  12.749  0.3990  0.0591  0.1536
16770TIP3    H171801   4.606   3.764  12.747  0.4619  0.0703  0.9831
16770TIP3    H271802   4.620   3.913  12.723 -0.1853 -0.3943 -2.5764
16771TIP3   OH271803   3.299   6.523  13.786 -0.0768 -0.5370  0.4851
16771TIP3    H171804   3.221   6.565  13.823 -1.5417 -1.0221 -1.9757
16771TIP3    H271805   3.287   6.430  13.806 -0.4277 -0.6866 -0.4165
16772TIP3   OH271806   0.459   1.975   1.280  0.1565 -0.0101 -0.0142
16772TIP3    H171807   0.540   1.989   1.330 -1.0049  1.1288  1.5882
16772TIP3    H271808   0.397   1.940   1.344 -1.4113  1.6622 -0.5884
16773TIP3   OH271809   0.348   6.440   4.771  0.0685  0.0908 -0.7070
16773TIP3    H171810   0.441   6.463   4.771  0.2765 -0.7242 -1.5311
16773TIP3    H271811   0.306   6.510   4.721  0.3902 -0.0892 -1.2374
16774TIP3   OH271812   3.828   2.201   2.920 -0.0019 -0.0336  0.5637
16774TIP3    H171813   3.808   2.251   2.840  0.0077  1.9338  1.7630
16774TIP3    H271814   3.748   2.151   2.937  0.2815 -1.0972 -1.1183
16775TIP3   OH271815   0.980   6.319  12.678  0.2166  0.0981 -0.1066
16775TIP3    H171816   0.960   6.391  12.738 -2.1257  0.6946 -1.5387
16775TIP3    H271817   1.023   6.254  12.733 -0.3094  1.3479  1.8619
16776TIP3   OH271818   3.767   4.152   0.622 -0.1485 -0.0889 -0.7484
16776TIP3    H171819   3.690   4.206   0.603  0.2535 -0.5194 -3.8662
16776TIP3    H271820   3.735   4.062   0.620 -0.2342 -0.1313  1.4982
16777TIP3   OH271821   5.502   4.731  16.811  0.9638  0.4473  0.2788
16777TIP3    H171822   5.545   4.788  16.875 -1.2795  1.0249  1.3206
16777TIP3    H271823   5.473   4.791  16.742  1.5565  0.1021 -0.2736
16778TIP3   OH271824   3.021   1.611  16.170  0.0363 -0.1496  0.3688
16778TIP3    H171825   2.952   1.612  16.103  0.4477  0.5129 -0.0444
16778TIP3    H271826   3.062   1.697  16.164  0.8064 -0.4858  0.7171
16779TIP3   OH271827   0.954   0.187   4.012  0.4847 -0.2900 -0.2139
16779TIP3    H171828   0.905   0.197   4.093 -0.5200 -0.6890 -0.7618
16779TIP3    H271829   0.917   0.109   3.970  0.6814  0.1588 -1.2543
16780TIP3   OH271830   5.705   6.218  12.251  0.3843  0.3691 -0.6495
16780TIP3    H171831   5.736   6.184  12.335  1.3866 -0.3219 -1.2904
16780TIP3    H271832   5.610   6.204  12.253  0.4120  0.2852  0.3311
16781TIP3   OH271833   3.595   0.487  13.342 -0.3621  0.2252 -0.0307
16781TIP3    H171834   3.600   0.394  13.319 -0.6816 -0.5930  2.9712
16781TIP3    H271835   3.508   0.498  13.381  0.5584  1.2228  1.8349
16782TIP3   OH271836   6.563   2.558  12.542 -0.1803  0.0596  0.5319
16782TIP3    H171837   6.518   2.597  12.617  0.2105  0.8846  0.3500
16782TIP3    H271838   6.640   2.613  12.530 -0.9615  0.7734 -1.3433
16783TIP3   OH271839   3.486   6.233   1.763  0.1471 -0.5764  0.5519
16783TIP3    H171840   3.392   6.215   1.763 -0.3784  1.9672 -0.3610
16783TIP3    H271841   3.515   6.206   1.676 -0.3599  1.5364 -0.2938
16784TIP3   OH271842   5.523   2.022   3.738 -0.7011  0.1393 -0.1982
16784TIP3    H171843   5.489   1.975   3.815 -0.7013 -0.8547 -0.7972
16784TIP3    H271844   5.446   2.059   3.696 -0.8949 -0.8420 -0.7167
16785TIP3   OH271845   1.757   4.889  13.973  0.0087  0.1360 -0.2763
16785TIP3    H171846   1.776   4.830  14.046 -0.5334  0.6639  0.3016
16785TIP3    H271847   1.843   4.926  13.949 -0.0245  1.2104  1.1937
16786TIP3   OH271848   2.825   6.524  14.842 -0.1514 -0.2094 -0.6832
16786TIP3    H171849   2.745   6.490  14.804 -0.1369 -1.9861  0.7993
16786TIP3    H271850   2.796   6.585  14.910 -0.3004 -1.5893  0.5236
16787TIP3   OH271851   4.178   0.402   5.087  0.2592 -0.6871  0.0244
16787TIP3    H171852   4.251   0.372   5.142  2.5862  1.7605 -1.5698
16787TIP3    H271853   4.163   0.331   5.025  0.8022 -1.4886  0.7937
16788TIP3   OH271854   2.401   1.426  13.476 -0.2191  0.0332  0.0457
16788TIP3    H171855   2.309   1.432  13.453  0.4572  1.4723 -2.4974
16788TIP3    H271856   2.413   1.490  13.546 -0.6779  1.5955 -1.2814
16789TIP3   OH271857   0.708   4.886   5.105  0.1949  0.0216 -0.5434
16789TIP3    H171858   0.660   4.808   5.077  0.0920  0.0165 -0.3521
16789TIP3    H271859   0.643   4.939   5.151  0.2804  0.1914 -0.6190
16790TIP3   OH271860   0.812   6.049  11.166  0.2278  0.3375 -0.9223
16790TIP3    H171861   0.735   6.103  11.149  0.0612  0.1343 -0.8219
16790TIP3    H271862   0.859   6.048  11.083 -0.0517  0.1916 -1.0825
16791TIP3   OH271863   4.553   2.186   1.788 -0.2068 -0.3799  0.7591
16791TIP3    H171864   4.472   2.231   1.766 -1.4586 -2.7031  0.3914
16791TIP3    H271865   4.540   2.156   1.878 -0.4634 -2.1414  0.1629
16792TIP3   OH271866   1.668   3.325  14.275 -0.2837 -0.1152 -0.2350
16792TIP3    H171867   1.717   3.402  14.249  1.2422 -0.2646  2.0159
16792TIP3    H271868   1.586   3.330  14.226  0.2696  2.3106 -0.9510
16793TIP3   OH271869   1.354   6.519  14.905  0.3164  0.8201  0.0806
16793TIP3    H171870   1.261   6.501  14.892 -0.1185  1.8806  1.7061
16793TIP3    H271871   1.394   6.432  14.911 -0.7609  0.3546  0.7247
16794TIP3   OH271872   2.018   4.203  13.625 -1.1961 -0.1138 -0.2583
16794TIP3    H171873   2.028   4.117  13.664 -0.6970  0.2722  0.4742
16794TIP3    H271874   1.964   4.252  13.687  0.4403  0.8128  0.4640
16795TIP3   OH271875   3.825   4.385   4.212  0.0704 -0.0587 -0.5946
16795TIP3    H171876   3.867   4.384   4.298 -0.4002  1.6074 -0.3243
16795TIP3    H271877   3.821   4.293   4.186  0.2013 -0.5862  1.1744
16796TIP3   OH271878   3.202   0.007   5.160  0.3699  0.1260 -0.2877
16796TIP3    H171879   3.226  -0.066   5.103  0.2708 -1.9267  2.2228
16796TIP3    H271880   3.271   0.072   5.144  2.3080 -1.8265 -0.1981
16797TIP3   OH271881   4.927   4.949  11.679 -0.4630 -0.0821  0.4987
16797TIP3    H171882   4.906   4.935  11.771  1.3188 -0.6718  0.8429
16797TIP3    H271883   4.938   4.861  11.643 -1.3838  0.1390 -0.3440
16798TIP3   OH271884   2.460   5.306  11.893  0.3542  0.0732  0.9440
16798TIP3    H171885   2.379   5.278  11.934 -0.3906 -0.7883 -1.0925
16798TIP3    H271886   2.522   5.235  11.912 -0.4109 -1.0653 -0.6905
16799TIP3   OH271887   2.519   5.581  14.112  0.6358  0.3978  0.1234
16799TIP3    H171888   2.510   5.666  14.154  0.3052  2.2773 -3.5971
16799TIP3    H271889   2.434   5.566  14.070  0.0605 -2.6412  2.1821
16800TIP3   OH271890   5.704   5.633   4.933  0.9081 -0.5793  0.3568
16800TIP3    H171891   5.667   5.719   4.951  3.5225  0.6487 -0.0281
16800TIP3    H271892   5.709   5.590   5.019 -0.3081 -0.3442  0.5566
16801TIP3   OH271893   5.814   3.791  11.869  0.7127  0.0312  0.2555
16801TIP3    H171894   5.788   3.757  11.955 -0.1472 -3.3573 -1.2437
16801TIP3    H271895   5.756   3.865  11.854  0.0677 -0.0722  2.0845
16802TIP3   OH271896   6.137   6.192   5.491  0.2831 -0.1878  0.2669
16802TIP3    H171897   6.106   6.186   5.581  0.4791 -0.5449  0.3127
16802TIP3    H271898   6.066   6.235   5.443  0.2263  0.0997  0.6145
16803TIP3   OH271899   1.544   4.983   1.901 -0.1695  0.3060 -0.0493
16803TIP3    H171900   1.458   5.023   1.914 -1.1993 -2.0934  0.7896
16803TIP3    H271901   1.566   4.947   1.987  1.4190  0.3882 -0.4177
16804TIP3   OH271902   4.105   0.145  12.621 -0.4737  0.0336 -0.4301
16804TIP3    H171903   4.018   0.110  12.602  0.8038 -2.5278 -1.8231
16804TIP3    H271904   4.141   0.088  12.689 -0.2891  1.7734  0.9761
16805TIP3   OH271905   3.733   3.668  11.642  0.2867  0.2109 -0.5940
16805TIP3    H171906   3.670   3.740  11.636 -0.5862 -0.6084 -1.5387
16805TIP3    H271907   3.773   3.678  11.728 -0.8780  0.9740 -0.1246
16806TIP3   OH271908   3.537   0.530   4.803 -0.6864  0.3137 -0.3070
16806TIP3    H171909   3.582   0.505   4.723 -0.8053 -1.1142  0.0509
16806TIP3    H271910   3.518   0.447   4.846 -0.2433  1.0757  1.4069
16807TIP3   OH271911   6.794   0.662  16.741  0.2903  0.0765  0.1084
16807TIP3    H171912   6.779   0.673  16.647 -0.6428  0.7920  0.3257
16807TIP3    H271913   6.707   0.675  16.780  0.8391  0.7396  1.1366
16808TIP3   OH271914   3.934   3.101  13.897  0.1274  0.4167 -0.0735
16808TIP3    H171915   3.904   3.190  13.877  1.1351  0.5605 -0.9911
16808TIP3    H271916   3.894   3.047  13.828 -1.7751 -0.1072  1.3892
16809TIP3   OH271917   1.205   4.003   1.266 -0.4975  0.3337 -0.1810
16809TIP3    H171918   1.234   4.093   1.256  2.1713 -0.5264 -0.4235
16809TIP3    H271919   1.270   3.962   1.323 -1.2939 -1.6175 -0.6134
16810TIP3   OH271920   4.756   4.049  15.319  0.3006 -0.4268  0.1925
16810TIP3    H171921   4.665   4.063  15.295  0.3895 -0.5022 -0.1797
16810TIP3    H271922   4.789   4.136  15.341 -0.1194 -0.5182  1.2415
16811TIP3   OH271923   4.586   1.782   1.162  0.0579  0.3251 -0.5424
16811TIP3    H171924   4.535   1.819   1.234 -0.3924 -2.0523  0.3935
16811TIP3    H271925   4.669   1.758   1.201  0.2533  0.1040 -1.0933
16812TIP3   OH271926   4.808   2.890  15.431  0.5073  0.2614 -0.3735
16812TIP3    H171927   4.759   2.824  15.479 -0.1154  0.6503 -0.4654
16812TIP3    H271928   4.899   2.861  15.435  0.3867 -0.0017  0.5536
16813TIP3   OH271929   4.500   6.148  13.190  0.0053  0.4354 -0.2370
16813TIP3    H171930   4.483   6.128  13.098 -0.7589 -2.0351  0.4025
16813TIP3    H271931   4.562   6.220  13.188 -0.3488  0.7065 -2.6911
16814TIP3   OH271932   4.410   1.426   6.282  0.3918  0.2832  0.2633
16814TIP3    H171933   4.462   1.506   6.282 -0.2068  0.6894 -1.4159
16814TIP3    H271934   4.469   1.359   6.318  1.3619  1.1799  0.3628
16815TIP3   OH271935   0.309   4.608  16.360 -0.0473 -0.3255 -0.5758
16815TIP3    H171936   0.356   4.599  16.443 -1.2756 -1.1804  0.0518
16815TIP3    H271937   0.259   4.689  16.369  1.4364  0.7076 -1.3311
16816TIP3   OH271938   5.055   4.115   4.851 -0.2031 -0.0459 -0.0653
16816TIP3    H171939   5.107   4.152   4.780 -1.0025  0.1623 -0.5497
16816TIP3    H271940   5.106   4.041   4.883  0.4925  0.2971 -0.3874
16817TIP3   OH271941   3.683   3.383  13.481  0.2970 -0.5031 -0.1998
16817TIP3    H171942   3.686   3.288  13.492  0.8296 -0.1635  3.0873
16817TIP3    H271943   3.773   3.411  13.495 -0.0913  0.6007  0.1359
16818TIP3   OH271944   0.197   5.508  12.135 -0.6248 -0.2282  0.2786
16818TIP3    H171945   0.213   5.438  12.198 -1.5684 -0.3339  0.3989
16818TIP3    H271946   0.179   5.463  12.053  0.7774 -0.0889 -0.1199
16819TIP3   OH271947   4.418   5.264   0.689 -0.1073  0.1957  0.3841
16819TIP3    H171948   4.349   5.309   0.738 -0.7914 -0.1673 -0.2219
16819TIP3    H271949   4.500   5.299   0.724 -0.5493 -0.8031  2.4821
16820TIP3   OH271950   4.566   2.347   3.367  0.4854 -0.0778 -0.1788
16820TIP3    H171951   4.652   2.389   3.372  0.4368 -0.1036  0.9484
16820TIP3    H271952   4.505   2.415   3.397  0.1686 -0.2506 -0.4287
16821TIP3   OH271953   2.023   1.128  16.487  0.2459 -0.3448  0.5543
16821TIP3    H171954   1.945   1.181  16.504  0.2747 -0.2825  0.4899
16821TIP3    H271955   2.057   1.160  16.404  1.9339  1.5403  1.9141
16822TIP3   OH271956   1.778   0.688   2.573  0.5367 -0.1433 -0.1535
16822TIP3    H171957   1.861   0.727   2.598  0.8160 -0.5517 -0.4372
16822TIP3    H271958   1.779   0.689   2.477 -0.7591  1.9205 -0.1819
16823TIP3   OH271959   5.760   2.517   0.890 -0.2655  0.0347 -0.1018
16823TIP3    H171960   5.697   2.521   0.962 -0.6529 -0.9957 -0.3636
16823TIP3    H271961   5.729   2.581   0.827 -0.5106  0.2070  0.1907
16824TIP3   OH271962   0.133   0.357  13.461 -0.5613 -0.9259 -0.6050
16824TIP3    H171963   0.105   0.409  13.386  0.1106 -0.5728 -0.6143
16824TIP3    H271964   0.089   0.397  13.536 -1.6401 -1.5924 -0.8638
16825TIP3   OH271965   0.648   0.064  15.362 -0.0036 -0.6600 -0.2806
16825TIP3    H171966   0.576   0.001  15.355 -1.0665  0.2182  2.0658
16825TIP3    H271967   0.612   0.145  15.326 -0.5783  0.0489  1.8182
16826TIP3   OH271968   3.940   2.686   1.212 -0.5923  0.3018  0.0615
16826TIP3    H171969   3.960   2.609   1.265 -0.6560  1.2962  1.5871
16826TIP3    H271970   4.018   2.741   1.221 -1.6575  1.6477  1.2966
16827TIP3   OH271971   0.223   1.077   5.857  0.2542  0.3565 -0.6430
16827TIP3    H171972   0.225   0.994   5.810 -2.1329  0.9963 -2.0069
16827TIP3    H271973   0.199   1.054   5.947  3.6008 -0.7573  0.0321
16828TIP3   OH271974   5.859   3.539  16.576  1.0178 -0.2251 -0.0255
16828TIP3    H171975   5.831   3.625  16.545  1.7159 -0.8072 -2.4077
16828TIP3    H271976   5.840   3.539  16.669 -0.6593  1.8478 -0.3390
16829TIP3   OH271977   2.001   6.477  13.601 -0.8248 -0.3949 -0.1626
16829TIP3    H171978   2.066   6.484  13.531  0.3892 -3.4496  0.5494
16829TIP3    H271979   1.936   6.416  13.568 -0.6997 -1.1822  1.0037
16830TIP3   OH271980   4.458   6.392  15.718  0.3034  0.5155  0.2208
16830TIP3    H171981   4.427   6.314  15.764  2.6558 -0.6642 -0.1118
16830TIP3    H271982   4.504   6.443  15.784  1.1861  0.2318 -0.1604
16831TIP3   OH271983   6.181   5.042  14.807 -0.1958  0.6947 -0.1903
16831TIP3    H171984   6.143   5.093  14.736 -4.0981 -3.9274 -1.7255
16831TIP3    H271985   6.250   4.990  14.766 -0.1843  0.4752  0.1004
16832TIP3   OH271986   6.077   4.236  15.735  0.1028 -0.2889  0.0849
16832TIP3    H171987   6.107   4.252  15.824  2.3887  0.1951 -0.7307
16832TIP3    H271988   6.054   4.323  15.701  1.2928 -0.1674 -0.4665
16833TIP3   OH271989   1.358   3.024   4.657 -0.4867  0.4499 -0.1609
16833TIP3    H171990   1.357   3.029   4.561  0.0999 -0.6570 -0.2293
16833TIP3    H271991   1.291   2.959   4.678  1.0247 -1.0626  0.0531
16834TIP3   OH271992   2.312   3.257  10.621  0.1606 -0.0800  0.1974
16834TIP3    H171993   2.217   3.260  10.630 -0.1311 -1.0416 -2.1694
16834TIP3    H271994   2.336   3.167  10.645  0.1552 -0.5975 -1.6643
16835TIP3   OH271995   1.011   1.995  16.901 -0.7091 -0.2811 -0.3583
16835TIP3    H171996   1.001   1.909  16.859 -2.0179 -0.5471  0.4906
16835TIP3    H271997   0.937   2.002  16.961 -0.1705  1.1143  0.1679
16836TIP3   OH271998   5.555   2.709  12.381 -0.2079  0.3270 -0.0131
16836TIP3    H171999   5.529   2.630  12.428  1.9042  1.1586  2.6718
16836TIP3    H272000   5.582   2.678  12.294  2.8822 -2.2537  1.7767
16837TIP3   OH272001   3.144   3.434   1.924  0.0405 -0.0028 -0.0231
16837TIP3    H172002   3.182   3.403   2.007  0.7655 -0.7529 -0.6246
16837TIP3    H272003   3.193   3.387   1.857 -1.2704 -0.2156 -0.8490
16838TIP3   OH272004   1.043   3.896   5.552 -0.0745  0.5728 -0.3269
16838TIP3    H172005   1.120   3.951   5.566  0.0583 -0.1562  2.1256
16838TIP3    H272006   0.999   3.894   5.637 -4.1917  2.9595 -2.2584
16839TIP3   OH272007   6.277   0.659  13.010  0.0892  0.2373  0.2789
16839TIP3    H172008   6.350   0.721  13.009 -0.0373  0.3816 -0.0359
16839TIP3    H272009   6.287   0.611  13.093  0.8311 -0.0892  0.0067
16840TIP3   OH272010   3.528   5.507   2.770  0.0798  0.0281 -0.4009
16840TIP3    H172011   3.594   5.439   2.785  0.6272  0.3020 -1.5505
16840TIP3    H272012   3.445   5.459   2.769  0.4917 -0.6872 -1.5307
16841TIP3   OH272013   3.602   1.207  15.131 -0.1919  0.2724 -0.7038
16841TIP3    H172014   3.587   1.179  15.040 -1.3518 -1.2100 -0.0835
16841TIP3    H272015   3.683   1.257  15.128  0.4783 -0.8704 -2.3462
16842TIP3   OH272016   4.631   5.347   0.071  0.0553 -0.2034 -0.5085
16842TIP3    H172017   4.635   5.443   0.076  0.6586 -0.0595 -2.8333
16842TIP3    H272018   4.715   5.323   0.033 -1.1670 -1.4358 -2.4875
16843TIP3   OH272019   1.041   3.974  14.388  0.1986  0.3884  0.3461
16843TIP3    H172020   0.992   3.965  14.470 -3.2159 -0.7122 -1.7115
16843TIP3    H272021   1.014   4.060  14.354  0.2660  0.0951 -0.4448
16844TIP3   OH272022   5.203   1.025   1.338 -0.0719 -0.0609  0.3351
16844TIP3    H172023   5.226   0.945   1.387 -0.4852  0.7400  1.8669
16844TIP3    H272024   5.223   1.096   1.399 -0.7763  0.9491 -0.6115
16845TIP3   OH272025   5.276   5.281  13.027  0.1224  0.3401  0.2552
16845TIP3    H172026   5.287   5.186  13.034 -1.2277  0.1957  0.6493
16845TIP3    H272027   5.231   5.294  12.944  3.2369  0.9237 -1.4200
16846TIP3   OH272028   4.324   0.012  13.984  0.2078  0.3130  0.2678
16846TIP3    H172029   4.347   0.061  13.905  1.0657 -1.9662 -0.9262
16846TIP3    H272030   4.383  -0.063  13.984 -1.3960 -0.9968  1.8035
16847TIP3   OH272031   2.596   4.490  16.987 -0.0099 -0.0185 -0.0571
16847TIP3    H172032   2.684   4.467  16.957 -0.4773  1.9568 -3.2417
16847TIP3    H272033   2.546   4.410  16.977  1.0135 -0.6964  0.1077
16848TIP3   OH272034   3.870   1.929  11.468  0.5369  0.5692 -0.0955
16848TIP3    H172035   3.867   1.869  11.542 -1.7597 -0.4933 -0.9940
16848TIP3    H272036   3.807   1.997  11.490 -0.7098 -0.1484 -1.3659
16849TIP3   OH272037   5.821   1.989  12.548  0.0878 -0.5705  0.1064
16849TIP3    H172038   5.774   1.907  12.566  2.4220 -1.7338  1.1445
16849TIP3    H272039   5.752   2.055  12.541 -1.7832 -2.4584  0.1747
16850TIP3   OH272040   5.998   2.623   6.382 -0.0918 -0.0558 -0.0555
16850TIP3    H172041   6.006   2.627   6.477  1.5801  1.8619 -0.2466
16850TIP3    H272042   6.069   2.679   6.349 -2.1058  1.2741 -2.3639
16851TIP3   OH272043   6.692   5.291  14.982 -0.6296  0.3957  0.4910
16851TIP3    H172044   6.608   5.256  14.953 -1.0610  1.1872  0.7482
16851TIP3    H272045   6.680   5.386  14.981 -0.2529  0.4803  2.0098
16852TIP3   OH272046   2.191   4.484  16.074 -0.3622 -0.0340 -0.2619
16852TIP3    H172047   2.191   4.571  16.114 -0.0218  0.1075 -0.5764
16852TIP3    H272048   2.278   4.474  16.036 -0.5634 -0.3190 -0.6526
16853TIP3   OH272049   3.048   4.832  11.269  0.5918 -0.2822  0.0430
16853TIP3    H172050   2.995   4.753  11.284  1.0408 -0.6850 -0.4964
16853TIP3    H272051   3.069   4.829  11.176  1.4922 -0.0695  0.2409
16854TIP3   OH272052   5.338   0.804  15.642  0.0329 -0.3230  0.0891
16854TIP3    H172053   5.295   0.723  15.614  1.1190 -0.9064  0.1078
16854TIP3    H272054   5.419   0.776  15.684  2.1645  0.8879 -2.9963
16855TIP3   OH272055   2.904   1.161  15.219  0.2604  0.1518  0.9100
16855TIP3    H172056   2.963   1.226  15.256  1.7522 -0.3565 -0.5246
16855TIP3    H272057   2.929   1.155  15.126 -0.0135 -2.2349  0.9472
16856TIP3   OH272058   4.255   5.512   6.152  0.1884  0.2407 -0.5288
16856TIP3    H172059   4.311   5.443   6.187  2.3207  0.9855 -2.2993
16856TIP3    H272060   4.250   5.494   6.059 -0.6328  1.4852 -0.7397
16857TIP3   OH272061   2.434   6.717  16.117 -0.1418  0.6166  0.5893
16857TIP3    H172062   2.344   6.728  16.086  0.6949  1.4460 -1.6373
16857TIP3    H272063   2.450   6.623  16.113 -0.2217  0.6651 -1.0370
16858TIP3   OH272064   1.973   4.598  16.798 -0.4294  0.6107 -0.0202
16858TIP3    H172065   1.936   4.685  16.787  0.1965  1.0189  1.0176
16858TIP3    H272066   2.025   4.604  16.878 -0.4473 -0.7373  0.1091
16859TIP3   OH272067   0.962   2.119   0.415 -0.2724  0.0102 -0.0911
16859TIP3    H172068   0.989   2.078   0.497 -0.4050  0.8296  0.3688
16859TIP3    H272069   0.917   2.199   0.442 -0.0138  0.4627 -0.9717
16860TIP3   OH272070   5.172   2.755  12.273  0.6070  0.1993 -0.4424
16860TIP3    H172071   5.185   2.663  12.252 -0.6221 -0.2022  0.5529
16860TIP3    H272072   5.174   2.799  12.188 -0.2096 -0.9082 -1.0474
16861TIP3   OH272073   5.258   1.537   3.755 -0.0657  0.1924 -0.6912
16861TIP3    H172074   5.347   1.524   3.788 -0.9093 -0.9050  1.2865
16861TIP3    H272075   5.249   1.473   3.685 -0.6073 -2.6288  1.8314
16862TIP3   OH272076   4.472   0.687   6.190  0.0430 -0.1992  0.0642
16862TIP3    H172077   4.469   0.633   6.111  0.0399  0.2237 -0.2237
16862TIP3    H272078   4.527   0.637   6.250  1.8041  0.4710 -0.9500
16863TIP3   OH272079   4.591   3.972   5.295  0.6206 -0.3055  0.4132
16863TIP3    H172080   4.574   3.927   5.377 -0.1072 -0.7420  0.0232
16863TIP3    H272081   4.596   4.065   5.319  2.5943 -0.6062  1.2952
16864TIP3   OH272082   4.412   4.695   3.267  0.6155  0.3918  0.1149
16864TIP3    H172083   4.439   4.605   3.250 -1.7103 -0.4061  0.4339
16864TIP3    H272084   4.421   4.704   3.362  1.1758  0.6179  0.0425
16865TIP3   OH272085   0.434   3.509  15.932  0.0357 -0.2997 -0.0652
16865TIP3    H172086   0.424   3.536  15.841 -0.3328 -0.1864  0.0103
16865TIP3    H272087   0.527   3.484  15.939 -0.0647 -0.8389 -0.6074
16866TIP3   OH272088   4.472   0.110  15.891  0.1414 -0.1138  0.3929
16866TIP3    H172089   4.442   0.044  15.828 -0.8469 -0.7444  1.5187
16866TIP3    H272090   4.500   0.060  15.967  0.3954  0.7069  0.8430
16867TIP3   OH272091   6.520   6.259  17.029  0.3901 -0.8166  0.1846
16867TIP3    H172092   6.590   6.224  16.974 -0.1909 -0.3867 -0.8348
16867TIP3    H272093   6.472   6.318  16.972 -0.3492 -0.5283  1.1001
16868TIP3   OH272094   4.332   1.380   1.606 -0.0887  0.5380 -0.5346
16868TIP3    H172095   4.358   1.373   1.698  0.0575  1.3772 -0.5077
16868TIP3    H272096   4.328   1.289   1.575  1.8761  0.3395 -0.2725
16869TIP3   OH272097   2.358   1.872  15.444  0.0804  0.4757  0.1358
16869TIP3    H172098   2.449   1.854  15.468 -0.0792  0.9499  1.1613
16869TIP3    H272099   2.323   1.787  15.417  0.9869  0.4003 -0.8530
16870TIP3   OH272100   2.424   5.621  17.036  0.6780  0.2527 -0.2738
16870TIP3    H172101   2.466   5.707  17.030 -1.5879  1.5548  1.3930
16870TIP3    H272102   2.453   5.587  17.121  4.2948 -2.1925 -2.4192
16871TIP3   OH272103   2.654   0.939   5.356 -0.3440 -0.3472  0.3955
16871TIP3    H172104   2.573   0.910   5.313  0.8551 -2.2706 -0.6079
16871TIP3    H272105   2.713   0.960   5.284  0.8895 -1.3663  1.0960
16872TIP3   OH272106   5.106   6.632   3.187 -0.1757  0.0079  0.2235
16872TIP3    H172107   5.158   6.599   3.114 -1.3478 -0.6859 -0.3054
16872TIP3    H272108   5.153   6.710   3.217  1.9245 -1.4006  0.6784
16873TIP3   OH272109   6.379   5.674  15.052  0.2157  0.8531 -0.3129
16873TIP3    H172110   6.362   5.705  15.141  0.9973  0.3632  0.0135
16873TIP3    H272111   6.328   5.593  15.045 -0.2030  1.1286 -0.4679
16874TIP3   OH272112   6.108   1.883  15.948  0.3809  0.0527 -0.3739
16874TIP3    H172113   6.051   1.813  15.913 -1.4171  1.3197 -0.0574
16874TIP3    H272114   6.137   1.850  16.033 -1.9555  0.4419  0.6061
16875TIP3   OH272115   0.300   3.219  16.663 -0.3170 -0.1106  0.5610
16875TIP3    H172116   0.316   3.275  16.587  1.0020  1.5529  2.0069
16875TIP3    H272117   0.339   3.135  16.641  0.3621  0.4646 -0.4565
16876TIP3   OH272118   3.122   3.686   0.171 -0.0854  0.3622 -0.5128
16876TIP3    H172119   3.178   3.649   0.240  1.1625  2.1762 -0.5041
16876TIP3    H272120   3.161   3.655   0.089  0.8707  1.4870 -0.5013
16877TIP3   OH272121   1.109   0.267  13.781 -0.4498  0.2774 -0.5507
16877TIP3    H172122   1.114   0.263  13.877 -0.1382  0.0048 -0.5793
16877TIP3    H272123   1.184   0.321  13.755 -0.1808 -0.1615 -0.6831
16878TIP3   OH272124   3.150   0.667   5.557 -0.0036  0.4468  0.8859
16878TIP3    H172125   3.116   0.605   5.492 -1.0117  1.6286  0.2840
16878TIP3    H272126   3.204   0.613   5.615 -0.0764 -0.8265 -0.2177
16879TIP3   OH272127   3.437   3.700   5.343  0.5136 -0.2857  0.1190
16879TIP3    H172128   3.491   3.763   5.296 -1.1306  1.4069  0.4349
16879TIP3    H272129   3.363   3.684   5.284 -0.9785  0.9821  1.5727
16880TIP3   OH272130   3.743   0.873   3.627 -0.1216  0.1568 -0.5242
16880TIP3    H172131   3.815   0.825   3.587  1.2022  0.9199  0.8714
16880TIP3    H272132   3.784   0.922   3.699 -2.2335 -0.3041  1.0382
16881TIP3   OH272133   6.643   2.344   3.159 -0.3589  0.3253 -0.3028
16881TIP3    H172134   6.607   2.367   3.245 -0.9846  1.1685 -0.7789
16881TIP3    H272135   6.566   2.320   3.107 -0.4287  3.2845 -1.6958
16882TIP3   OH272136   0.617   2.469   0.147 -0.1188 -0.7694 -0.2871
16882TIP3    H172137   0.672   2.402   0.108  0.9817 -0.5996  0.9432
16882TIP3    H272138   0.677   2.523   0.198 -1.5448 -1.1099  1.8138
16883TIP3   OH272139   5.412   5.327  12.181 -0.6836 -0.5937 -0.1615
16883TIP3    H172140   5.416   5.261  12.251  4.6006 -1.1021 -0.7105
16883TIP3    H272141   5.428   5.410  12.226 -4.2168  0.0586  0.0711
16884TIP3   OH272142   2.253   3.144   0.032 -0.0168 -0.2790 -0.4369
16884TIP3    H172143   2.323   3.144   0.097 -0.0009  1.0179 -0.4440
16884TIP3    H272144   2.172   3.142   0.083 -0.0055  0.8264 -0.3651
16885TIP3   OH272145   3.374   6.639   3.445 -0.7163  0.7777  0.1248
16885TIP3    H172146   3.296   6.634   3.501  1.5083 -1.0059  3.2979
16885TIP3    H272147   3.396   6.547   3.427  0.5272  1.2626 -0.9152
16886TIP3   OH272148   1.896   1.880   3.083 -0.3909 -0.2689  0.1271
16886TIP3    H172149   1.873   1.795   3.120  0.0978 -0.6414 -0.4268
16886TIP3    H272150   1.914   1.863   2.991 -0.9290  0.5482 -0.1360
16887TIP3   OH272151   2.936   0.399  16.906 -0.2964  0.2875  0.0434
16887TIP3    H172152   3.008   0.347  16.869 -0.1331  0.5096  0.0492
16887TIP3    H272153   2.905   0.348  16.981  1.1421  1.1423  1.2246
16888TIP3   OH272154   1.286   2.073  15.803 -0.3051 -0.0183  0.0636
16888TIP3    H172155   1.370   2.027  15.813 -0.0191  0.3706 -0.4946
16888TIP3    H272156   1.228   2.008  15.764 -0.0015 -0.0143 -0.3986
16889TIP3   OH272157   0.194   3.439   2.941  0.0601  0.0686 -0.0257
16889TIP3    H172158   0.113   3.398   2.972 -0.2263  0.2231 -0.5682
16889TIP3    H272159   0.166   3.506   2.880  0.4900  1.7189  1.5476
16890TIP3   OH272160   6.190   0.101  11.444 -0.3422 -0.3189  0.6721
16890TIP3    H172161   6.220   0.190  11.431  0.2866 -0.4044  1.5074
16890TIP3    H272162   6.266   0.046  11.425 -0.3580 -0.6083  1.4071
16891TIP3   OH272163   1.151   2.608  13.718  0.1254 -0.0398  0.2595
16891TIP3    H172164   1.099   2.685  13.740  0.0882  0.7803 -2.4354
16891TIP3    H272165   1.090   2.535  13.727 -0.4883  0.5148  0.6620
16892TIP3   OH272166   0.293   1.512   3.744 -0.5837 -0.3836  0.3272
16892TIP3    H172167   0.330   1.475   3.824  0.1597  1.2031  0.7184
16892TIP3    H272168   0.242   1.587   3.773  0.3028  0.6480 -0.7481
16893TIP3   OH272169   1.898   6.037  14.120 -0.3366  0.3924 -0.2018
16893TIP3    H172170   1.972   6.065  14.066 -0.7823  0.6658 -0.6745
16893TIP3    H272171   1.833   6.006  14.057 -0.4541 -0.2569  0.2373
16894TIP3   OH272172   6.225   4.722  14.919  0.1512 -0.2991 -0.6626
16894TIP3    H172173   6.137   4.688  14.932  0.4929 -2.4550 -3.6265
16894TIP3    H272174   6.278   4.676  14.984 -0.3034 -1.6888 -1.2503
16895TIP3   OH272175   5.681   0.592  15.849 -0.1217 -0.2536 -0.1390
16895TIP3    H172176   5.761   0.638  15.874  1.2562 -1.4215 -2.2728
16895TIP3    H272177   5.641   0.648  15.782 -1.3852  0.5657  1.2582
16896TIP3   OH272178   6.233   5.684   0.690  0.0969  0.0496  0.2225
16896TIP3    H172179   6.221   5.744   0.764  1.4496  1.0586 -0.3500
16896TIP3    H272180   6.241   5.598   0.729  1.0624  0.6108  1.2798
16897TIP3   OH272181   4.985   0.309  13.282 -0.0037 -0.6866 -0.5818
16897TIP3    H172182   4.999   0.342  13.193  0.9881 -1.5150 -0.7384
16897TIP3    H272183   5.030   0.371  13.339 -1.4464  0.3770 -0.5729
16898TIP3   OH272184   6.511   3.715  15.655  0.1334  0.6691  0.0078
16898TIP3    H172185   6.462   3.727  15.574 -0.9408  0.5901  0.6408
16898TIP3    H272186   6.493   3.794  15.706  1.6923  1.2280 -0.2776
16899TIP3   OH272187   0.160   0.107   1.995  0.8841 -0.3231  0.2858
16899TIP3    H172188   0.154   0.070   2.083  0.3553 -1.0829 -0.0708
16899TIP3    H272189   0.193   0.036   1.941  1.5644  0.2586 -0.0652
16900TIP3   OH272190   0.117   4.986  14.831  0.2673  0.0818  0.5553
16900TIP3    H172191   0.145   5.074  14.854 -0.4797  0.3141  0.5846
16900TIP3    H272192   0.039   4.971  14.885  0.2093 -0.4770  0.3207
16901TIP3   OH272193   2.734   0.136  12.366 -0.0215 -0.1688 -0.2763
16901TIP3    H172194   2.709   0.097  12.450  0.3525 -0.6818 -0.3967
16901TIP3    H272195   2.790   0.070  12.325 -0.2602  0.0448 -0.9609
16902TIP3   OH272196   6.223   3.566   4.472  0.4862 -0.0927  0.2174
16902TIP3    H172197   6.298   3.614   4.507 -0.2969  1.5415 -0.3298
16902TIP3    H272198   6.160   3.633   4.446  0.6598 -1.2691 -3.5161
16903TIP3   OH272199   5.419   1.587  15.904  0.0204  0.0194 -0.8635
16903TIP3    H172200   5.492   1.529  15.925 -0.0228  0.5653  0.9129
16903TIP3    H272201   5.341   1.539  15.932 -0.0780  0.5659 -0.1811
16904TIP3   OH272202   4.444   6.202   0.866 -0.0250  0.2984 -0.4172
16904TIP3    H172203   4.355   6.235   0.856 -0.6198 -1.2060 -0.2036
16904TIP3    H272204   4.493   6.242   0.793 -0.7414  1.4995 -0.2535
16905TIP3   OH272205   0.147   1.661  15.700 -0.1210 -0.5213  0.0012
16905TIP3    H172206   0.211   1.623  15.639  1.4189 -0.1109  1.3227
16905TIP3    H272207   0.137   1.595  15.768 -1.5459 -0.8170 -0.4947
16906TIP3   OH272208   4.197   4.618   3.023  0.3873 -0.8867  0.1227
16906TIP3    H172209   4.283   4.640   2.987 -0.2569 -0.5219 -1.2386
16906TIP3    H272210   4.142   4.694   3.003 -0.3214 -1.2256  0.7479
16907TIP3   OH272211   5.008   3.293  11.396  0.7061  0.0650  0.1637
16907TIP3    H172212   4.940   3.290  11.328  0.0983  2.3481  0.6301
16907TIP3    H272213   5.021   3.201  11.420 -0.8601 -0.5754 -1.2675
16908TIP3   OH272214   0.091   4.819  17.083  0.5158 -0.4878  0.8833
16908TIP3    H172215   0.061   4.790  17.169  1.2464  0.1711  1.3675
16908TIP3    H272216   0.014   4.859  17.043 -0.4417 -2.8692  0.2857
16909TIP3   OH272217   3.949   3.426  12.631 -0.1101  0.5080  0.4669
16909TIP3    H172218   3.981   3.421  12.721  2.8374  0.8568 -0.4870
16909TIP3    H272219   3.902   3.510  12.627  1.2599  1.3329  1.2426
16910TIP3   OH272220   3.682   4.812  14.721  0.5265  0.3107  0.0479
16910TIP3    H172221   3.678   4.756  14.643  0.1813  1.9850 -1.1824
16910TIP3    H272222   3.756   4.779  14.771 -0.4113 -2.0276  0.0046
16911TIP3   OH272223   5.744   0.963   2.559 -0.2280  0.0046  0.5022
16911TIP3    H172224   5.820   0.979   2.615 -1.3267 -0.8584  2.3082
16911TIP3    H272225   5.729   0.869   2.566 -1.8225  0.2553  0.6777
16912TIP3   OH272226   0.771   3.781   5.500  0.5461 -0.0274 -0.2399
16912TIP3    H172227   0.859   3.819   5.493  0.4667  0.3672  0.7190
16912TIP3    H272228   0.763   3.758   5.593 -0.1601 -0.5585 -0.4302
16913TIP3   OH272229   5.529   0.644   5.857  0.4518  0.1972  0.4881
16913TIP3    H172230   5.449   0.593   5.866 -0.0677  0.4518 -2.1754
16913TIP3    H272231   5.499   0.735   5.853  0.7507  0.2208 -1.6360
16914TIP3   OH272232   1.796   5.518   1.782  0.2015  0.1464  0.2978
16914TIP3    H172233   1.778   5.516   1.688  0.8353 -0.0506  0.1787
16914TIP3    H272234   1.721   5.473   1.822  0.2552 -0.3530 -0.1615
16915TIP3   OH272235   0.638   2.422   5.050  0.0574  0.1452  0.0135
16915TIP3    H172236   0.629   2.331   5.077  4.9068 -0.3822  0.2870
16915TIP3    H272237   0.651   2.418   4.955  2.7253  0.2824  0.3429
16916TIP3   OH272238   3.525   3.004   4.624  0.9999 -0.0769 -0.0130
16916TIP3    H172239   3.462   2.934   4.606  0.8816 -0.3631  1.4965
16916TIP3    H272240   3.608   2.959   4.636  0.9543  0.0535  0.8073
16917TIP3   OH272241   6.484   2.962   5.400  1.3390 -0.8380  0.3125
16917TIP3    H172242   6.423   2.960   5.326  0.8051 -1.9579  0.7610
16917TIP3    H272243   6.438   3.010   5.469  1.0033 -1.5854  0.6125
16918TIP3   OH272244   3.222   1.011   1.187 -0.3898  0.3768 -0.0148
16918TIP3    H172245   3.278   1.011   1.264 -1.0377 -0.3079  0.4562
16918TIP3    H272246   3.172   1.093   1.193  0.5279  0.9678 -0.4160
16919TIP3   OH272247   4.473   4.741  13.440  0.0292 -0.6284  0.0270
16919TIP3    H172248   4.441   4.779  13.358  1.9508  0.7442 -0.1172
16919TIP3    H272249   4.396   4.698  13.478 -1.1742 -0.2470 -1.8989
16920TIP3   OH272250   1.849   2.435  13.842  0.3810 -0.3103 -0.0388
16920TIP3    H172251   1.907   2.511  13.834  1.6338 -1.3906 -1.3184
16920TIP3    H272252   1.908   2.362  13.860 -0.8775 -0.8917  1.9533
16921TIP3   OH272253   4.225   4.117   2.096  0.5117 -0.0882 -0.1458
16921TIP3    H172254   4.283   4.044   2.076  0.4650 -0.1263 -0.1407
16921TIP3    H272255   4.137   4.080   2.093  0.3126  0.4480 -2.5034
16922TIP3   OH272256   4.508   1.057  12.361 -0.2890  0.0631  0.4332
16922TIP3    H172257   4.423   1.081  12.398 -0.4601 -1.5720  1.1152
16922TIP3    H272258   4.495   1.062  12.266 -1.3859 -0.9722  0.5180
16923TIP3   OH272259   4.829   6.010   2.614  0.0827 -0.1147 -0.6543
16923TIP3    H172260   4.833   5.951   2.538 -0.1556  0.6725 -1.2835
16923TIP3    H272261   4.750   6.061   2.600  1.4670  1.9506 -1.3123
16924TIP3   OH272262   0.187   6.039   5.654  0.2380  0.5326  0.4559
16924TIP3    H172263   0.211   5.969   5.593 -0.4941  0.6187  0.0619
16924TIP3    H272264   0.092   6.046   5.646  0.2940  1.4640  0.6194
16925TIP3   OH272265   2.078   0.906   3.782 -0.5899 -0.2047  0.1842
16925TIP3    H172266   1.991   0.916   3.744 -1.4310  1.8212  2.4996
16925TIP3    H272267   2.071   0.828   3.837 -1.1352  0.2365  0.7592
16926TIP3   OH272268   6.419   0.385   4.807 -0.3012 -0.4247 -0.1818
16926TIP3    H172269   6.452   0.411   4.721  1.1942  0.2371  0.5765
16926TIP3    H272270   6.485   0.415   4.868 -0.0799 -3.1967  1.0150
16927TIP3   OH272271   3.343   4.542  12.357 -0.2310  0.4245 -0.4024
16927TIP3    H172272   3.262   4.507  12.321  0.0394 -0.9257  0.2905
16927TIP3    H272273   3.361   4.488  12.434  0.5719  1.6247  0.2690
16928TIP3   OH272274   4.331   3.181   0.461  0.4966  0.0943 -0.4253
16928TIP3    H172275   4.344   3.113   0.395  0.3155 -1.2945  0.9394
16928TIP3    H272276   4.418   3.197   0.497  0.2517 -0.8475  0.6173
16929TIP3   OH272277   6.391   0.204  14.352  0.4000 -0.5912  0.4266
16929TIP3    H172278   6.407   0.110  14.365  0.9107 -0.4537  0.8163
16929TIP3    H272279   6.434   0.246  14.427 -1.5301 -0.1830  1.3573
16930TIP3   OH272280   1.168   3.040  17.115 -0.4861  0.4444 -0.4817
16930TIP3    H172281   1.080   3.004  17.115 -0.8146  1.2224  0.4072
16930TIP3    H272282   1.222   2.973  17.073 -1.1579 -0.8771  0.7311
16931TIP3   OH272283   0.893   2.953  15.308 -0.1810 -0.1013  0.2037
16931TIP3    H172284   0.963   2.990  15.361  0.5950 -0.9003 -0.2470
16931TIP3    H272285   0.814   2.964  15.362  0.2082  1.1859  0.5286
16932TIP3   OH272286   6.206   5.423   4.187  0.2218  0.2562 -0.1745
16932TIP3    H172287   6.113   5.404   4.178 -0.0580  0.5741  1.8902
16932TIP3    H272288   6.227   5.402   4.278  2.3082 -0.3533 -0.7437
16933TIP3   OH272289   3.907   4.088  17.134 -0.7338 -0.0010  0.2458
16933TIP3    H172290   3.976   4.140  17.174  0.0641  0.2751 -1.4230
16933TIP3    H272291   3.884   4.137  17.055 -2.6707 -0.2101  0.6527
16934TIP3   OH272292   4.431   2.317   2.065 -0.4022  0.2505  0.1301
16934TIP3    H172293   4.424   2.363   1.981 -3.3948  0.0715  0.2055
16934TIP3    H272294   4.358   2.352   2.117 -0.3050 -1.7093  1.6289
16935TIP3   OH272295   2.922   3.210   4.606 -0.1108  0.6475  0.2950
16935TIP3    H172296   2.940   3.262   4.683 -0.9134  1.5680 -0.1297
16935TIP3    H272297   2.832   3.178   4.619  0.3329 -0.5338  0.5021
16936TIP3   OH272298   2.666   6.601   4.600  0.2374  0.0836 -0.4567
16936TIP3    H172299   2.590   6.621   4.546  0.0062  0.7806  0.1349
16936TIP3    H272300   2.651   6.646   4.683  0.9449 -0.3725 -0.0686
16937TIP3   OH272301   1.857   5.224   6.510  0.1502  0.1098  0.2036
16937TIP3    H172302   1.792   5.175   6.561 -1.7434  2.6822  0.3199
16937TIP3    H272303   1.808   5.260   6.437  1.6801  1.2637 -0.2804
16938TIP3   OH272304   2.326   4.956   2.888 -0.0925 -0.3298  0.0537
16938TIP3    H172305   2.247   5.010   2.882 -0.9339 -1.4695  0.6729
16938TIP3    H272306   2.305   4.878   2.837  0.8299 -0.4118 -0.2072
16939TIP3   OH272307   6.767   2.060   4.389 -0.1954 -0.4139 -0.3888
16939TIP3    H172308   6.838   2.039   4.449 -0.6857  0.1075  0.3795
16939TIP3    H272309   6.730   1.975   4.364 -0.7949 -0.5762  1.0219
16940TIP3   OH272310   1.656   0.518  14.152 -0.3148 -0.7578  0.4832
16940TIP3    H172311   1.592   0.586  14.132 -1.9623 -2.4999 -0.2783
16940TIP3    H272312   1.641   0.497  14.244  1.9144  1.6388  1.4719
16941TIP3   OH272313   0.630   5.290   1.868 -0.1864 -0.5781 -0.0845
16941TIP3    H172314   0.624   5.340   1.950 -0.7563  0.0758 -0.5150
16941TIP3    H272315   0.724   5.279   1.854 -0.0844 -0.8329  0.7339
16942TIP3   OH272316   0.377   3.863  14.817  0.0238 -0.1869 -0.0884
16942TIP3    H172317   0.386   3.863  14.912  0.0060 -0.2376 -0.0869
16942TIP3    H272318   0.377   3.770  14.793  0.9850 -0.1511 -0.2374
16943TIP3   OH272319   6.586   4.739   4.237  0.0645 -0.2258  0.0652
16943TIP3    H172320   6.651   4.754   4.305  0.3136 -0.0095 -0.2178
16943TIP3    H272321   6.511   4.701   4.282  1.2527 -2.6739  0.0744
16944TIP3   OH272322   3.909   5.153   1.852  0.5325 -0.3182  0.1650
16944TIP3    H172323   3.966   5.223   1.820 -1.3200  0.7144 -1.0275
16944TIP3    H272324   3.847   5.198   1.910  0.0139 -1.1640  0.2690
16945TIP3   OH272325   2.040   4.073  12.656 -0.5542 -0.1520  0.3967
16945TIP3    H172326   2.021   3.995  12.709  0.6932 -0.5467  0.2817
16945TIP3    H272327   2.006   4.052  12.569 -0.0095 -0.6582  0.3079
16946TIP3   OH272328   5.271   2.923  17.226 -0.6241  0.6589 -0.0829
16946TIP3    H172329   5.185   2.941  17.187  0.5443  2.2568 -1.9675
16946TIP3    H272330   5.287   2.830  17.208 -1.7055  0.4834 -0.1772
16947TIP3   OH272331   4.482   4.621  14.125 -0.2593  0.3173 -0.0352
16947TIP3    H172332   4.547   4.550  14.127 -0.8714 -0.2466  0.2159
16947TIP3    H272333   4.410   4.585  14.073 -0.9734  0.4042  0.8771
16948TIP3   OH272334   3.599   2.563  12.619  0.1655 -0.0884 -0.4063
16948TIP3    H172335   3.575   2.642  12.570  0.9610  0.0064 -0.6463
16948TIP3    H272336   3.694   2.568  12.628  0.2691 -1.2299 -0.7900
16949TIP3   OH272337   4.135   6.521  14.636 -0.1593 -0.2986 -0.3214
16949TIP3    H172338   4.213   6.562  14.673  1.3163 -3.6828  0.4342
16949TIP3    H272339   4.160   6.498  14.546 -1.4907  1.6993 -1.2583
16950TIP3   OH272340   6.531   0.561   2.259  0.9015  0.1364  0.0029
16950TIP3    H172341   6.459   0.499   2.247  2.1188 -1.3097  0.1549
16950TIP3    H272342   6.490   0.636   2.304 -0.5628 -0.5599 -0.1462
16951TIP3   OH272343   6.143   5.681   6.627  0.5375 -0.4605 -0.3666
16951TIP3    H172344   6.231   5.715   6.610  0.7066 -0.5885  0.2328
16951TIP3    H272345   6.118   5.722   6.709  0.2265 -0.7961 -0.2942
16952TIP3   OH272346   1.120   2.022   2.147  0.7293  0.6179  0.0356
16952TIP3    H172347   1.041   1.983   2.183  1.3628 -0.2987  0.4539
16952TIP3    H272348   1.109   2.116   2.160 -0.0646  0.4572  0.5436
16953TIP3   OH272349   2.178   2.464   3.918  0.4859  0.6105 -1.1112
16953TIP3    H172350   2.182   2.373   3.948 -1.4085  0.7918 -0.2547
16953TIP3    H272351   2.260   2.502   3.949  0.4682 -0.3222  0.1430
16954TIP3   OH272352   0.250   2.342   0.519  1.1124  0.0410 -0.2568
16954TIP3    H172353   0.250   2.258   0.472  2.3233 -0.8402  1.2618
16954TIP3    H272354   0.306   2.399   0.465  1.7961 -0.7008 -0.3458
16955TIP3   OH272355   1.355   6.413  14.259  0.7246  0.0067 -0.0631
16955TIP3    H172356   1.411   6.361  14.317  0.8445  0.8726  0.6167
16955TIP3    H272357   1.268   6.407  14.299  0.5706 -0.3506 -0.4481
16956TIP3   OH272358   3.133   2.545   4.859 -0.5299  0.6749  0.2369
16956TIP3    H172359   3.078   2.475   4.822 -1.6921  1.7718 -0.1628
16956TIP3    H272360   3.188   2.573   4.786 -0.2268  0.3319  0.3351
16957TIP3   OH272361   4.128   0.769  15.688 -0.3073 -0.5290 -0.5184
16957TIP3    H172362   4.178   0.707  15.740 -0.0695 -0.3566 -0.5435
16957TIP3    H272363   4.134   0.736  15.599 -1.1625 -1.1280 -0.3741
16958TIP3   OH272364   4.139   0.133  10.965 -0.5602  0.1723 -0.0014
16958TIP3    H172365   4.224   0.089  10.960 -1.1261 -0.8767 -0.5897
16958TIP3    H272366   4.143   0.200  10.897 -0.8026 -0.9623 -1.1520
16959TIP3   OH272367   3.574   2.828  10.180  0.4765  0.1085 -0.0973
16959TIP3    H172368   3.619   2.776  10.246  0.6902 -1.6051 -1.5727
16959TIP3    H272369   3.500   2.774  10.152 -0.4903  1.4415 -0.2154
16960TIP3   OH272370   1.887   5.883   5.053 -0.4473  0.0259 -0.3201
16960TIP3    H172371   1.910   5.910   4.965 -0.5763  1.4367  0.0674
16960TIP3    H272372   1.935   5.943   5.110  1.1236 -2.0707  0.6008
16961TIP3   OH272373   4.750   4.199  10.729 -0.1656  0.1291  0.0632
16961TIP3    H172374   4.743   4.289  10.696  3.2370  0.6197  0.5722
16961TIP3    H272375   4.804   4.155  10.664  0.5900 -0.7994  1.3250
16962TIP3   OH272376   4.983   4.523  14.412  0.3425 -0.0182 -0.1525
16962TIP3    H172377   4.998   4.453  14.348 -1.8535 -0.3167 -0.3543
16962TIP3    H272378   5.002   4.483  14.497  0.0079 -0.5922 -0.3466
16963TIP3   OH272379   3.855   6.278   2.932 -0.2398 -0.2690  0.3674
16963TIP3    H172380   3.907   6.198   2.935 -0.3009 -0.2781  1.4106
16963TIP3    H272381   3.910   6.345   2.972 -0.4243  0.0772  0.0529
16964TIP3   OH272382   0.877   3.927   1.670  0.7536 -0.2860  0.1867
16964TIP3    H172383   0.922   3.984   1.608  0.3859 -0.3154 -0.1103
16964TIP3    H272384   0.855   3.984   1.743  0.3752 -0.0402 -0.1162
16965TIP3   OH272385   2.418   2.335   5.280 -0.0865 -0.1444 -0.0367
16965TIP3    H172386   2.498   2.325   5.332  0.7483  0.7999 -1.1028
16965TIP3    H272387   2.381   2.247   5.276  1.5359 -0.8301 -0.5106
16966TIP3   OH272388   1.800   4.986   0.589 -0.3745  0.1035 -0.4124
16966TIP3    H172389   1.735   4.960   0.524  0.5459  0.2525 -1.3882
16966TIP3    H272390   1.854   4.908   0.601 -0.4110  0.1418  0.0386
16967TIP3   OH272391   2.422   4.384  14.398 -0.5515  0.4189 -0.3493
16967TIP3    H172392   2.468   4.437  14.333  1.4691 -0.3078  0.4165
16967TIP3    H272393   2.454   4.418  14.482 -0.2995 -1.0490  0.1721
16968TIP3   OH272394   2.339   5.786   1.025  0.1016  0.2392 -0.0834
16968TIP3    H172395   2.392   5.715   0.988  1.1371  0.3229  1.1668
16968TIP3    H272396   2.373   5.865   0.984  0.7395  0.2589  0.4730
16969TIP3   OH272397   5.779   5.202  14.076 -0.1724 -0.3537  0.2099
16969TIP3    H172398   5.796   5.294  14.061 -1.7372 -0.4281 -2.3116
16969TIP3    H272399   5.776   5.193  14.172 -1.3543  2.4625  0.4788
16970TIP3   OH272400   0.958   0.743  14.542  0.0711  0.2644 -0.3775
16970TIP3    H172401   0.986   0.664  14.497  0.9436  0.7146 -0.6493
16970TIP3    H272402   0.969   0.813  14.477  0.0318  0.7155  0.0954
16971TIP3   OH272403   2.970   1.343   4.185 -0.4866 -0.2411 -0.1391
16971TIP3    H172404   2.940   1.336   4.095  0.3802 -1.8400 -0.3308
16971TIP3    H272405   3.018   1.261   4.201  1.9136  1.2862  0.8215
16972TIP3   OH272406   3.726   2.499   1.053  0.0926  0.2421 -0.0455
16972TIP3    H172407   3.747   2.589   1.028 -2.6453  1.3092  1.3427
16972TIP3    H272408   3.684   2.507   1.138 -1.5828 -2.2273 -0.5953
16973TIP3   OH272409   0.412   0.041   2.761 -0.2036  0.0509  0.1723
16973TIP3    H172410   0.493   0.001   2.793  0.2796  0.8408 -0.0268
16973TIP3    H272411   0.384   0.099   2.832 -0.1385  0.4051 -0.0879
16974TIP3   OH272412   0.407   2.877   2.677  0.1238  0.4638 -0.0458
16974TIP3    H172413   0.475   2.915   2.621  2.0612 -2.1947  0.4259
16974TIP3    H272414   0.411   2.928   2.758  1.4930  0.3799 -0.0556
16975TIP3   OH272415   1.938   6.470   0.337 -0.2275  0.7954 -0.4218
16975TIP3    H172416   1.922   6.377   0.325  0.1779  0.5263  0.9876
16975TIP3    H272417   1.928   6.484   0.431  1.7273  1.7656 -0.3211
16976TIP3   OH272418   6.789   5.008  14.595  0.6361 -0.0075 -0.2387
16976TIP3    H172419   6.785   5.103  14.596  0.9508  0.0081 -0.3698
16976TIP3    H272420   6.856   4.986  14.659 -1.4948 -0.2722  1.9473
16977TIP3   OH272421   2.529   5.578  16.185  0.3469  0.1264  0.2302
16977TIP3    H172422   2.449   5.590  16.238  0.1001 -1.8341  0.3589
16977TIP3    H272423   2.531   5.654  16.127 -1.2251  0.5886  0.7351
16978TIP3   OH272424   3.969   3.130  12.614 -0.8237 -0.1818  0.4665
16978TIP3    H172425   3.935   3.219  12.621 -4.2900 -1.3431 -0.3868
16978TIP3    H272426   3.984   3.116  12.521 -0.4274 -0.5521  0.5817
16979TIP3   OH272427   5.229   4.812   0.106 -0.1644 -0.2451  0.0551
16979TIP3    H172428   5.216   4.906   0.092 -0.5235  0.1768  3.0160
16979TIP3    H272429   5.324   4.800   0.107 -0.1198  0.0950 -0.2077
16980TIP3   OH272430   2.495   1.965  13.619 -0.0449  0.1142 -0.0134
16980TIP3    H172431   2.551   1.987  13.545 -2.6808  1.6949 -1.6195
16980TIP3    H272432   2.440   2.043  13.632 -2.5644 -1.7250  0.8117
16981TIP3   OH272433   0.155   0.733   2.847 -0.1207 -0.6014  0.4433
16981TIP3    H172434   0.101   0.657   2.828 -1.3541 -0.3394  2.6656
16981TIP3    H272435   0.099   0.808   2.829  0.1071 -0.2963  0.9704
16982TIP3   OH272436   6.306   3.619  17.079  0.3757  0.3165  0.0710
16982TIP3    H172437   6.267   3.682  17.017 -0.0438 -0.8436 -0.8707
16982TIP3    H272438   6.304   3.536  17.032 -0.0804 -0.6192  1.7023
16983TIP3   OH272439   0.063   5.254   3.017  0.6817  0.3749  0.2386
16983TIP3    H172440   0.141   5.249   2.962  0.0671 -0.2570 -0.5802
16983TIP3    H272441   0.096   5.239   3.106  1.8229  2.4521  0.1816
16984TIP3   OH272442   2.950   6.288   1.797 -0.0086  0.9511  0.0224
16984TIP3    H172443   2.934   6.208   1.747 -0.1840  1.8540 -1.3995
16984TIP3    H272444   2.902   6.276   1.878 -0.8284  0.0168 -0.5910
16985TIP3   OH272445   6.693   4.984  14.229 -0.0280 -0.2683  0.4195
16985TIP3    H172446   6.767   4.929  14.254  1.2615  1.2509  0.0499
16985TIP3    H272447   6.618   4.925  14.227  1.0871 -1.7372  1.2818
16986TIP3   OH272448   0.966   3.596   4.442 -0.2787 -0.0004  0.4071
16986TIP3    H172449   0.903   3.622   4.375  0.2403 -1.5756 -0.7532
16986TIP3    H272450   1.032   3.665   4.441 -2.3684  2.0923  2.2343
16987TIP3   OH272451   5.374   2.307   2.803 -0.6173 -0.0531  0.0260
16987TIP3    H172452   5.441   2.246   2.772 -0.9221 -1.0546  1.2802
16987TIP3    H272453   5.403   2.331   2.891 -1.0554  0.7914 -0.0522
16988TIP3   OH272454   0.326   5.154  16.268  0.1517  0.6081 -0.6058
16988TIP3    H172455   0.325   5.238  16.223  1.9029  0.2386 -1.3708
16988TIP3    H272456   0.349   5.175  16.358 -0.9694  1.0901 -0.4149
16989TIP3   OH272457   2.293   1.037   0.915 -0.0324  0.2561 -0.3861
16989TIP3    H172458   2.203   1.050   0.885 -0.7399 -1.0320  1.1210
16989TIP3    H272459   2.328   1.126   0.921 -1.2771  0.7928 -0.7369
16990TIP3   OH272460   4.897   1.224   5.844 -0.1599 -0.1913  0.1520
16990TIP3    H172461   4.875   1.255   5.756 -0.6686 -1.4496 -0.1904
16990TIP3    H272462   4.820   1.247   5.897 -0.1116  0.0358  0.1197
16991TIP3   OH272463   5.294   1.766  15.527 -0.0120  0.5391 -0.0166
16991TIP3    H172464   5.275   1.851  15.489 -1.0575 -0.3758 -1.5604
16991TIP3    H272465   5.345   1.720  15.460 -1.9801 -1.1261 -0.4259
16992TIP3   OH272466   3.961   2.183  15.448  0.4715  0.1750  0.1969
16992TIP3    H172467   3.899   2.110  15.440  1.1787 -0.4065  0.0027
16992TIP3    H272468   3.938   2.241  15.375  0.5893 -0.3749 -0.2866
16993TIP3   OH272469   5.924   1.426   5.094  0.3356  0.2758  0.3751
16993TIP3    H172470   5.901   1.339   5.061 -1.0566  1.0617 -0.7937
16993TIP3    H272471   5.860   1.442   5.163  1.7163 -0.3507  1.8347
16994TIP3   OH272472   4.808   4.086   1.024 -0.4977  0.2680  0.1273
16994TIP3    H172473   4.767   4.133   0.951 -0.8130  1.2228  0.9007
16994TIP3    H272474   4.748   4.014   1.042  0.0311 -0.5101 -1.1287
16995TIP3   OH272475   3.466   1.590   2.401 -0.0711 -0.0875  0.3064
16995TIP3    H172476   3.428   1.504   2.419 -0.1284 -0.3512 -1.0613
16995TIP3    H272477   3.524   1.577   2.327  0.7811  0.8380  0.7916
16996TIP3   OH272478   0.523   4.830   0.640  0.1748 -0.7008  0.5977
16996TIP3    H172479   0.439   4.810   0.681 -0.2378 -0.7907 -0.2920
16996TIP3    H272480   0.516   4.922   0.614  0.5730 -0.5388  1.0569
16997TIP3   OH272481   1.419   0.789  15.779 -0.3958 -0.2401  0.5434
16997TIP3    H172482   1.437   0.883  15.770  0.6848 -0.6795 -2.6224
16997TIP3    H272483   1.444   0.768  15.869  0.8874  2.1809  0.8023
16998TIP3   OH272484   3.221   1.335   5.692 -0.0951  0.1090 -0.3617
16998TIP3    H172485   3.315   1.331   5.671 -0.3373  0.1107 -1.4773
16998TIP3    H272486   3.218   1.327   5.787  1.2925  3.8704  0.1059
16999TIP3   OH272487   1.951   0.271   5.142 -0.1650 -0.7929 -0.7032
16999TIP3    H172488   2.023   0.296   5.085  0.0777  0.9202  0.3019
16999TIP3    H272489   1.896   0.349   5.147 -0.9017 -1.3621  0.3041
17000TIP3   OH272490   0.248   4.106  16.999  0.4524  0.2240  0.3514
17000TIP3    H172491   0.212   4.186  17.036 -0.4810 -0.9587  2.1001
17000TIP3    H272492   0.176   4.068  16.949  0.4754 -0.2017  0.6445
17001TIP3   OH272493   1.843   2.592   0.220 -0.0303  0.1124  0.1510
17001TIP3    H172494   1.932   2.599   0.255  0.8853 -1.5186 -1.7891
17001TIP3    H272495   1.790   2.561   0.294  1.2914 -0.3573  0.9001
17002TIP3   OH272496   4.898   5.126  15.839 -0.0129 -0.3581 -0.0661
17002TIP3    H172497   4.896   5.160  15.928 -0.5731 -0.4519 -0.0415
17002TIP3    H272498   4.811   5.091  15.824  0.3913 -1.2732 -0.2968
17003TIP3   OH272499   6.636   3.494  15.133  0.0074 -0.9148  0.0525
17003TIP3    H172500   6.727   3.511  15.107 -0.6354  1.2977 -0.7535
17003TIP3    H272501   6.637   3.503  15.229 -0.0747  2.5919 -0.2427
17004TIP3   OH272502   4.172   4.479  12.799  0.1184 -0.4904 -0.2756
17004TIP3    H172503   4.186   4.433  12.882  0.6872  0.1252 -0.0265
17004TIP3    H272504   4.227   4.556  12.805 -2.7358  1.5928  0.3798
17005TIP3   OH272505   2.188   2.334   1.343  0.1775  0.8782  0.1470
17005TIP3    H172506   2.110   2.305   1.389 -0.0328 -1.1450 -1.4241
17005TIP3    H272507   2.260   2.287   1.385  0.0942 -0.2305 -0.9290
17006TIP3   OH272508   5.038   1.073   2.510  0.2639  0.1030 -0.1216
17006TIP3    H172509   5.035   1.055   2.604 -2.5043 -2.2195 -0.5789
17006TIP3    H272510   4.951   1.109   2.490 -0.4251 -2.6897 -2.3494
17007TIP3   OH272511   4.343   4.176   1.082 -0.7069 -0.4310  0.1154
17007TIP3    H172512   4.292   4.215   1.153 -0.6767  1.0921 -0.6644
17007TIP3    H272513   4.346   4.083   1.102  0.5040  0.1565  2.8561
17008TIP3   OH272514   1.160   4.824   0.698 -0.1703  0.1801  0.0630
17008TIP3    H172515   1.107   4.830   0.619  0.4129 -0.5069 -0.3923
17008TIP3    H272516   1.102   4.850   0.769 -0.4663  1.5796 -0.6810
17009TIP3   OH272517   5.652   1.334   5.498  0.2984  0.4997 -0.0393
17009TIP3    H172518   5.640   1.391   5.574  0.6996  1.1451 -0.4459
17009TIP3    H272519   5.583   1.361   5.437 -0.1936 -0.2019  0.1986
17010TIP3   OH272520   4.239   5.480   3.856 -0.6894  0.2408 -0.0384
17010TIP3    H172521   4.218   5.450   3.944 -0.5308 -0.3079 -0.1837
17010TIP3    H272522   4.334   5.468   3.849 -0.3825  2.2761  0.4634
17011TIP3   OH272523   2.309   1.377  13.125  0.0781  0.5148 -0.4433
17011TIP3    H172524   2.371   1.408  13.060  0.0885 -0.0405 -0.7074
17011TIP3    H272525   2.269   1.456  13.161  2.7402  1.0053  1.5150
17012TIP3   OH272526   4.867   5.012  16.392 -0.0359 -0.2093  0.3347
17012TIP3    H172527   4.902   5.013  16.303 -1.4933  2.1469 -0.2368
17012TIP3    H272528   4.805   4.939  16.393 -0.4990  0.1685 -0.7743
17013TIP3   OH272529   4.363   2.498   0.947  0.5157  0.1720 -0.5019
17013TIP3    H172530   4.314   2.422   0.915 -0.1440 -0.3238  1.6297
17013TIP3    H272531   4.436   2.460   0.997  0.7966  0.9282 -0.3260
17014TIP3   OH272532   2.583   1.098   1.564 -0.4612  0.7639 -0.3757
17014TIP3    H172533   2.512   1.120   1.625 -0.9485  0.0327 -0.6645
17014TIP3    H272534   2.654   1.157   1.587 -0.7996  0.7944  0.6195
17015TIP3   OH272535   1.485   0.513  15.242 -0.2008  0.5566 -0.1978
17015TIP3    H172536   1.480   0.546  15.332  1.8318  0.2441  0.0465
17015TIP3    H272537   1.464   0.420  15.249 -1.8669  0.9112 -0.3171
17016TIP3   OH272538   1.566   0.975  13.956  0.2706  0.1712  0.1181
17016TIP3    H172539   1.505   0.925  14.011 -0.4854 -0.8928 -1.6353
17016TIP3    H272540   1.548   0.945  13.867  1.9116  1.3975 -0.6569
17017TIP3   OH272541   5.863   3.692   5.045 -0.2681 -0.4024 -0.3731
17017TIP3    H172542   5.932   3.748   5.009  0.3222 -0.4383  0.6730
17017TIP3    H272543   5.909   3.629   5.101 -1.0452 -1.1318 -0.5394
17018TIP3   OH272544   4.285   2.402  11.493 -0.1241  0.5643 -0.0206
17018TIP3    H172545   4.190   2.415  11.493 -0.1474  0.6935 -2.4646
17018TIP3    H272546   4.321   2.488  11.514 -0.5306  0.6604  0.2906
17019TIP3   OH272547   6.334   3.715  12.606 -0.4267 -0.9191 -0.1897
17019TIP3    H172548   6.329   3.810  12.593 -2.3170 -0.5687  2.6814
17019TIP3    H272549   6.246   3.683  12.584 -0.1934 -1.8270  0.1829
17020TIP3   OH272550   4.258   4.024  13.831 -0.3605 -0.1874 -0.0064
17020TIP3    H172551   4.336   3.995  13.878  1.4723  0.9249 -2.2611
17020TIP3    H272552   4.234   3.950  13.777 -0.0091 -0.0510 -0.3550
17021TIP3   OH272553   5.029   2.525  16.935  0.3192 -0.0093 -0.6355
17021TIP3    H172554   4.949   2.494  16.978 -0.2833  0.3340 -1.5030
17021TIP3    H272555   5.029   2.619  16.949  0.8713 -0.0771 -0.1507
17022TIP3   OH272556   3.856   5.066  14.718  0.3552  0.1667  0.1967
17022TIP3    H172557   3.794   5.000  14.746 -1.0181  0.0318 -2.9303
17022TIP3    H272558   3.805   5.147  14.714  0.6268  0.2736 -1.3521
17023TIP3   OH272559   2.481   0.740   3.826 -0.6207 -0.6382  0.1574
17023TIP3    H172560   2.448   0.656   3.793 -1.8463  0.0173 -0.3024
17023TIP3    H272561   2.429   0.806   3.781 -0.9542  0.3295  1.9088
17024TIP3   OH272562   6.584   1.554   5.460  0.0081  0.3108 -0.3374
17024TIP3    H172563   6.564   1.642   5.429 -0.2647  0.0055 -1.0366
17024TIP3    H272564   6.679   1.552   5.464 -0.0215  1.1974  1.3405
17025TIP3   OH272565   5.984   5.159   4.659  0.2396  0.7214 -0.5047
17025TIP3    H172566   6.054   5.164   4.594  0.7080  0.6370 -0.0077
17025TIP3    H272567   5.910   5.205   4.619  0.2484 -0.0696 -1.4590
17026TIP3   OH272568   3.018   0.583   5.224 -0.4405  0.1927  0.5156
17026TIP3    H172569   2.923   0.597   5.220 -0.7929 -2.2290 -0.5148
17026TIP3    H272570   3.029   0.511   5.286  0.8143  1.0881  1.3382
17027TIP3   OH272571   6.220   6.783   6.038  0.0564 -0.4139  0.5932
17027TIP3    H172572   6.303   6.809   5.997 -0.7745  0.8384 -0.3353
17027TIP3    H272573   6.192   6.706   5.987 -1.0508  1.2295 -1.3915
17028TIP3   OH272574   1.329   2.864   5.793  0.4367 -0.3358  0.0694
17028TIP3    H172575   1.291   2.782   5.763  0.7598  0.1332 -1.6810
17028TIP3    H272576   1.258   2.908   5.839 -0.8979  0.0851 -2.2914
17029TIP3   OH272577   6.501   2.857  11.237  0.8510 -0.2760  0.1909
17029TIP3    H172578   6.574   2.810  11.197  1.8676  0.3232  1.3162
17029TIP3    H272579   6.501   2.943  11.194  0.7666 -0.2945  0.1536
17030TIP3   OH272580   6.300   3.205  14.603  0.1450  0.1738 -0.3204
17030TIP3    H172581   6.381   3.217  14.653  0.6179 -2.6005 -0.3622
17030TIP3    H272582   6.327   3.212  14.512  0.0812  0.6870 -0.3000
17031TIP3   OH272583   5.602   4.613   1.826 -0.2796  0.0558  0.0599
17031TIP3    H172584   5.552   4.536   1.797  0.0791 -0.1141 -0.1228
17031TIP3    H272585   5.576   4.682   1.766 -0.2640 -0.0424 -0.0612
17032TIP3   OH272586   3.901   3.255   1.887 -0.1413 -0.0031 -0.0643
17032TIP3    H172587   3.943   3.252   1.973  0.8866  1.8392 -0.4612
17032TIP3    H272588   3.861   3.169   1.876  1.4551 -0.9555  1.3981
17033TIP3   OH272589   6.548   4.153   3.357  0.4767 -0.4603  0.6682
17033TIP3    H172590   6.633   4.111   3.369  0.9550 -0.1878 -1.6614
17033TIP3    H272591   6.558   4.240   3.396  0.1378 -1.6914  3.5993
17034TIP3   OH272592   5.152   6.306   2.040  0.1450 -0.0731 -0.4243
17034TIP3    H172593   5.215   6.335   1.975  1.6894  0.4047  1.2258
17034TIP3    H272594   5.160   6.211   2.042 -0.6017 -0.1617 -1.6021
17035TIP3   OH272595   0.089   6.071   2.247 -0.1686 -0.1499 -0.0620
17035TIP3    H172596   0.167   6.037   2.202  0.4525  1.9635 -0.5995
17035TIP3    H272597   0.123   6.120   2.321 -1.0422 -0.2313  0.3964
17036TIP3   OH272598   5.009   3.322   0.768  0.2239  0.5443 -0.9413
17036TIP3    H172599   5.079   3.257   0.756  0.0103  0.2521 -0.6059
17036TIP3    H272600   5.030   3.391   0.705  0.2966  0.0200 -1.4948
17037TIP3   OH272601   1.003   3.728  16.099 -0.7439 -0.0721  0.0767
17037TIP3    H172602   0.931   3.684  16.054 -0.6324  0.8341 -1.0144
17037TIP3    H272603   0.964   3.808  16.136 -0.2913  0.4532 -0.5692
17038TIP3   OH272604   6.520   0.737   3.081  0.1859  0.2414  0.0093
17038TIP3    H172605   6.530   0.833   3.079  2.4363  0.0624  0.6964
17038TIP3    H272606   6.497   0.714   2.991 -0.0317  1.4008 -0.2460
17039TIP3   OH272607   5.290   3.629  15.997 -0.1981  0.3787 -0.8314
17039TIP3    H172608   5.233   3.644  16.073 -0.1647 -2.2497 -0.2638
17039TIP3    H272609   5.231   3.640  15.921 -0.8697  0.1654 -0.3410
17040TIP3   OH272610   5.036   3.306   4.494  0.4243  0.0054  0.0189
17040TIP3    H172611   4.950   3.279   4.461  0.9853 -0.1130 -1.3916
17040TIP3    H272612   5.017   3.378   4.554 -0.6418  0.1619 -0.4836
17041TIP3   OH272613   4.777   4.340  14.730 -0.2130  0.3443  0.2203
17041TIP3    H172614   4.749   4.281  14.661  0.2849 -1.0539  1.2072
17041TIP3    H272615   4.699   4.393  14.749 -0.7307 -0.1529 -0.4971
17042TIP3   OH272616   4.508   6.607   0.393 -0.6072  0.3630 -0.4381
17042TIP3    H172617   4.429   6.587   0.442 -1.0568  0.5636 -1.0812
17042TIP3    H272618   4.545   6.684   0.436 -0.8926  0.4158 -0.2933
17043TIP3   OH272619   3.852   2.226   2.601  0.3000 -0.0514  0.0304
17043TIP3    H172620   3.784   2.292   2.612  0.4780  0.1578 -0.1178
17043TIP3    H272621   3.813   2.145   2.633  0.4569  0.3405  1.2528
17044TIP3   OH272622   4.005   6.663   1.511 -0.0841 -0.0772  0.3835
17044TIP3    H172623   4.028   6.574   1.485 -2.0190 -0.3592 -0.4346
17044TIP3    H272624   3.960   6.700   1.435  1.5410  1.9428  0.3661
17045TIP3   OH272625   1.511   6.700  11.372  0.5687  0.2609  0.1585
17045TIP3    H172626   1.474   6.613  11.358  1.3242 -0.1603  0.7597
17045TIP3    H272627   1.499   6.745  11.289  0.0575 -0.3717 -0.1111
17046TIP3   OH272628   2.878   3.045   1.839  0.6063  0.2433 -0.4514
17046TIP3    H172629   2.917   2.970   1.885  0.1950  0.2945 -0.0235
17046TIP3    H272630   2.787   3.021   1.827  0.3751  0.8621  0.0660
17047TIP3   OH272631   5.025   6.292  11.909  0.2852  0.1184  0.3848
17047TIP3    H172632   4.952   6.321  11.855  0.4872  0.9157  0.5308
17047TIP3    H272633   5.081   6.242  11.849 -0.0543  0.0511  0.1227
17048TIP3   OH272634   0.422   5.589   1.825 -0.7536 -0.0647 -0.4409
17048TIP3    H172635   0.438   5.523   1.758  0.0311  1.0691 -1.4086
17048TIP3    H272636   0.332   5.617   1.811 -1.5807 -1.9633  0.9271
17049TIP3   OH272637   0.609   4.119  14.362  0.2281 -0.8393 -0.4173
17049TIP3    H172638   0.675   4.179  14.328  0.0449 -0.6471 -0.4347
17049TIP3    H272639   0.605   4.136  14.456 -0.5045 -0.1483 -0.5632
17050TIP3   OH272640   4.673   0.203  14.926 -0.0882 -0.1187 -0.3603
17050TIP3    H172641   4.764   0.182  14.946 -0.9432 -1.2226  2.5185
17050TIP3    H272642   4.660   0.291  14.961 -0.3825 -0.3259  0.0536
17051TIP3   OH272643   3.760   4.520   2.518 -0.4295 -0.0806  0.0545
17051TIP3    H172644   3.680   4.488   2.561  0.7235 -1.4736  1.2170
17051TIP3    H272645   3.831   4.479   2.567  1.0327  2.0536 -0.2575
17052TIP3   OH272646   1.366   0.296   4.652  0.1889  0.0742 -0.5922
17052TIP3    H172647   1.292   0.260   4.701  0.2671 -0.9164 -1.1768
17052TIP3    H272648   1.412   0.351   4.715  0.7885 -1.8708  0.7109
17053TIP3   OH272649   6.193   1.346  12.502 -0.2279 -0.2973  0.4834
17053TIP3    H172650   6.256   1.305  12.443 -1.0414  0.0054 -0.5933
17053TIP3    H272651   6.139   1.274  12.534 -0.4544 -0.3164  0.0526
17054TIP3   OH272652   2.520   2.505  14.009 -0.0191  0.2648  0.4628
17054TIP3    H172653   2.592   2.512  13.946 -1.1385  0.2162 -0.8477
17054TIP3    H272654   2.558   2.461  14.085  0.8783 -1.3658 -0.9102
17055TIP3   OH272655   1.121   5.492  10.919  0.4541  0.6788  0.3780
17055TIP3    H172656   1.193   5.430  10.909  1.5734  2.0969 -0.7762
17055TIP3    H272657   1.044   5.446  10.884  1.5321  0.4103 -1.7433
17056TIP3   OH272658   0.870   0.876   5.568 -0.6395 -0.0519 -0.1264
17056TIP3    H172659   0.944   0.936   5.566  0.5152 -1.4944 -2.1361
17056TIP3    H272660   0.807   0.917   5.628  1.5835  1.4042  1.2745
17057TIP3   OH272661   4.680   4.491   0.333 -0.3215  0.0537  0.0988
17057TIP3    H172662   4.740   4.453   0.269 -2.1810 -1.0750 -1.0183
17057TIP3    H272663   4.649   4.417   0.384  0.9262  0.9102  2.1782
17058TIP3   OH272664   0.633   5.225   5.082  0.3172  0.0817  0.6239
17058TIP3    H172665   0.632   5.171   5.161  0.3723  0.4559  0.8830
17058TIP3    H272666   0.637   5.315   5.114 -0.5516  0.2718  0.2004
17059TIP3   OH272667   5.933   6.815   2.055  0.3381 -0.8408 -0.8134
17059TIP3    H172668   5.971   6.745   2.108  0.9633 -1.3644 -1.9438
17059TIP3    H272669   5.925   6.889   2.115 -3.5332 -2.8571  1.3951
17060TIP3   OH272670   0.172   4.649   3.440  0.1330 -0.6145 -0.4661
17060TIP3    H172671   0.238   4.707   3.479  0.2594 -1.9616  1.4027
17060TIP3    H272672   0.097   4.706   3.422  0.0372  0.0498  1.8796
17061TIP3   OH272673   6.122   3.183  12.403  0.0038 -0.1033 -0.3524
17061TIP3    H172674   6.166   3.115  12.352 -0.4360 -1.3631  0.9005
17061TIP3    H272675   6.190   3.248  12.420  0.4928 -0.3356 -1.3710
17062TIP3   OH272676   0.387   5.528   4.804 -0.0704  1.0303  0.4007
17062TIP3    H172677   0.430   5.450   4.770 -0.1600  0.7968  0.8115
17062TIP3    H272678   0.428   5.601   4.757 -0.2285  0.7160 -0.2320
17063TIP3   OH272679   5.273   0.498  12.681 -0.2933  0.3719 -0.0456
17063TIP3    H172680   5.366   0.476  12.674  0.2664  2.1474  1.2609
17063TIP3    H272681   5.228   0.428  12.633  1.7633  0.0206 -1.5617
17064TIP3   OH272682   5.272   5.693  12.406  0.1535 -0.0206 -0.1757
17064TIP3    H172683   5.224   5.618  12.442  0.6737 -0.0386  0.4931
17064TIP3    H272684   5.352   5.654  12.370  1.3746  0.4333  1.9539
17065TIP3   OH272685   6.773   5.068   0.283  0.1016  0.6582 -0.0569
17065TIP3    H172686   6.804   5.158   0.294  1.0721  0.3470 -0.1901
17065TIP3    H272687   6.847   5.014   0.311 -0.9409 -0.0943  1.3046
17066TIP3   OH272688   1.529   0.502  15.605 -0.3054 -0.0420  0.4227
17066TIP3    H172689   1.509   0.429  15.546  1.8389 -2.0902  2.1469
17066TIP3    H272690   1.459   0.499  15.670 -0.8704  0.2177 -0.1578
17067TIP3   OH272691   0.556   1.429  13.365 -0.2895 -0.0533 -0.3488
17067TIP3    H172692   0.646   1.460  13.358  0.2716 -1.6071 -0.1846
17067TIP3    H272693   0.503   1.501  13.331  1.1119  0.2653 -1.8763
17068TIP3   OH272694   0.606   6.713   6.051 -0.1133  0.2123 -0.2265
17068TIP3    H172695   0.594   6.632   6.101 -0.4095  0.5919  0.3204
17068TIP3    H272696   0.517   6.744   6.034  0.0136  1.3520  1.0869
17069TIP3   OH272697   5.721   2.306  12.420  0.3588  0.1936 -0.4692
17069TIP3    H172698   5.690   2.236  12.477  3.1347 -0.6239  0.1370
17069TIP3    H272699   5.647   2.366  12.412 -0.7308 -0.7179  2.3248
17070TIP3   OH272700   6.202   2.157  13.451  0.2283 -0.2191  0.4645
17070TIP3    H172701   6.230   2.123  13.536 -0.5449  3.6163  2.3745
17070TIP3    H272702   6.280   2.202  13.417  0.6116 -1.9597 -1.0212
17071TIP3   OH272703   0.761   4.536   5.439 -0.3259 -0.1055 -0.5183
17071TIP3    H172704   0.737   4.469   5.503  0.8259  1.8659  2.0621
17071TIP3    H272705   0.733   4.618   5.480  0.9060  1.2287 -2.3419
17072TIP3   OH272706   4.997   3.701   0.352 -0.0546  0.3098 -0.5127
17072TIP3    H172707   5.082   3.657   0.357  0.8142  1.9807 -0.1763
17072TIP3    H272708   4.989   3.728   0.260 -1.2024 -1.7081 -1.0276
17073TIP3   OH272709   2.172   3.521  14.296 -0.1124  0.4646 -0.3607
17073TIP3    H172710   2.142   3.585  14.360 -0.0237  1.2740 -1.1105
17073TIP3    H272711   2.227   3.572  14.236  4.0457 -1.2386  1.8059
17074TIP3   OH272712   0.487   0.064   1.569  0.1431  0.1094  0.5032
17074TIP3    H172713   0.509   0.052   1.662 -0.8425  1.4320  0.9141
17074TIP3    H272714   0.420   0.132   1.569 -1.2546 -1.2422 -1.0486
17075TIP3   OH272715   3.062   5.282  15.839 -0.0714 -0.2995  0.0540
17075TIP3    H172716   3.090   5.220  15.906  0.2300 -0.7544 -0.4853
17075TIP3    H272717   3.032   5.226  15.767  1.3944  0.1598 -0.9360
17076TIP3   OH272718   2.134   1.846   4.078  0.4212  0.5479  0.6980
17076TIP3    H172719   2.105   1.936   4.094 -0.1933 -0.0216  2.9227
17076TIP3    H272720   2.056   1.792   4.092  0.2282 -0.1976 -2.7823
17077TIP3   OH272721   6.075   4.805  15.522  0.5072  0.3967 -0.3176
17077TIP3    H172722   6.047   4.896  15.532  4.1466  1.5693  0.1352
17077TIP3    H272723   6.090   4.794  15.428  2.5485  1.1178 -0.1032
17078TIP3   OH272724   3.517   0.354   3.779 -0.2783  0.0096 -0.2025
17078TIP3    H172725   3.447   0.289   3.769 -1.3932  1.2333 -0.4846
17078TIP3    H272726   3.570   0.345   3.700  0.0324 -1.0767  0.1130
17079TIP3   OH272727   1.508   5.168  14.894 -0.1321  0.1303 -0.2278
17079TIP3    H172728   1.537   5.119  14.817 -0.9279  0.6032 -0.8247
17079TIP3    H272729   1.563   5.134  14.965  0.0966 -0.8315 -0.8522
17080TIP3   OH272730   0.504   3.103   5.485 -0.3037 -0.2287 -0.1279
17080TIP3    H172731   0.528   3.134   5.572 -0.8883 -0.3985  0.0969
17080TIP3    H272732   0.587   3.100   5.437 -0.3837  2.9222 -0.5792
17081TIP3   OH272733   2.520   5.051   4.003 -0.3137 -0.2544  0.2958
17081TIP3    H172734   2.462   4.984   3.965 -0.7264 -0.7888  1.8283
17081TIP3    H272735   2.607   5.011   4.001 -0.3460 -0.3088 -0.0278
17082TIP3   OH272736   1.729   2.907   1.026 -0.3833  0.7536 -0.4102
17082TIP3    H172737   1.795   2.931   1.090 -0.0327  1.4629 -1.0272
17082TIP3    H272738   1.648   2.945   1.058 -0.3102  0.6701 -0.1286
17083TIP3   OH272739   0.254   1.956   5.682  0.0268 -0.2311  0.0426
17083TIP3    H172740   0.181   1.905   5.646  1.6626 -0.9074 -2.4243
17083TIP3    H272741   0.250   2.040   5.635  0.5972 -0.1122  0.2040
17084TIP3   OH272742   4.546   0.954   1.436 -0.6386  0.3664 -0.7198
17084TIP3    H172743   4.531   1.047   1.454 -2.2089  0.0347 -0.2606
17084TIP3    H272744   4.473   0.909   1.478 -0.0756 -1.0556 -1.2301
17085TIP3   OH272745   0.736   4.292   0.693  0.0168 -0.2505 -0.0278
17085TIP3    H172746   0.769   4.222   0.750  1.0095  1.1911  1.2255
17085TIP3    H272747   0.757   4.263   0.604  1.0765 -1.2158  0.5226
17086TIP3   OH272748   2.261   3.338  11.905  0.0329  0.1116  0.0303
17086TIP3    H172749   2.198   3.374  11.968  0.2736 -0.8328  0.8195
17086TIP3    H272750   2.246   3.243  11.907  2.1314 -0.2286  0.9543
17087TIP3   OH272751   1.195   4.100  17.218  0.0549 -0.3182  0.3215
17087TIP3    H172752   1.218   4.076  17.308 -0.0972 -0.9001  0.2056
17087TIP3    H272753   1.214   4.194  17.213 -0.5613 -0.1423  1.1564
17088TIP3   OH272754   2.270   1.500  14.817  0.4438  0.1194 -0.3092
17088TIP3    H172755   2.291   1.542  14.900 -0.5014 -2.3934  1.2866
17088TIP3    H272756   2.212   1.561  14.772  0.5424  1.2868  1.1324
17089TIP3   OH272757   4.447   3.355   1.112  0.4282  0.1759 -0.0677
17089TIP3    H172758   4.459   3.300   1.190 -2.6588  0.9273  0.9856
17089TIP3    H272759   4.404   3.297   1.049  1.7662 -0.0574 -0.7791
17090TIP3   OH272760   5.534   0.711  10.869 -0.1253  0.2834  0.1557
17090TIP3    H172761   5.482   0.648  10.820  2.4783 -2.3810  0.6241
17090TIP3    H272762   5.515   0.796  10.829 -3.5520 -0.8165 -0.6434
17091TIP3   OH272763   6.390   6.167   0.002  0.4821  0.4504  0.4783
17091TIP3    H172764   6.451   6.105   0.042  0.2051 -0.7317 -0.8989
17091TIP3    H272765   6.434   6.196  -0.078 -0.5171  0.0244 -0.2290
17092TIP3   OH272766   2.265   6.560  15.701 -0.0022  0.0193 -0.0318
17092TIP3    H172767   2.227   6.599  15.780  0.6220 -2.6306  1.6274
17092TIP3    H272768   2.251   6.626  15.633 -0.5975  2.3375  2.2600
17093TIP3   OH272769   2.376   2.231   1.618 -0.0463 -0.0449  0.0236
17093TIP3    H172770   2.320   2.258   1.690  0.9600 -0.6066  1.0196
17093TIP3    H272771   2.395   2.139   1.634  0.4267 -0.1002 -0.8022
17094TIP3   OH272772   1.274   0.018   0.494  0.4420  0.2628 -0.3054
17094TIP3    H172773   1.267   0.109   0.466  0.6133  0.8535  1.4885
17094TIP3    H272774   1.190  -0.021   0.469 -0.3731  1.4098  0.6031
17095TIP3   OH272775   1.361   3.755  11.047 -0.4925 -0.3689 -0.0333
17095TIP3    H172776   1.357   3.731  10.955 -2.3346 -2.7702  0.6158
17095TIP3    H272777   1.308   3.835  11.053  0.3539  0.2896 -1.1705
17096TIP3   OH272778   0.740   0.543  15.608 -0.1220 -0.9030  0.0103
17096TIP3    H172779   0.720   0.521  15.699 -0.1852  2.2717  0.8137
17096TIP3    H272780   0.835   0.558  15.606 -0.7699  4.2180  0.8389
17097TIP3   OH272781   3.452   4.213   1.916 -0.2442 -0.0064  0.3735
17097TIP3    H172782   3.391   4.150   1.877  0.5248 -0.3440 -0.2844
17097TIP3    H272783   3.539   4.178   1.897  0.1909  1.3822 -0.2087
17098TIP3   OH272784   4.260   5.904   2.391 -0.3304  0.5026  0.5276
17098TIP3    H172785   4.244   5.998   2.402 -0.5843  0.8063 -2.1414
17098TIP3    H272786   4.237   5.886   2.300  0.9467 -1.9013  0.6339
17099TIP3   OH272787   1.069   0.297  11.564 -0.1383  0.2584  0.7591
17099TIP3    H172788   1.134   0.368  11.563  0.7532 -0.5516  0.1161
17099TIP3    H272789   1.113   0.225  11.519 -1.5434 -0.2555  0.1961
17100TIP3   OH272790   4.724   2.270  16.651  0.3554 -0.4382  0.0016
17100TIP3    H172791   4.797   2.332  16.656  0.8739 -1.0423 -0.1043
17100TIP3    H272792   4.718   2.246  16.559  0.5273 -0.9988  0.1381
17101TIP3   OH272793   4.538   4.716  16.615  0.3680  0.0021  0.4660
17101TIP3    H172794   4.447   4.689  16.627  0.5490 -0.7858  0.1109
17101TIP3    H272795   4.538   4.810  16.631 -0.6000  0.0847  0.0062
17102TIP3   OH272796   1.671   3.052   0.325  0.4765  0.1580 -0.6037
17102TIP3    H172797   1.622   2.987   0.375  1.1311  0.3836  0.3420
17102TIP3    H272798   1.627   3.135   0.343  1.8618  0.5451  1.1705
17103TIP3   OH272799   1.617   2.570  17.079  0.3904 -0.2230 -0.9124
17103TIP3    H172800   1.681   2.623  17.031  1.8578 -0.5021  0.6552
17103TIP3    H272801   1.636   2.588  17.171 -0.9216 -1.3575 -0.4004
17104TIP3   OH272802   3.386   2.160   4.875 -0.4842  0.1693 -0.1692
17104TIP3    H172803   3.294   2.138   4.861 -0.2809 -1.8747  1.5508
17104TIP3    H272804   3.433   2.079   4.857  0.7326  0.5023  1.4335
17105TIP3   OH272805   6.716   2.874   0.647  0.0946 -0.3169  0.0898
17105TIP3    H172806   6.726   2.946   0.585  0.9394 -1.7097 -1.4318
17105TIP3    H272807   6.720   2.915   0.733  1.7951  1.2908 -0.7455
17106TIP3   OH272808   3.573   2.113   4.479 -0.1318  0.0956  0.5713
17106TIP3    H172809   3.629   2.085   4.407  0.0644 -0.1712  0.8260
17106TIP3    H272810   3.608   2.067   4.556  1.3222  2.4489  1.3424
17107TIP3   OH272811   4.200   2.175  15.581 -0.2124 -0.6476 -0.7567
17107TIP3    H172812   4.152   2.179  15.499 -1.1090 -1.3191 -0.2743
17107TIP3    H272813   4.138   2.139  15.644  0.3601  0.1803  0.3026
17108TIP3   OH272814   4.487   1.729  12.632 -0.8503 -0.1516 -0.0061
17108TIP3    H172815   4.554   1.681  12.583 -0.6548  0.1896 -0.0695
17108TIP3    H272816   4.407   1.718  12.581 -0.8160 -0.4512  0.0036
17109TIP3   OH272817   4.654   3.553   6.365  0.0342  0.4541  0.1696
17109TIP3    H172818   4.615   3.470   6.335  0.2336  0.0976  0.8967
17109TIP3    H272819   4.697   3.588   6.287  1.3987 -0.9523  0.2730
17110TIP3   OH272820   3.063   6.295   4.734 -0.0111 -0.1143 -0.4602
17110TIP3    H172821   3.024   6.208   4.727 -2.3662  0.8954 -0.2059
17110TIP3    H272822   3.015   6.348   4.671 -0.5872  1.6876  1.4545
17111TIP3   OH272823   6.553   1.200  11.300 -0.2286 -0.4886 -0.1415
17111TIP3    H172824   6.539   1.213  11.394  0.1606 -0.5941 -0.0687
17111TIP3    H272825   6.485   1.138  11.274  0.7348 -1.7984  0.4219
17112TIP3   OH272826   6.302   6.620   3.867  0.0762  0.0696 -0.2000
17112TIP3    H172827   6.280   6.698   3.918  0.6268  1.0940 -1.5031
17112TIP3    H272828   6.392   6.635   3.838  0.8360 -1.8645  1.0045
17113TIP3   OH272829   0.206   6.678  14.050  0.2387 -0.4109 -0.0751
17113TIP3    H172830   0.212   6.593  14.005 -0.0037 -0.0504 -0.7999
17113TIP3    H272831   0.137   6.666  14.115  0.5445 -0.9181  0.1675
17114TIP3   OH272832   2.113   3.471   2.626 -0.3142 -0.1611  0.1378
17114TIP3    H172833   2.079   3.384   2.647 -1.5141 -0.1494 -1.6706
17114TIP3    H272834   2.192   3.454   2.575 -0.7202 -0.2200 -0.4872
17115TIP3   OH272835   6.164   2.376   0.294  0.8545 -0.6402  0.1170
17115TIP3    H172836   6.121   2.460   0.312  1.1477 -0.2362 -1.0141
17115TIP3    H272837   6.217   2.393   0.216  3.1325 -1.1049  1.5163
17116TIP3   OH272838   1.170   5.560   1.722  0.0343  0.3134  0.3638
17116TIP3    H172839   1.103   5.491   1.729 -1.8162  2.3642  4.5819
17116TIP3    H272840   1.250   5.520   1.756 -0.1779 -0.7289 -0.3310
17117TIP3   OH272841   4.194   3.079   3.139 -0.5834 -0.3921 -0.1138
17117TIP3    H172842   4.135   3.141   3.181  0.0172 -1.5501  2.5306
17117TIP3    H272843   4.276   3.128   3.128 -1.1808  0.3705 -1.3504
17118TIP3   OH272844   0.411   3.219   1.232  0.6033  0.3838  0.3015
17118TIP3    H172845   0.397   3.311   1.208  0.5624  0.1322 -0.6478
17118TIP3    H272846   0.444   3.178   1.152 -0.6244 -0.7069  0.3416
17119TIP3   OH272847   1.927   0.356  11.180  0.3580  0.0878  0.0556
17119TIP3    H172848   2.003   0.307  11.210 -0.1160 -0.5253  0.2652
17119TIP3    H272849   1.884   0.297  11.118  0.3396  0.6346 -0.4544
17120TIP3   OH272850   1.560   6.668  17.127  0.1098 -0.6067 -1.1542
17120TIP3    H172851   1.616   6.596  17.097  1.5044  0.4793 -1.1996
17120TIP3    H272852   1.617   6.722  17.181 -0.8035  0.7012 -1.4624
17121TIP3   OH272853   6.797   5.208  16.879  0.1155  0.4652  0.0981
17121TIP3    H172854   6.807   5.246  16.966 -0.0644 -0.7413  0.6484
17121TIP3    H272855   6.720   5.251  16.842 -2.7376 -2.4668  2.4064
17122TIP3   OH272856   6.245   4.977  10.871 -0.1957 -0.1611  0.3355
17122TIP3    H172857   6.221   5.069  10.859  1.4036 -0.1436 -3.5079
17122TIP3    H272858   6.175   4.940  10.925 -2.6554  2.5221 -0.9019
17123TIP3   OH272859   4.010   0.385   3.139  0.4949  0.3443  0.7158
17123TIP3    H172860   4.081   0.324   3.119  1.4202  1.9739 -1.0445
17123TIP3    H272861   3.932   0.329   3.147  1.2779 -1.0462 -1.1639
17124TIP3   OH272862   4.677   4.053  12.303  0.0509 -0.1457 -0.2015
17124TIP3    H172863   4.639   4.102  12.231  0.8828 -0.3186 -0.7593
17124TIP3    H272864   4.639   3.965  12.295 -0.5337  0.0773  0.0985
17125TIP3   OH272865   0.676   6.207  14.260 -0.1521 -0.1423 -0.0217
17125TIP3    H172866   0.751   6.150  14.273 -1.3863 -1.7790 -0.0034
17125TIP3    H272867   0.615   6.156  14.207 -1.2431  1.1693 -0.0599
17126TIP3   OH272868   5.967   4.218  14.922 -0.1541 -0.1587 -1.0795
17126TIP3    H172869   5.904   4.280  14.958 -1.2883 -1.2015 -1.2327
17126TIP3    H272870   6.042   4.224  14.980 -1.1751 -0.3430  0.2832
17127TIP3   OH272871   4.821   3.152  15.345  0.3367 -0.0331 -0.5696
17127TIP3    H172872   4.807   3.205  15.423  1.4269 -0.9107  0.2384
17127TIP3    H272873   4.790   3.065  15.369 -2.6308  0.4726 -2.3163
17128TIP3   OH272874   1.646   4.793   0.123 -0.1636  0.2958 -0.3164
17128TIP3    H172875   1.602   4.710   0.102  0.4320 -0.8358  2.7481
17128TIP3    H272876   1.729   4.788   0.076 -0.1446 -0.8278 -0.1863
17129TIP3   OH272877   3.881   5.478  16.515 -0.3071  0.1336 -0.1793
17129TIP3    H172878   3.957   5.426  16.540 -1.3843 -0.6530  1.5129
17129TIP3    H272879   3.908   5.523  16.435  2.0264  0.1000  0.5741
17130TIP3   OH272880   1.814   3.077  11.391 -0.0383 -0.5434  0.2256
17130TIP3    H172881   1.836   3.170  11.390 -0.1648 -0.5035  1.1409
17130TIP3    H272882   1.746   3.067  11.324 -1.2563  0.3234  1.3263
17131TIP3   OH272883   5.108   5.312  13.456  0.3617  0.1214  1.0079
17131TIP3    H172884   5.158   5.375  13.404 -0.2011  0.7341  1.1997
17131TIP3    H272885   5.099   5.355  13.542 -0.0764 -0.1957  1.1205
17132TIP3   OH272886   0.881   0.831  11.426  0.0474 -0.1190  0.0675
17132TIP3    H172887   0.912   0.916  11.395 -0.6603  0.2097  0.2415
17132TIP3    H272888   0.921   0.767  11.367  1.1841  0.2828  0.3958
17133TIP3   OH272889   0.482   6.384   0.156 -0.5263  0.1117 -0.6587
17133TIP3    H172890   0.399   6.339   0.142 -1.0955  0.7876  0.4355
17133TIP3    H272891   0.489   6.391   0.252 -0.2120  1.8932 -0.8009
17134TIP3   OH272892   1.036   2.009  12.810 -0.1922  0.1002  0.0805
17134TIP3    H172893   1.117   1.960  12.821  1.2066  2.2925 -0.2578
17134TIP3    H272894   1.036   2.037  12.719 -1.2276  0.3037  0.1306
17135TIP3   OH272895   1.488   1.420   0.188 -0.8189  0.4048  0.1017
17135TIP3    H172896   1.451   1.350   0.242  0.1293  1.1958  1.8264
17135TIP3    H272897   1.445   1.499   0.219  0.1349  0.9426  0.0696
17136TIP3   OH272898   2.604   2.395   4.322 -0.1236  0.0003 -0.2724
17136TIP3    H172899   2.519   2.433   4.302  0.3123  1.4849  0.6213
17136TIP3    H272900   2.585   2.321   4.379 -0.7817  0.6526  0.3584
17137TIP3   OH272901   2.708   0.188   5.202  0.0283 -0.3483 -0.1564
17137TIP3    H172902   2.731   0.219   5.114 -0.0271  2.9031  0.9102
17137TIP3    H272903   2.792   0.167   5.243  0.2110  0.0804 -0.3077
17138TIP3   OH272904   5.887   6.013   3.184 -0.4968  0.6093  0.4507
17138TIP3    H172905   5.808   5.960   3.191 -0.7277  0.6332 -1.6697
17138TIP3    H272906   5.857   6.103   3.198 -1.0004  0.7059 -1.1815
17139TIP3   OH272907   0.246   3.475   0.265 -0.4083 -1.0351 -0.2846
17139TIP3    H172908   0.221   3.558   0.305  2.9327  0.7057 -1.5988
17139TIP3    H272909   0.178   3.456   0.201 -1.1240  0.7378 -0.0536
17140TIP3   OH272910   4.682   1.950   2.516  0.1090 -0.2368  0.5039
17140TIP3    H172911   4.757   2.004   2.542  0.9208 -1.5826  1.0258
17140TIP3    H272912   4.652   1.988   2.433  0.4945  1.1683  1.0031
17141TIP3   OH272913   0.242   3.153   0.803 -0.0285 -0.0891  0.0841
17141TIP3    H172914   0.304   3.099   0.755 -0.6126 -0.9141  0.2578
17141TIP3    H272915   0.267   3.143   0.895 -0.5508 -0.5878  0.1718
17142TIP3   OH272916   4.395   1.511  16.980 -0.3521 -0.6602  0.2910
17142TIP3    H172917   4.318   1.512  16.923  0.8370 -2.3662 -1.4042
17142TIP3    H272918   4.452   1.579  16.943 -0.3853 -0.4655  0.5983
17143TIP3   OH272919   2.279   0.779   1.060  0.5064 -0.6488 -0.3022
17143TIP3    H172920   2.374   0.776   1.066  0.4154 -1.4744  0.8465
17143TIP3    H272921   2.258   0.871   1.047  1.4132 -0.3594  0.2819
17144TIP3   OH272922   1.416   0.237   3.405 -0.4556 -0.1757 -0.0678
17144TIP3    H172923   1.386   0.225   3.496 -2.7612 -0.8488 -0.8891
17144TIP3    H272924   1.476   0.163   3.390  1.6600  1.1369  1.5621
17145TIP3   OH272925   3.087   0.359  12.763  0.5813 -0.1051  0.6782
17145TIP3    H172926   3.161   0.327  12.815 -0.7530 -3.1913  0.8424
17145TIP3    H272927   3.011   0.348  12.821 -0.2022  1.6682  0.0216
17146TIP3   OH272928   2.415   1.018  13.345 -0.2485  0.2728  0.1192
17146TIP3    H172929   2.464   1.098  13.365 -0.5618  0.1633  1.4247
17146TIP3    H272930   2.346   1.046  13.285  0.4454  0.7261 -0.4735
17147TIP3   OH272931   1.899   6.222  16.522 -0.4611  0.1293  0.5404
17147TIP3    H172932   1.893   6.146  16.464  0.6572 -0.3234  1.0099
17147TIP3    H272933   1.991   6.248  16.518 -0.6268  0.8275  1.1963
17148TIP3   OH272934   6.422   1.108   4.442 -0.0579 -0.1762  0.2712
17148TIP3    H172935   6.487   1.153   4.496 -1.4630  1.0202  0.9924
17148TIP3    H272936   6.338   1.131   4.481 -1.0874  0.3696 -2.1863
17149TIP3   OH272937   5.246   2.028  17.006 -0.6208  0.5536  0.2121
17149TIP3    H172938   5.226   1.977  16.927  1.3376  0.3328 -0.1565
17149TIP3    H272939   5.326   2.076  16.984 -0.7539  1.4487  1.6341
17150TIP3   OH272940   1.405   1.045   2.869 -0.1732  0.7410  0.0885
17150TIP3    H172941   1.313   1.027   2.887 -0.2259 -0.2627 -1.1495
17150TIP3    H272942   1.450   1.020   2.950 -0.9176  0.6681  0.4845
17151TIP3   OH272943   3.250   2.559   3.337 -0.1297 -0.2046  0.5624
17151TIP3    H172944   3.248   2.491   3.271 -1.3195  1.9330 -1.6887
17151TIP3    H272945   3.167   2.549   3.384 -0.0423 -0.6555  0.6246
17152TIP3   OH272946   4.110   4.184  14.430 -0.5210 -0.3332  0.0257
17152TIP3    H172947   4.109   4.152  14.339 -2.0682  1.1687 -0.5305
17152TIP3    H272948   4.158   4.118  14.479  1.3108 -0.6205 -2.0964
17153TIP3   OH272949   6.354   4.913   1.627 -0.0597  0.0641 -0.5678
17153TIP3    H172950   6.372   4.965   1.705 -1.0601 -1.0129  0.3948
17153TIP3    H272951   6.440   4.876   1.603  0.0534 -0.4818  0.6608
17154TIP3   OH272952   3.889   2.079  11.736 -0.4319 -0.2963 -0.3645
17154TIP3    H172953   3.946   2.076  11.660 -0.2547  1.3080 -0.3193
17154TIP3    H272954   3.895   2.170  11.767 -2.3501 -0.3116  0.1387
17155TIP3   OH272955   4.596   1.810   0.047  0.3108 -0.0264 -0.2079
17155TIP3    H172956   4.568   1.875   0.111  0.4579  1.2502 -1.4034
17155TIP3    H272957   4.691   1.806   0.056  0.2192 -0.7458  0.4805
17156TIP3   OH272958   3.659   3.751   0.395  0.2356 -0.6105 -0.9087
17156TIP3    H172959   3.671   3.737   0.301  0.2971 -1.7993 -0.7285
17156TIP3    H272960   3.577   3.707   0.417  0.6943 -1.1454 -0.2328
17157TIP3   OH272961   1.923   0.962   6.154 -0.4426 -0.3553 -0.4349
17157TIP3    H172962   1.833   0.995   6.156  0.1263  1.1458  1.3560
17157TIP3    H272963   1.961   0.988   6.238  1.3053 -2.0351 -0.6579
17158TIP3   OH272964   4.490   3.525  16.903  0.7537 -0.5445 -0.0013
17158TIP3    H172965   4.506   3.587  16.974  0.0958 -0.0145 -0.3190
17158TIP3    H272966   4.576   3.514  16.862  1.2285 -1.1989  1.1515
17159TIP3   OH272967   5.001   4.388  15.662 -0.5755  0.0416 -0.8884
17159TIP3    H172968   4.940   4.390  15.736 -0.8008  0.5921 -1.0915
17159TIP3    H272969   4.949   4.413  15.587 -0.2032  0.0660 -1.1396
17160TIP3   OH272970   1.310   0.818  17.018 -0.2900  0.0762 -0.0255
17160TIP3    H172971   1.391   0.821  16.968  0.9697  1.1886  2.0308
17160TIP3    H272972   1.331   0.859  17.101 -3.2838  1.4419  0.1265
17161TIP3   OH272973   5.834   2.105   4.916 -0.0675 -0.5075 -0.6051
17161TIP3    H172974   5.799   2.137   4.999 -0.0983 -0.3718 -0.6713
17161TIP3    H272975   5.856   2.184   4.867 -0.5650 -0.5864 -0.9496
17162TIP3   OH272976   2.046   4.389   5.440  0.0536  0.1803  0.7960
17162TIP3    H172977   2.133   4.423   5.420 -0.5228  0.4747 -1.3690
17162TIP3    H272978   1.987   4.460   5.414 -0.9150 -0.6265  0.7771
17163TIP3   OH272979   3.104   0.066  13.652  0.0340 -0.3542  1.0800
17163TIP3    H172980   3.093   0.057  13.557 -0.5261 -1.0417  1.2027
17163TIP3    H272981   3.196   0.090  13.663 -0.4541  2.0033  0.2245
17164TIP3   OH272982   0.338   2.281  12.539 -0.0484  0.7544 -0.3213
17164TIP3    H172983   0.362   2.361  12.585 -1.0631  0.4400  0.7870
17164TIP3    H272984   0.333   2.307  12.447 -0.4636  1.9986  0.0360
17165TIP3   OH272985   5.537   2.825   4.458  0.1686  0.2525 -0.3557
17165TIP3    H172986   5.553   2.871   4.376 -0.8550  1.5365  0.1438
17165TIP3    H272987   5.501   2.741   4.431  2.0568 -0.2825 -1.2808
17166TIP3   OH272988   0.711   3.454   6.151  0.3350 -0.3191 -0.0975
17166TIP3    H172989   0.731   3.527   6.211  1.0191 -0.1982 -0.4661
17166TIP3    H272990   0.631   3.416   6.187 -0.4862  1.1142 -0.3527
17167TIP3   OH272991   0.960   5.169   0.978  1.1660  0.3999 -0.5016
17167TIP3    H172992   0.914   5.180   1.061  1.3168 -0.2137 -0.3359
17167TIP3    H272993   1.029   5.235   0.979 -1.6328  3.4807 -2.1014
17168TIP3   OH272994   1.897   0.049  12.342  0.6355  0.1676 -0.0673
17168TIP3    H172995   1.938   0.108  12.280 -1.3871  0.5983 -1.0246
17168TIP3    H272996   1.878  -0.030  12.291  0.5015 -0.1344  0.4449
17169TIP3   OH272997   0.114   6.050  13.371  0.4482 -0.5959  0.1534
17169TIP3    H172998   0.163   5.999  13.306  1.6248  1.5151 -0.6953
17169TIP3    H272999   0.141   6.140  13.355 -2.4131  0.4371  0.8850
17170TIP3   OH273000   5.951   4.200  13.514  0.3051 -0.3517 -0.1028
17170TIP3    H173001   5.967   4.280  13.464  2.1914 -0.7141 -0.0878
17170TIP3    H273002   6.022   4.197  13.577  0.3359 -2.1374 -0.2157
17171TIP3   OH273003   1.724   5.915  13.809 -0.5747 -0.2359  0.6057
17171TIP3    H173004   1.654   5.866  13.852 -1.2592  0.1841 -0.0297
17171TIP3    H273005   1.692   6.005  13.804 -0.9137 -0.4606 -1.6645
17172TIP3   OH273006   2.034   3.871  13.074 -0.0982  0.0214  0.2607
17172TIP3    H173007   2.010   3.858  12.982  0.9807 -0.7724  0.0924
17172TIP3    H273008   1.951   3.861  13.122 -0.3714 -1.1822 -0.4599
17173TIP3   OH273009   3.536   3.266   4.339 -0.7090  0.2762 -0.7261
17173TIP3    H173010   3.460   3.218   4.374  0.0506 -0.3284  0.1089
17173TIP3    H273011   3.607   3.201   4.339  0.7691  1.8073  1.9345
17174TIP3   OH273012   5.652   5.365   0.221 -0.1680 -0.2189 -0.4092
17174TIP3    H173013   5.572   5.398   0.180 -0.0963  0.7898  0.2356
17174TIP3    H273014   5.633   5.273   0.239 -1.0047 -0.1099 -0.7007
17175TIP3   OH273015   2.754   3.147   3.552 -0.5862  0.4093 -0.5415
17175TIP3    H173016   2.733   3.175   3.641  0.5775 -1.3132  0.3242
17175TIP3    H273017   2.713   3.061   3.544  1.2340 -0.4629 -0.8228
17176TIP3   OH273018   3.321   1.597  14.461  0.5935  0.4213 -0.2403
17176TIP3    H173019   3.350   1.509  14.437  0.2710  0.2165  0.1174
17176TIP3    H273020   3.396   1.636  14.505  0.8059  0.3970 -0.5799
17177TIP3   OH273021   2.135   5.549   2.830 -0.4097  0.3402  0.8004
17177TIP3    H173022   2.099   5.482   2.772  0.6658  0.2413  0.2532
17177TIP3    H273023   2.107   5.521   2.918  0.4475 -1.1142  0.6328
17178TIP3   OH273024   1.788   4.429  16.663 -0.5187  0.7910  0.3288
17178TIP3    H173025   1.842   4.476  16.726 -0.3120  0.2573  0.5577
17178TIP3    H273026   1.826   4.451  16.578  0.4434 -0.0471  0.5280
17179TIP3   OH273027   0.514   1.624  11.104  0.1641  0.4298  0.1109
17179TIP3    H173028   0.584   1.649  11.043 -0.0263 -0.1434 -0.3454
17179TIP3    H273029   0.460   1.562  11.055 -0.1764  0.2105  0.7546
17180TIP3   OH273030   1.865   1.025  12.740  0.3340 -0.1443 -0.1839
17180TIP3    H173031   1.932   0.985  12.796  0.0018 -1.1075 -0.4766
17180TIP3    H273032   1.882   0.989  12.653  0.6171  1.0690 -0.6460
17181TIP3   OH273033   4.223   1.053  14.458 -0.0481 -0.0875  0.1562
17181TIP3    H173034   4.204   1.083  14.369  2.8428 -0.0753 -0.5138
17181TIP3    H273035   4.205   1.129  14.513 -0.0894  0.4862 -0.6402
17182TIP3   OH273036   5.565   3.817   4.532  0.2070 -0.1809  0.3247
17182TIP3    H173037   5.627   3.883   4.562  1.5553 -1.5106  0.5224
17182TIP3    H273038   5.604   3.734   4.558  0.0584 -1.2240 -2.6143
17183TIP3   OH273039   4.749   0.403  16.959  0.2896  0.1374 -0.5312
17183TIP3    H173040   4.699   0.472  17.002  1.1224 -0.1654  0.9774
17183TIP3    H273041   4.720   0.404  16.868 -1.3800  0.9335 -0.0017
17184TIP3   OH273042   3.487   0.722   0.939  0.3919  0.4718 -0.1270
17184TIP3    H173043   3.506   0.695   0.849  0.5359  0.4446 -0.0889
17184TIP3    H273044   3.446   0.646   0.979 -0.3302  0.7259 -0.3790
17185TIP3   OH273045   6.601   0.246  15.115  0.6538  0.1886 -0.4233
17185TIP3    H173046   6.647   0.162  15.119  3.1411  1.3138 -3.1870
17185TIP3    H273047   6.669   0.312  15.131 -0.6358  1.7991 -1.3495
17186TIP3   OH273048   1.208   5.289   1.046 -0.0269 -0.5809  0.5202
17186TIP3    H173049   1.195   5.356   1.113 -1.0855 -0.4736  0.2167
17186TIP3    H273050   1.249   5.336   0.973 -0.4208 -0.3413  0.4517
17187TIP3   OH273051   4.947   6.569  11.611  0.4043 -0.1936 -0.3996
17187TIP3    H173052   4.911   6.500  11.667 -1.5796  0.5082 -0.7512
17187TIP3    H273053   4.980   6.635  11.671 -0.1193 -0.2491 -0.0459
17188TIP3   OH273054   3.501   4.917   4.591  0.6977 -0.0027 -0.1883
17188TIP3    H173055   3.419   4.868   4.602  0.0632  1.2498  0.8055
17188TIP3    H273056   3.559   4.882   4.658  0.0860  0.8925  0.8350
17189TIP3   OH273057   1.274   1.996   3.387 -0.4129  0.6370  0.4979
17189TIP3    H173058   1.212   2.060   3.422 -0.0825  1.5543 -0.5554
17189TIP3    H273059   1.360   2.031   3.410 -0.2243  0.6901 -0.2886
17190TIP3   OH273060   5.346   4.539   0.310 -0.3693 -0.4044  0.5702
17190TIP3    H173061   5.310   4.527   0.398 -3.0080 -0.6198 -0.5039
17190TIP3    H273062   5.438   4.513   0.319  0.2165  2.4435  3.9312
17191TIP3   OH273063   5.056   1.213  16.385  0.6922 -0.4026  0.1308
17191TIP3    H173064   5.014   1.143  16.334  0.7039  1.0428 -1.9241
17191TIP3    H273065   5.147   1.186  16.392  0.6644 -0.6830 -0.5373
17192TIP3   OH273066   0.670   5.362  13.521 -0.1171 -0.0629 -0.1235
17192TIP3    H173067   0.675   5.402  13.434  0.7593 -0.5443 -0.3034
17192TIP3    H273068   0.751   5.312  13.529  0.7204  1.5386  1.7662
17193TIP3   OH273069   1.676   0.211  15.731  0.1426 -0.0085  0.1010
17193TIP3    H173070   1.732   0.225  15.808 -0.5920  0.7255  0.5148
17193TIP3    H273071   1.732   0.232  15.656  0.8466 -0.6719  0.4312
17194TIP3   OH273072   5.452   3.978   5.552  0.3577 -0.1609 -0.1568
17194TIP3    H173073   5.374   4.017   5.592  1.0812 -0.5184  1.6693
17194TIP3    H273074   5.432   3.974   5.459 -1.2329  1.0666  0.1156
17195TIP3   OH273075   5.331   5.580   4.991 -0.5743  1.2869  0.0580
17195TIP3    H173076   5.370   5.662   4.960  3.3081 -0.2087  0.7158
17195TIP3    H273077   5.339   5.584   5.086 -0.6629  0.3051  0.1114
17196TIP3   OH273078   6.781   1.470   3.233  0.0236  0.2455 -0.4515
17196TIP3    H173079   6.866   1.514   3.239  0.0669  0.3370 -1.7672
17196TIP3    H273080   6.728   1.514   3.300  1.5821 -1.1861  1.8120
17197TIP3   OH273081   2.629   4.168  12.034 -0.2105 -0.2737 -0.1024
17197TIP3    H173082   2.641   4.251  11.988 -1.6846  0.1135  0.1552
17197TIP3    H273083   2.564   4.188  12.102  0.9848 -1.1345  1.3280
17198TIP3   OH273084   4.493   4.679   1.649 -0.3592  0.0095 -0.3298
17198TIP3    H173085   4.491   4.615   1.720  2.3344  0.3351  0.0691
17198TIP3    H273086   4.559   4.645   1.589 -0.5755  1.2445 -1.2729
17199TIP3   OH273087   5.069   5.065  12.324 -0.0637 -0.2084  0.0430
17199TIP3    H173088   5.023   4.986  12.294  0.3585 -0.5484  0.2883
17199TIP3    H273089   5.107   5.039  12.408 -0.6276  0.5122  0.5230
17200TIP3   OH273090   5.171   1.545  13.726  0.5287 -0.1165 -0.0498
17200TIP3    H173091   5.212   1.568  13.809 -0.5807  0.1579  0.4367
17200TIP3    H273092   5.079   1.568  13.738  0.4776  0.5061 -1.5791
17201TIP3   OH273093   4.743   4.369  14.999  0.1687 -0.0505 -0.1867
17201TIP3    H173094   4.756   4.368  14.904  1.6891 -0.1213  0.0004
17201TIP3    H273095   4.674   4.434  15.014 -0.6334 -0.6177 -1.3989
17202TIP3   OH273096   3.151   2.096   3.198 -0.1371  0.0044  0.0086
17202TIP3    H173097   3.186   2.139   3.120  3.0839  0.2176  1.5193
17202TIP3    H273098   3.138   2.005   3.171  1.6459 -0.0915 -0.5955
17203TIP3   OH273099   2.928   5.914  15.082  0.2358 -0.3207  0.0700
17203TIP3    H173100   2.861   5.878  15.140  1.0977 -0.0033  1.2885
17203TIP3    H273101   2.995   5.947  15.142  0.1852  1.9013 -1.0502
17204TIP3   OH273102   0.536   6.452  10.847  0.2929  0.0211 -0.2179
17204TIP3    H173103   0.585   6.522  10.890  1.2766 -1.4734  1.1754
17204TIP3    H273104   0.542   6.472  10.754  2.9944  0.2890 -0.0305
17205TIP3   OH273105   5.146   2.370  11.485 -0.3391  0.2372 -0.3504
17205TIP3    H173106   5.108   2.334  11.404 -0.6216  1.4217 -0.7620
17205TIP3    H273107   5.187   2.295  11.528 -2.6181 -0.9916 -0.2032
17206TIP3   OH273108   5.081   2.511  13.520  0.0852 -0.1662 -0.1433
17206TIP3    H173109   5.034   2.487  13.441 -2.3390  1.8412  0.6363
17206TIP3    H273110   5.130   2.590  13.497 -0.5903  0.3988  0.3459
17207TIP3   OH273111   0.534   5.830  12.387 -0.3907 -0.2396 -0.0803
17207TIP3    H173112   0.575   5.819  12.300  0.7912 -1.7647  0.6451
17207TIP3    H273113   0.444   5.802  12.374 -0.5452  0.6620 -1.0877
17208TIP3   OH273114   1.004   5.056  17.157  0.2153 -0.0266  0.2075
17208TIP3    H173115   0.982   5.105  17.236  0.8248 -0.2406  0.5090
17208TIP3    H273116   0.989   4.965  17.180  0.4939 -0.0975  0.1112
17209TIP3   OH273117   1.641   0.847  10.699 -0.4331 -0.4153 -0.3169
17209TIP3    H173118   1.637   0.934  10.739 -0.0143 -0.9188  0.8523
17209TIP3    H273119   1.593   0.790  10.760 -0.6228 -1.0231 -1.0231
17210TIP3   OH273120   6.464   5.196  13.979 -0.4168  0.0681 -0.0471
17210TIP3    H173121   6.551   5.214  13.943 -0.4208  0.8738  0.3417
17210TIP3    H273122   6.470   5.221  14.071 -0.7244 -0.9695  0.2708
17211TIP3   OH273123   0.506   0.378   5.247  0.4596  0.2426 -0.4700
17211TIP3    H173124   0.542   0.448   5.193  1.4801  1.7093  2.0169
17211TIP3    H273125   0.543   0.393   5.334  0.4956 -3.2570  0.1980
17212TIP3   OH273126   1.007   3.212   5.300 -0.1788 -0.1425 -0.4235
17212TIP3    H173127   0.949   3.245   5.368 -1.8844  1.9028 -2.7892
17212TIP3    H273128   0.950   3.197   5.224  1.9763 -0.3279 -2.0684
17213TIP3   OH273129   2.863   2.435   6.444  0.4143  0.4729 -0.0309
17213TIP3    H173130   2.840   2.451   6.535  0.6469  0.3092  0.0572
17213TIP3    H273131   2.781   2.445   6.396  0.2278  0.2208  0.2381
17214TIP3   OH273132   2.691   3.674   5.150 -0.4621 -0.1503 -0.5256
17214TIP3    H173133   2.688   3.579   5.138 -1.2801  0.0969 -2.5143
17214TIP3    H273134   2.614   3.706   5.103 -0.5212  1.4562  0.6233
17215TIP3   OH273135   6.806   5.064  11.765 -0.1009 -0.1917  0.1673
17215TIP3    H173136   6.816   5.129  11.696  0.8436 -0.6997 -0.1711
17215TIP3    H273137   6.805   4.980  11.720 -0.0558 -0.4942  0.7209
17216TIP3   OH273138   3.832   1.752  15.791 -0.2289 -0.2410  0.5761
17216TIP3    H173139   3.857   1.844  15.794  0.3349 -0.2666 -1.8405
17216TIP3    H273140   3.897   1.707  15.846  0.2927  0.6361  0.6817
17217TIP3   OH273141   5.907   2.503   1.583 -0.0843  0.3041 -0.4754
17217TIP3    H173142   5.967   2.564   1.539 -0.2267  0.9800  0.2557
17217TIP3    H273143   5.963   2.453   1.643  0.2402 -1.1540 -1.9574
17218TIP3   OH273144   6.134   1.804  14.441 -0.2297  0.4598  0.0302
17218TIP3    H173145   6.127   1.771  14.352 -0.1785  1.1666 -0.2376
17218TIP3    H273146   6.165   1.894  14.431 -2.6325  1.3989  0.6112
17219TIP3   OH273147   5.692   2.043  10.639  0.5419 -0.2804 -0.2715
17219TIP3    H173148   5.760   2.037  10.572  0.4783 -2.3401 -0.2015
17219TIP3    H273149   5.619   1.992  10.603 -0.3328  0.4817  0.3937
17220TIP3   OH273150   5.717   0.586   1.292 -0.1204 -0.9740  0.0937
17220TIP3    H173151   5.725   0.499   1.255  1.1894 -0.8000 -0.0580
17220TIP3    H273152   5.796   0.597   1.346  1.2500  1.2305 -2.2496
17221TIP3   OH273153   1.488   5.294  13.349 -0.5743 -0.4715  0.1773
17221TIP3    H173154   1.500   5.362  13.283  3.0826 -0.3169  0.8528
17221TIP3    H273155   1.469   5.342  13.430 -2.1424 -0.5045 -0.1633
17222TIP3   OH273156   1.535   3.363  15.443  0.0039 -0.1306 -0.0618
17222TIP3    H173157   1.628   3.382  15.435  0.1402 -0.8386 -0.1904
17222TIP3    H273158   1.498   3.441  15.485  0.7664 -0.1378  0.6388
17223TIP3   OH273159   1.870   4.694  12.223 -0.5256 -0.0872  0.5650
17223TIP3    H173160   1.897   4.737  12.304 -2.0009  2.3833 -0.1915
17223TIP3    H273161   1.781   4.663  12.241 -0.5378 -0.2828  0.1655
17224TIP3   OH273162   4.524   3.010  16.089  0.5943  0.3651 -0.7536
17224TIP3    H173163   4.445   2.966  16.120  0.9933 -0.3986 -0.7870
17224TIP3    H273164   4.540   3.080  16.152  1.3358 -1.1017  0.7305
17225TIP3   OH273165   5.803   6.628  13.126  0.0007  0.5544 -0.1696
17225TIP3    H173166   5.710   6.626  13.103 -0.2207  0.2412  0.7106
17225TIP3    H273167   5.804   6.625  13.222  0.9380 -0.2557 -0.1944
17226TIP3   OH273168   5.991   1.612   3.950 -0.3251 -0.0407 -0.4915
17226TIP3    H173169   5.997   1.569   4.035 -0.9725  0.0814 -0.3830
17226TIP3    H273170   6.081   1.635   3.928 -0.2374  0.4847  0.4398
17227TIP3   OH273171   3.197   4.353   0.345  0.6991 -0.6169 -0.7090
17227TIP3    H173172   3.217   4.375   0.435 -1.1522 -0.9562 -0.1962
17227TIP3    H273173   3.174   4.260   0.347 -0.0357 -0.4638 -1.3932
17228TIP3   OH273174   2.342   0.014   5.591 -0.0924  0.2827 -0.5605
17228TIP3    H173175   2.335  -0.081   5.603 -4.0189  0.1627 -2.8810
17228TIP3    H273176   2.329   0.050   5.678 -3.1010 -1.2355 -0.3076
17229TIP3   OH273177   5.816   4.148  15.722  0.0745 -0.4201 -0.1302
17229TIP3    H173178   5.907   4.176  15.715 -0.6406  1.9905 -0.5173
17229TIP3    H273179   5.775   4.181  15.642 -1.4227 -0.2194  0.6960
17230TIP3   OH273180   3.804   4.239   1.711 -0.4833 -0.3056  0.0628
17230TIP3    H173181   3.782   4.176   1.780  1.1365 -0.4957  0.4370
17230TIP3    H273182   3.900   4.241   1.711 -0.5049  2.3144  0.2153
17231TIP3   OH273183   6.239   5.324  13.418 -0.7961 -0.1201  0.2937
17231TIP3    H173184   6.320   5.328  13.469  0.2274  1.3534 -1.4349
17231TIP3    H273185   6.260   5.268  13.343 -1.7215 -0.6240  0.3979
17232TIP3   OH273186   5.541   0.392   5.546  0.9446  0.0026  0.4517
17232TIP3    H173187   5.603   0.381   5.618  1.2760 -0.3558  0.1140
17232TIP3    H273188   5.578   0.462   5.493  0.1068  1.0617  1.2554
17233TIP3   OH273189   2.177   1.918  11.146  0.4836  0.1440  0.6859
17233TIP3    H173190   2.148   1.887  11.060 -0.1153 -0.7266  1.1931
17233TIP3    H273191   2.272   1.908  11.143  0.6325  1.7130 -0.4766
17234TIP3   OH273192   3.064   4.739   1.826  0.2008 -0.3099 -0.1211
17234TIP3    H173193   2.988   4.684   1.812 -1.6579  1.5672  2.1160
17234TIP3    H273194   3.124   4.685   1.878 -0.1344 -1.3471 -0.8017
17235TIP3   OH273195   5.197   0.947  16.738 -0.1171 -0.0337  0.5491
17235TIP3    H173196   5.271   0.888  16.725  0.3122  0.3299  1.2985
17235TIP3    H273197   5.221   0.998  16.815 -0.9423  0.4079  0.5161
17236TIP3   OH273198   2.942   2.507  12.231  0.3180  0.1370 -0.0428
17236TIP3    H173199   2.913   2.472  12.147  1.1417 -2.3852  0.7014
17236TIP3    H273200   2.887   2.464  12.296  0.9049  0.7246  0.8577
17237TIP3   OH273201   2.331   4.670  11.680  0.5634  0.6651  0.4892
17237TIP3    H173202   2.298   4.688  11.591 -1.7599  0.6088  1.3144
17237TIP3    H273203   2.308   4.748  11.730  0.2117 -0.0905  1.4978
17238TIP3   OH273204   5.131   1.680   0.473  0.5794  0.1125 -0.6570
17238TIP3    H173205   5.156   1.657   0.563 -0.4516  2.9169  0.3909
17238TIP3    H273206   5.182   1.621   0.419  2.5477 -0.4530  1.7188
17239TIP3   OH273207   4.252   4.855  16.050  0.5951 -0.0078 -0.1722
17239TIP3    H173208   4.264   4.762  16.065 -1.3414 -0.3260 -0.4918
17239TIP3    H273209   4.266   4.896  16.135  1.0910 -0.6208  0.0431
17240TIP3   OH273210   1.923   0.312  13.962  0.1595  0.4514  0.0907
17240TIP3    H173211   1.973   0.310  13.880  0.5528 -2.1628  0.3620
17240TIP3    H273212   1.969   0.374  14.018  1.3837  0.2825 -0.7260
17241TIP3   OH273213   2.396   5.108   4.813 -0.2640 -0.1069 -0.3308
17241TIP3    H173214   2.304   5.100   4.836 -0.6476  1.8765 -1.0378
17241TIP3    H273215   2.402   5.192   4.767  1.5841 -0.9724 -1.7764
17242TIP3   OH273216   4.597   1.999   0.730  0.6444  0.7976 -0.0079
17242TIP3    H173217   4.526   2.005   0.666  0.1618  0.3310  0.4803
17242TIP3    H273218   4.577   1.920   0.781  0.1618  2.0218  1.7441
17243TIP3   OH273219   1.136   5.121   4.351  0.4092 -0.4871  0.1516
17243TIP3    H173220   1.113   5.030   4.338  1.3147 -0.5152 -1.3882
17243TIP3    H273221   1.154   5.128   4.445 -2.7153 -1.1435  0.8358
17244TIP3   OH273222   6.101   1.321  16.610  0.3318 -0.5607  0.3785
17244TIP3    H173223   6.089   1.231  16.640 -1.4481 -0.3455  0.3891
17244TIP3    H273224   6.109   1.373  16.691 -1.3078 -0.3842  0.4424
17245TIP3   OH273225   5.210   2.439  12.371  0.3088  0.2984  0.0257
17245TIP3    H173226   5.221   2.471  12.281  1.8364  1.3699  0.5711
17245TIP3    H273227   5.117   2.421  12.378  0.2215 -0.1649 -1.9018
17246TIP3   OH273228   5.616   0.837  15.700  0.1541 -0.9371 -0.3747
17246TIP3    H173229   5.584   0.927  15.706  0.0192 -0.9490 -0.9456
17246TIP3    H273230   5.706   0.846  15.670  0.2762 -0.9733 -0.0241
17247TIP3   OH273231   3.315   1.709   1.957 -0.2045  0.0593  0.3220
17247TIP3    H173232   3.281   1.744   2.039 -2.4313  0.4904 -0.7444
17247TIP3    H273233   3.363   1.782   1.918 -1.9733  0.9020 -0.3094
17248TIP3   OH273234   6.721   0.455  16.343 -0.3787 -0.2410 -0.0867
17248TIP3    H173235   6.712   0.368  16.382  1.3996 -0.4910 -0.1893
17248TIP3    H273236   6.815   0.473  16.346 -0.5888  1.1336 -1.2470
17249TIP3   OH273237   0.119   4.451  12.339 -0.1660  0.2319 -0.9592
17249TIP3    H173238   0.187   4.478  12.277  0.9526 -0.0272  0.1270
17249TIP3    H273239   0.165   4.442  12.422 -1.1287 -2.0076 -0.6510
17250TIP3   OH273240   1.196   4.262  13.742 -0.1463  0.0592  0.5796
17250TIP3    H173241   1.149   4.251  13.659 -0.0731  1.5349  0.3138
17250TIP3    H273242   1.221   4.174  13.769  2.1288 -0.2453 -2.3061
17251TIP3   OH273243   5.864   4.394   0.890  0.1652  0.4129  0.3466
17251TIP3    H173244   5.871   4.484   0.860  0.0128  0.0951 -0.6572
17251TIP3    H273245   5.770   4.381   0.905 -0.0720 -0.1804 -1.4571
17252TIP3   OH273246   6.436   0.647  13.427  0.4751  0.7206  0.2774
17252TIP3    H173247   6.486   0.721  13.460 -1.2957  1.2074  1.8992
17252TIP3    H273248   6.493   0.571  13.441  1.1922  1.4117  1.1219
17253TIP3   OH273249   2.975   5.638  15.214 -0.0617  0.3772  0.8052
17253TIP3    H173250   3.069   5.649  15.228  0.3037 -2.8245  1.4503
17253TIP3    H273251   2.963   5.648  15.119  1.3678 -1.6076  0.3804
17254TIP3   OH273252   6.628   4.565   5.458  0.6619 -0.3821 -0.0667
17254TIP3    H173253   6.662   4.582   5.545 -2.6514  1.2829  0.9861
17254TIP3    H273254   6.625   4.651   5.416 -0.1211 -0.7972 -0.8858
17255TIP3   OH273255   4.219   4.447  14.977 -0.2709  0.2240 -0.5690
17255TIP3    H173256   4.182   4.449  15.066 -2.2467  2.7279 -1.3962
17255TIP3    H273257   4.306   4.408  14.988  0.1880  2.0309  2.7191
17256TIP3   OH273258   1.716   6.404   1.862 -0.0486  0.3930 -0.5074
17256TIP3    H173259   1.759   6.420   1.945 -2.0849  0.1275  0.6217
17256TIP3    H273260   1.637   6.354   1.884  0.0341 -0.8012 -2.7055
17257TIP3   OH273261   6.697   1.669  12.352  0.2843  0.0392  0.0618
17257TIP3    H173262   6.787   1.696  12.340  0.5689  0.6120  3.1387
17257TIP3    H273263   6.645   1.741  12.316  1.0500  0.6848  0.2322
17258TIP3   OH273264   0.986   5.468   4.229  0.3753 -0.5355 -0.1672
17258TIP3    H173265   1.077   5.440   4.218  0.1901 -2.0102  1.8771
17258TIP3    H273266   0.934   5.392   4.205 -0.2387 -0.6413  1.4391
17259TIP3   OH273267   6.675   4.284  17.222 -0.3402 -0.6363  0.1648
17259TIP3    H173268   6.587   4.311  17.247  0.0950 -0.6704  1.8057
17259TIP3    H273269   6.690   4.326  17.137 -2.0857 -0.9935 -0.3532
17260TIP3   OH273270   1.039   5.643  13.160 -0.2317  0.0751 -0.2724
17260TIP3    H173271   0.967   5.632  13.222  0.2439 -0.0705  0.2640
17260TIP3    H273272   1.116   5.610  13.207  0.0020 -0.7822 -1.2389
17261TIP3   OH273273   0.953   3.518  12.671  0.1458 -0.0385 -0.3206
17261TIP3    H173274   0.923   3.481  12.755  2.9310 -0.9607  0.3200
17261TIP3    H273275   0.964   3.611  12.689 -0.7721  0.0402 -0.1191
17262TIP3   OH273276   3.969   5.691  16.977 -0.2529 -0.1331  0.5005
17262TIP3    H173277   3.992   5.601  16.954  1.2151  0.1197  0.9591
17262TIP3    H273278   3.932   5.685  17.065 -3.8508 -0.8006 -0.9712
17263TIP3   OH273279   3.850   4.518  15.205  0.0829 -0.0833 -0.3031
17263TIP3    H173280   3.894   4.435  15.223  0.7412  0.3080 -0.0896
17263TIP3    H273281   3.888   4.547  15.122 -1.4761 -0.8904 -1.3383
17264TIP3   OH273282   6.080   6.459   3.613  0.3642 -0.4265 -0.0465
17264TIP3    H173283   6.112   6.382   3.660 -2.0714 -0.8495  1.0016
17264TIP3    H273284   5.987   6.463   3.634  0.0227  1.6320 -1.7530
17265TIP3   OH273285   0.578   4.790  16.444  0.5724  0.3629 -0.0448
17265TIP3    H173286   0.492   4.790  16.401  0.5814 -1.0348 -0.0784
17265TIP3    H273287   0.592   4.882  16.469 -0.4474  0.7953 -0.9919
17266TIP3   OH273288   1.076   3.573   4.782  0.2204 -0.2711 -0.5127
17266TIP3    H173289   1.001   3.516   4.797 -0.1089  0.1058 -0.7068
17266TIP3    H273290   1.047   3.659   4.812  0.9126 -0.3242  0.3198
17267TIP3   OH273291   0.004   5.447   0.659  0.2669 -0.3646 -0.2551
17267TIP3    H173292  -0.000   5.536   0.694  0.1852 -1.0900  1.6267
17267TIP3    H273293  -0.063   5.399   0.708  1.1023 -1.7356 -0.4284
17268TIP3   OH273294   0.376   1.541  15.855  0.2331 -0.0147  0.7128
17268TIP3    H173295   0.388   1.526  15.761 -1.0611 -0.1563  0.5621
17268TIP3    H273296   0.347   1.457  15.889 -0.9460  0.4801  0.9418
17269TIP3   OH273297   4.052   3.283   0.463  0.2122 -0.3212  0.3532
17269TIP3    H173298   4.023   3.358   0.411 -0.4123  0.4565  1.7633
17269TIP3    H273299   4.147   3.283   0.455  0.2464  0.9178  0.7198
17270TIP3   OH273300   6.277   2.968  12.171 -0.4695 -0.1369 -0.7760
17270TIP3    H173301   6.293   3.062  12.181 -0.3919 -0.2336  0.1246
17270TIP3    H273302   6.327   2.928  12.242  0.1792 -0.9283 -1.6775
17271TIP3   OH273303   0.607   2.974   3.767  0.5378  0.1133 -0.1127
17271TIP3    H173304   0.547   3.025   3.820 -0.4704  0.2040 -1.3085
17271TIP3    H273305   0.694   3.010   3.787 -0.0567  1.6258 -0.1872
17272TIP3   OH273306   1.699   2.316   6.001 -0.3587 -0.0780  0.5494
17272TIP3    H173307   1.653   2.353   6.077  0.5216 -0.7188  1.4208
17272TIP3    H273308   1.658   2.230   5.989 -0.2739 -0.1142  0.5185
17273TIP3   OH273309   6.486   6.628   1.673 -0.0602  0.2604 -0.9508
17273TIP3    H173310   6.415   6.625   1.737 -1.6011 -0.3589 -2.6554
17273TIP3    H273311   6.506   6.537   1.654 -0.4664  0.4450 -2.2781
17274TIP3   OH273312   1.814   4.790  13.118  0.1792  0.6658  0.0469
17274TIP3    H173313   1.797   4.821  13.207  0.0340  1.8518 -0.3829
17274TIP3    H273314   1.870   4.714  13.130  1.0281  1.4310  1.1044
17275TIP3   OH273315   1.877   6.010  16.813 -0.2543 -0.0226  0.0002
17275TIP3    H173316   1.910   5.957  16.740 -0.0567 -0.6192  0.5210
17275TIP3    H273317   1.931   5.984  16.887 -0.0978  0.9788  0.2370
17276TIP3   OH273318   0.693   3.399  14.243  0.2545 -0.3769  0.0026
17276TIP3    H173319   0.736   3.344  14.177 -0.9776 -2.3828  0.8543
17276TIP3    H273320   0.629   3.450  14.194  2.4062  1.4607 -1.0249
17277TIP3   OH273321   3.103   5.255  12.224 -1.0045  0.1191  0.4092
17277TIP3    H173322   3.008   5.271  12.228 -0.9735  0.0694  1.8461
17277TIP3    H273323   3.111   5.159  12.230 -0.8256  0.1957  1.4727
17278TIP3   OH273324   2.479   1.433  14.665 -0.2641  0.3963 -0.0379
17278TIP3    H173325   2.529   1.380  14.727  0.1176 -0.1590 -0.8073
17278TIP3    H273326   2.401   1.459  14.713  0.2169  0.2989  0.8023
17279TIP3   OH273327   2.772   3.594  15.187 -0.2882 -0.0133  0.4102
17279TIP3    H173328   2.868   3.600  15.194 -0.4237  0.2815  1.9801
17279TIP3    H273329   2.741   3.593  15.277 -1.9359  2.5794 -0.0730
17280TIP3   OH273330   1.185   0.577  17.067  0.5460 -0.3297 -0.1585
17280TIP3    H173331   1.223   0.545  17.148 -0.4964  1.4712  1.0880
17280TIP3    H273332   1.211   0.669  17.063 -1.9525  0.4151 -0.2773
17281TIP3   OH273333   0.928   2.209   5.866  0.4363 -0.5949 -0.1983
17281TIP3    H173334   0.899   2.156   5.941 -0.8585 -0.1951 -0.3974
17281TIP3    H273335   0.981   2.278   5.905 -1.1125  0.2472  0.5059
17282TIP3   OH273336   0.953   5.457  16.810  0.4097 -0.4246 -0.2160
17282TIP3    H173337   0.877   5.490  16.857 -0.1819  0.7529 -1.9397
17282TIP3    H273338   1.015   5.434  16.878 -0.3141  1.4934  1.1449
17283TIP3   OH273339   2.433   1.388   6.347  0.3274  0.4837  0.2261
17283TIP3    H173340   2.380   1.347   6.279  1.4819  1.2147 -1.1626
17283TIP3    H273341   2.382   1.378   6.427 -1.0419 -0.4469 -0.7387
17284TIP3   OH273342   4.906   0.738   3.368 -0.4850  0.1242  0.2145
17284TIP3    H173343   4.857   0.688   3.303  0.0526  0.4787 -0.4710
17284TIP3    H273344   4.884   0.696   3.451  1.3358 -2.4199 -0.5115
17285TIP3   OH273345   0.279   0.922   4.525  0.4183 -0.6334  0.4000
17285TIP3    H173346   0.240   0.910   4.611 -0.7009 -1.3179 -0.1802
17285TIP3    H273347   0.251   0.845   4.475  1.4672 -0.4936 -0.4231
17286TIP3   OH273348   3.818   1.672   1.370 -0.4396  0.4629 -0.3340
17286TIP3    H173349   3.895   1.615   1.361 -1.2051 -0.6537  0.0555
17286TIP3    H273350   3.853   1.753   1.407  0.0397 -1.4146  3.5528
17287TIP3   OH273351   4.037   5.601  12.272 -0.3587  0.2532  0.4596
17287TIP3    H173352   3.955   5.599  12.322 -0.9359 -1.5836 -0.5147
17287TIP3    H273353   4.009   5.599  12.180  0.7903 -0.2561  0.1143
17288TIP3   OH273354   6.722   3.492  11.367 -0.2920  0.5942 -0.5258
17288TIP3    H173355   6.779   3.418  11.389 -0.4261 -0.1636 -2.6425
17288TIP3    H273356   6.783   3.565  11.353 -0.0193  0.4278 -0.2058
17289TIP3   OH273357   1.184   3.375   0.431  0.1183  0.1415 -0.4345
17289TIP3    H173358   1.262   3.351   0.480 -0.9328  1.4253  1.9516
17289TIP3    H273359   1.214   3.384   0.341  2.3630 -0.9862  0.1622
17290TIP3   OH273360   4.597   1.243  12.933  0.1213 -0.0380  0.2446
17290TIP3    H173361   4.553   1.158  12.930  1.6111 -0.7773 -2.7154
17290TIP3    H273362   4.595   1.274  12.842 -0.7560  3.2938  1.3597
17291TIP3   OH273363   1.005   1.680   5.090 -0.0577  0.1838  0.1620
17291TIP3    H173364   1.022   1.771   5.066  0.6290  0.4446  1.5198
17291TIP3    H273365   1.057   1.668   5.170 -0.1916 -1.3820  0.0134
17292TIP3   OH273366   3.288   3.974  13.311 -0.2422  0.3344 -0.0867
17292TIP3    H173367   3.330   4.036  13.251 -1.3277  0.5995 -0.5802
17292TIP3    H273368   3.339   3.893  13.300  1.1445  1.1136  0.5319
17293TIP3   OH273369   5.578   6.171  15.613  0.3029 -0.6872  0.0927
17293TIP3    H173370   5.620   6.251  15.643  0.6752 -0.8681  0.0555
17293TIP3    H273371   5.566   6.183  15.519 -0.8772 -0.1124  0.3000
17294TIP3   OH273372   1.221   2.295  14.060  0.1150 -0.4881 -0.4533
17294TIP3    H173373   1.130   2.272  14.041 -0.7159  1.5015  0.9812
17294TIP3    H273374   1.225   2.390  14.046  1.6841 -0.3767  0.6214
17295TIP3   OH273375   1.224   2.387  12.553 -0.6668 -0.2765 -0.3007
17295TIP3    H173376   1.311   2.393  12.514 -0.5044 -1.4428 -0.1623
17295TIP3    H273377   1.174   2.337  12.489 -0.6075 -1.5544  0.6305
17296TIP3   OH273378   1.431   3.030   0.091  0.3725  0.3830  0.3352
17296TIP3    H173379   1.518   3.055   0.060  0.3685 -1.3037 -1.0770
17296TIP3    H273380   1.370   3.073   0.031  0.2313  0.9974  0.9064
17297TIP3   OH273381   5.848   4.356  16.382 -0.1459 -0.7268 -0.1654
17297TIP3    H173382   5.762   4.339  16.343 -0.2966  0.7261 -0.4960
17297TIP3    H273383   5.851   4.298  16.459 -1.0245 -1.4831 -0.6865
17298TIP3   OH273384   6.582   1.379  16.725  0.5329  0.0095 -0.0338
17298TIP3    H173385   6.631   1.332  16.793 -0.4690 -0.6796  0.2272
17298TIP3    H273386   6.609   1.339  16.643 -0.1521 -0.8926  0.1709
17299TIP3   OH273387   6.783   0.459  13.639  0.3416 -0.7708  0.4440
17299TIP3    H173388   6.712   0.423  13.585 -0.8050  0.7226  0.8893
17299TIP3    H273389   6.754   0.548  13.658  1.9829 -0.4134  1.3265
17300TIP3   OH273390   1.830   5.213  11.956  0.1011 -0.0421 -0.2594
17300TIP3    H173391   1.737   5.214  11.935  0.2143  0.4686 -0.7469
17300TIP3    H273392   1.873   5.192  11.873  0.4064 -0.5057  0.0164
17301TIP3   OH273393   2.684   2.688  15.554  0.4367  0.3559  0.3215
17301TIP3    H173394   2.640   2.634  15.488  0.9573 -0.6545  0.7915
17301TIP3    H273395   2.653   2.777  15.537 -1.8900 -0.3482  0.7195
17302TIP3   OH273396   3.570   6.772  13.602  1.0475 -0.3780  0.5904
17302TIP3    H173397   3.629   6.793  13.529 -0.2369 -1.2436 -0.7198
17302TIP3    H273398   3.629   6.757  13.676  2.4057  0.0816 -0.3640
17303TIP3   OH273399   0.637   3.189  15.698  0.0861 -0.1310 -0.0889
17303TIP3    H173400   0.604   3.159  15.782  0.8877 -0.3250  0.1659
17303TIP3    H273401   0.719   3.233  15.719  0.6194 -0.7489 -0.8363
17304TIP3   OH273402   3.939   4.108  12.296 -0.5502  0.4121 -0.0331
17304TIP3    H173403   4.030   4.134  12.277  0.2152 -1.1877  1.3057
17304TIP3    H273404   3.902   4.088  12.210  1.0127 -0.9093 -0.4366
17305TIP3   OH273405   6.512   5.398   1.247 -0.1196 -0.4648 -0.6501
17305TIP3    H173406   6.524   5.446   1.165 -0.6887 -0.6806 -0.8685
17305TIP3    H273407   6.432   5.436   1.285 -0.4785 -1.1165 -0.7450
17306TIP3   OH273408   6.532   1.914  13.849 -0.2790 -0.2961 -0.3010
17306TIP3    H173409   6.605   1.976  13.850 -1.2858  0.9180  1.0342
17306TIP3    H273410   6.559   1.845  13.789  2.0926 -0.0290  0.4282
17307TIP3   OH273411   5.617   4.727  15.165  0.3463  0.4474 -0.0201
17307TIP3    H173412   5.708   4.723  15.194  0.4886  0.0965 -0.5070
17307TIP3    H273413   5.594   4.819  15.167  1.2981  0.7350 -1.7186
17308TIP3   OH273414   0.688   4.478  12.999  0.2632  0.4049  0.5595
17308TIP3    H173415   0.648   4.544  12.944  0.1370  0.8050  1.1301
17308TIP3    H273416   0.782   4.490  12.987  0.2210 -0.5905 -0.8456
17309TIP3   OH273417   0.106   3.472   1.146  0.5979  0.1004 -0.2985
17309TIP3    H173418   0.044   3.438   1.083 -0.1135  0.9440 -0.0642
17309TIP3    H273419   0.090   3.567   1.148 -0.7656 -0.1389  2.6027
17310TIP3   OH273420   0.141   4.942   4.596 -0.2336  0.0277  0.1933
17310TIP3    H173421   0.148   5.004   4.524 -2.4633  0.2813  0.1503
17310TIP3    H273422   0.179   4.987   4.671  1.6633 -0.0552 -0.6788
17311TIP3   OH273423   4.173   2.222  13.249 -0.1111 -0.3636 -0.0113
17311TIP3    H173424   4.190   2.197  13.158 -0.2978  0.9213 -0.4021
17311TIP3    H273425   4.255   2.261  13.279  0.4436 -2.1254  0.8560
17312TIP3   OH273426   5.636   1.429  15.947  0.0146 -0.1841  0.0320
17312TIP3    H173427   5.605   1.343  15.979 -0.3931  0.0135  0.1732
17312TIP3    H273428   5.626   1.424  15.852  0.9920 -0.6834 -0.0508
17313TIP3   OH273429   5.377   4.781   2.075 -0.3044  0.0564 -0.0013
17313TIP3    H173430   5.336   4.781   1.988  1.7204 -1.2984 -0.9921
17313TIP3    H273431   5.471   4.785   2.057  0.0617  2.9879  2.2157
17314TIP3   OH273432   3.017   6.057  13.407 -0.0221 -0.5144 -0.3237
17314TIP3    H173433   3.042   5.973  13.447 -0.3261 -0.7374 -0.5954
17314TIP3    H273434   2.925   6.069  13.433 -0.0803 -0.4317 -0.5673
17315TIP3   OH273435   0.512   0.201  13.426 -0.3092  0.4688  0.0738
17315TIP3    H173436   0.563   0.143  13.369 -2.4608 -0.8153 -0.5744
17315TIP3    H273437   0.423   0.195  13.394 -1.7012 -0.6903  3.8372
17316TIP3   OH273438   0.370   6.552   3.722 -0.1886  0.5511  0.7021
17316TIP3    H173439   0.465   6.551   3.740 -0.2121 -1.6069  0.8153
17316TIP3    H273440   0.359   6.493   3.648 -1.5911 -0.1156  1.4375
17317TIP3   OH273441   1.550   1.805   5.267 -0.2901 -0.0479  0.2321
17317TIP3    H173442   1.501   1.787   5.348 -1.2163 -0.4624 -0.4088
17317TIP3    H273443   1.619   1.865   5.294 -1.0988  0.4778  1.1854
17318TIP3   OH273444   3.988   5.070  12.744 -0.1493 -0.3175  0.7877
17318TIP3    H173445   4.010   5.151  12.698  2.6427 -1.4638 -0.0098
17318TIP3    H273446   3.896   5.054  12.722 -0.5857  2.3081  0.5288
17319TIP3   OH273447   1.178   5.670  16.863  0.3918  0.3321  0.5448
17319TIP3    H173448   1.194   5.581  16.895  1.3398  0.8723  1.5982
17319TIP3    H273449   1.206   5.668  16.771 -1.4296 -0.9641 -0.0053
17320TIP3   OH273450   4.330   4.526  15.775  0.3885 -0.6110  0.0048
17320TIP3    H173451   4.277   4.521  15.855 -0.1179 -0.2955 -0.3066
17320TIP3    H273452   4.394   4.595  15.793 -0.3719  0.1733 -0.2308
17321TIP3   OH273453   3.433   6.074  13.044  0.3752  0.8231  0.8841
17321TIP3    H173454   3.427   5.998  12.985  0.9289  0.3911  1.3750
17321TIP3    H273455   3.349   6.074  13.091  1.0724 -0.5450  2.1526
17322TIP3   OH273456   6.195   2.075  12.724  0.1604 -0.5538  0.3340
17322TIP3    H173457   6.210   2.034  12.638  1.6828 -0.8460  0.7201
17322TIP3    H273458   6.204   2.003  12.786 -2.1015 -0.5688  0.6809
17323TIP3   OH273459   2.640   1.851   2.691  0.2504 -0.2115  0.2661
17323TIP3    H173460   2.694   1.772   2.680  0.4693  0.0911 -0.8908
17323TIP3    H273461   2.644   1.869   2.785  0.0319 -1.6965  0.5753
17324TIP3   OH273462   1.019   5.431   4.881 -0.4614  0.2913 -0.0773
17324TIP3    H173463   0.973   5.348   4.894 -0.5060 -0.0091 -2.0122
17324TIP3    H273464   1.070   5.443   4.962  0.5176 -2.2534 -0.2602
17325TIP3   OH273465   3.880   5.440  15.604 -0.5083 -0.1715  0.3678
17325TIP3    H173466   3.916   5.381  15.538 -2.3152 -1.5831  0.6032
17325TIP3    H273467   3.944   5.439  15.675 -1.2135 -3.1022  1.0338
17326TIP3   OH273468   3.635   0.314  15.855  0.0724 -0.2338 -0.9233
17326TIP3    H173469   3.544   0.340  15.868  0.7210  1.0251  1.6352
17326TIP3    H273470   3.631   0.225  15.822 -2.0886 -0.3590 -0.3755
17327TIP3   OH273471   0.339   3.772  12.858  0.2816  0.2144 -0.3328
17327TIP3    H173472   0.274   3.817  12.912  0.0870  0.0110 -0.3987
17327TIP3    H273473   0.416   3.764  12.915  0.9229  2.1762 -0.8733
17328TIP3   OH273474   0.661   2.850  13.014  0.5058 -0.5311  0.1199
17328TIP3    H173475   0.635   2.910  13.084 -1.8349  2.1852 -2.9839
17328TIP3    H273476   0.752   2.873  12.996  0.6005 -0.0957  1.0814
17329TIP3   OH273477   1.597   3.388   3.731 -0.1648 -0.2122  0.1255
17329TIP3    H173478   1.597   3.302   3.688 -0.7024  0.7808 -1.9019
17329TIP3    H273479   1.674   3.432   3.694  0.1205  0.1721  1.1817
17330TIP3   OH273480   6.417   4.245   0.876 -0.2976  0.2997  0.0228
17330TIP3    H173481   6.384   4.325   0.917  1.3018  1.1149 -0.2358
17330TIP3    H273482   6.345   4.216   0.820 -1.0453  1.3415  0.4254
17331TIP3   OH273483   6.097   3.296   6.115 -0.5813  0.0464  0.2564
17331TIP3    H173484   6.056   3.348   6.184 -0.0813 -1.0117  1.3489
17331TIP3    H273485   6.190   3.313   6.124 -0.4854 -0.3966  0.0790
17332TIP3   OH273486   3.977   6.659  13.168  0.0471  0.4842  0.0344
17332TIP3    H173487   4.037   6.699  13.231  0.5733 -0.2908  0.0264
17332TIP3    H273488   4.022   6.580  13.139 -0.6668  0.2785 -0.5127
17333TIP3   OH273489   2.677   0.099  12.085  0.0725 -0.2410 -0.0550
17333TIP3    H173490   2.658   0.005  12.084 -0.3560 -0.1513 -0.3832
17333TIP3    H273491   2.659   0.126  12.175  0.8417 -0.6030  0.2121
17334TIP3   OH273492   3.278   5.892   3.623  0.0075  0.3341 -0.3652
17334TIP3    H173493   3.323   5.952   3.682  0.7045  0.6759 -1.2347
17334TIP3    H273494   3.275   5.809   3.670 -0.7782  0.9901  0.7663
17335TIP3   OH273495   0.344   0.557  12.573  0.1335 -0.1702  0.4543
17335TIP3    H173496   0.382   0.531  12.489 -0.8716  0.7467 -0.2886
17335TIP3    H273497   0.363   0.484  12.632 -0.3114 -1.3821 -0.9047
17336TIP3   OH273498   1.709   0.277   0.380  0.5073 -0.1466 -0.0977
17336TIP3    H173499   1.765   0.206   0.349  0.1342 -0.8427  0.8009
17336TIP3    H273500   1.733   0.352   0.326  0.4706 -1.1122 -1.4617
17337TIP3   OH273501   3.698   6.258   1.227  0.5551  0.5399  0.1982
17337TIP3    H173502   3.679   6.174   1.268 -0.8523  2.2919  3.2754
17337TIP3    H273503   3.620   6.312   1.244  2.4918  3.3191  0.5881
17338TIP3   OH273504   6.051   2.879  14.572  0.2455 -0.5135  0.0494
17338TIP3    H173505   6.072   2.847  14.484  1.3197  0.1608  0.0512
17338TIP3    H273506   6.030   2.972  14.560 -0.5651 -0.6472  0.3762
17339TIP3   OH273507   5.831   4.022   4.232  0.5762 -0.4142  0.3343
17339TIP3    H173508   5.878   3.985   4.157  0.0465 -0.8087  0.1885
17339TIP3    H273509   5.765   4.078   4.193  1.5610  0.9297  0.5661
17340TIP3   OH273510   4.300   4.908   4.179 -0.0959  0.1541  0.3400
17340TIP3    H173511   4.275   4.942   4.265  0.1769  1.2968 -0.0303
17340TIP3    H273512   4.353   4.977   4.140  1.7225 -1.2828  0.1647
17341TIP3   OH273513   3.139   6.701   1.886 -0.2618  0.8423  0.0629
17341TIP3    H173514   3.219   6.651   1.903  0.4529  1.4307 -1.4454
17341TIP3    H273515   3.148   6.781   1.937  0.9582  1.7258 -1.5241
17342TIP3   OH273516   4.665   0.753   0.776  0.1671  0.1154 -0.0916
17342TIP3    H173517   4.626   0.827   0.821  0.1391 -0.0992  0.2407
17342TIP3    H273518   4.616   0.745   0.695 -1.3191 -0.9340  0.8909
17343TIP3   OH273519   5.095   1.893   3.921 -0.5788 -0.0990 -0.0779
17343TIP3    H173520   5.076   1.955   3.992  1.3244 -0.2444  0.6009
17343TIP3    H273521   5.104   1.808   3.966 -0.1259 -0.3229 -0.5872
17344TIP3   OH273522   4.362   4.669  11.830  0.0489  0.1751 -0.6968
17344TIP3    H173523   4.349   4.625  11.914  0.4345 -1.1024 -1.2945
17344TIP3    H273524   4.290   4.637  11.775 -1.2440  2.3618 -0.3268
17345TIP3   OH273525   1.987   1.101   0.724 -0.6300 -0.1926  0.6417
17345TIP3    H173526   1.944   1.176   0.684  0.6869 -0.3562 -1.1557
17345TIP3    H273527   2.030   1.136   0.802  2.0726  1.4929 -1.5069
17346TIP3   OH273528   0.413   4.966  14.120  0.1730 -0.1335  0.4873
17346TIP3    H173529   0.376   5.054  14.117  0.8000  0.1762  1.3865
17346TIP3    H273530   0.483   4.968  14.054 -1.1597 -0.6173 -0.9756
17347TIP3   OH273531   5.112   3.613  14.722 -0.2155 -0.6414 -0.0037
17347TIP3    H173532   5.184   3.674  14.735 -1.7469  0.9461  1.2657
17347TIP3    H273533   5.076   3.636  14.636 -0.4062 -0.1595  0.2054
17348TIP3   OH273534   1.625   5.198  15.950 -0.4016 -0.0280  0.1847
17348TIP3    H173535   1.571   5.194  16.028  0.6162  0.9957  0.9538
17348TIP3    H273536   1.607   5.116  15.904 -1.1608 -0.5316  1.3733
17349TIP3   OH273537   0.022   5.491  14.037 -0.4528  0.1844  0.2318
17349TIP3    H173538   0.021   5.498  14.132  2.0976 -0.7453  0.3777
17349TIP3    H273539  -0.023   5.570  14.006 -0.0978  1.1746  2.1784
17350TIP3   OH273540   1.053   1.161  15.269  0.4664 -0.6143  0.1910
17350TIP3    H173541   1.144   1.138  15.251  0.4378  0.6550 -1.7288
17350TIP3    H273542   1.057   1.215  15.348  1.2147 -1.6948  0.9033
17351TIP3   OH273543   3.055   6.641   4.798  0.0720  0.1663  0.0973
17351TIP3    H173544   2.979   6.667   4.851  0.9119  1.4771  0.6957
17351TIP3    H273545   3.127   6.636   4.861  0.2904 -2.1382 -0.2690
17352TIP3   OH273546   3.928   2.704   2.728 -0.1916 -0.1710 -0.5111
17352TIP3    H173547   3.917   2.797   2.743 -0.1565 -0.3698  0.7929
17352TIP3    H273548   3.897   2.662   2.809  0.0083 -1.2724 -0.9872
17353TIP3   OH273549   6.407   6.769   1.073  0.3678  0.2467  0.5296
17353TIP3    H173550   6.445   6.764   1.161 -2.4924 -1.2942  1.7458
17353TIP3    H273551   6.461   6.710   1.021  1.3956  0.2785  1.5305
17354TIP3   OH273552   6.116   4.461   2.722  0.1180  0.4374 -0.1450
17354TIP3    H173553   6.043   4.426   2.671 -0.6037  0.7281  0.6870
17354TIP3    H273554   6.189   4.402   2.701 -0.3845  0.0516 -0.8563
17355TIP3   OH273555   2.687   0.717  11.369 -0.5534  0.1300 -0.1416
17355TIP3    H173556   2.743   0.692  11.443 -1.1989 -1.4427 -0.1735
17355TIP3    H273557   2.720   0.803  11.343  0.3585  0.2474  1.3063
17356TIP3   OH273558   1.172   5.741  11.702  0.1898 -0.4876 -0.1221
17356TIP3    H173559   1.232   5.779  11.767 -0.0551 -2.0476  1.0223
17356TIP3    H273560   1.086   5.775  11.725 -0.2592 -2.8427  1.7899
17357TIP3   OH273561   4.140   3.322  10.968 -0.1229 -0.2951 -0.2357
17357TIP3    H173562   4.157   3.269  10.890 -1.0702 -1.2859  0.2143
17357TIP3    H273563   4.064   3.375  10.944 -1.6145 -1.9693  0.6325
17358TIP3   OH273564   2.840   4.835  13.797  0.0833  0.2942  0.0654
17358TIP3    H173565   2.767   4.833  13.735  1.2160 -0.8472 -1.2620
17358TIP3    H273566   2.858   4.928  13.809  0.0023  0.5252 -1.4933
17359TIP3   OH273567   6.695   0.622  14.836 -0.3306  0.1113  0.4921
17359TIP3    H173568   6.736   0.542  14.868 -0.0951  0.5181  1.2112
17359TIP3    H273569   6.729   0.631  14.746  0.6656  0.1009  0.8584
17360TIP3   OH273570   6.577   4.392  13.445 -0.6199  0.1054  0.6577
17360TIP3    H173571   6.596   4.397  13.539 -1.6115 -1.1955  0.9338
17360TIP3    H273572   6.541   4.304  13.432 -1.3008  0.5810 -0.7955
17361TIP3   OH273573   0.059   2.482   2.347 -0.0283  0.1906 -0.0045
17361TIP3    H173574   0.025   2.392   2.349 -1.2673  0.6940  2.4916
17361TIP3    H273575   0.089   2.499   2.436  1.7834  1.7019 -0.8459
17362TIP3   OH273576   2.318   4.575   2.970  0.4237  0.3529  0.3176
17362TIP3    H173577   2.268   4.628   3.032 -2.0033 -0.1515 -1.1476
17362TIP3    H273578   2.306   4.619   2.886  1.0302 -0.7256 -0.3462
17363TIP3   OH273579   6.311   2.174  15.429 -0.3462 -0.3966  0.2905
17363TIP3    H173580   6.334   2.110  15.497 -2.3334  0.7683  2.1068
17363TIP3    H273581   6.302   2.257  15.475  1.2229  1.0554 -1.8957
17364TIP3   OH273582   6.664   1.418   5.878 -0.7918  0.5660  0.6591
17364TIP3    H173583   6.692   1.384   5.962 -0.5667  1.0999  0.8032
17364TIP3    H273584   6.610   1.494   5.900 -0.7296  0.7094  0.3227
17365TIP3   OH273585   4.762   0.430   5.306  0.0379 -0.1632 -0.4795
17365TIP3    H173586   4.840   0.466   5.349  0.6416 -0.5433 -1.2210
17365TIP3    H273587   4.688   0.472   5.349  0.6323 -0.3904  0.7844
17366TIP3   OH273588   6.694   2.484  14.591 -0.3063 -0.0138  0.2045
17366TIP3    H173589   6.604   2.473  14.619 -0.3872 -0.3073 -0.1582
17366TIP3    H273590   6.690   2.544  14.516 -0.2839 -0.6018 -0.2746
17367TIP3   OH273591   3.764   1.220   0.605  0.3274  0.1337  0.2061
17367TIP3    H173592   3.776   1.248   0.514  2.5532  0.6232  0.6410
17367TIP3    H273593   3.686   1.267   0.634  0.8134  1.5879 -0.7993
17368TIP3   OH273594   5.721   5.359  11.820 -0.4413  0.2225  0.2893
17368TIP3    H173595   5.816   5.358  11.807 -0.0042 -2.3184  3.0337
17368TIP3    H273596   5.687   5.294  11.759 -0.5537  1.7678 -1.3287
17369TIP3   OH273597   0.538   2.736  14.002  0.0977 -0.1719  0.4615
17369TIP3    H173598   0.461   2.791  14.014  1.0641  1.0753  0.9252
17369TIP3    H273599   0.592   2.752  14.079  2.0908  1.0135 -1.1545
17370TIP3   OH273600   4.413   3.565  14.539  0.7589  0.2877  0.2248
17370TIP3    H173601   4.441   3.625  14.608 -0.6919  0.1592  0.9632
17370TIP3    H273602   4.493   3.542  14.493  1.8378  0.0292  2.1609
17371TIP3   OH273603   1.287   2.249  14.404 -0.3498  0.3825 -0.0544
17371TIP3    H173604   1.348   2.235  14.332 -1.1969 -1.4463 -0.4393
17371TIP3    H273605   1.261   2.341  14.396  1.1882  0.7730 -0.7837
17372TIP3   OH273606   5.989   0.765  13.245 -0.0708 -0.8788  0.3637
17372TIP3    H173607   6.069   0.815  13.226 -0.4123  0.5509  2.5226
17372TIP3    H273608   5.987   0.698  13.177  1.9896  0.2011 -0.8417
17373TIP3   OH273609   6.264   1.718   2.681  0.3477 -0.0283 -0.0562
17373TIP3    H173610   6.205   1.747   2.610 -0.3383 -1.4509 -0.0852
17373TIP3    H273611   6.270   1.623   2.669 -0.0692 -0.3361  2.0144
17374TIP3   OH273612   0.222   0.805   2.022 -0.2609 -0.5003 -0.7497
17374TIP3    H173613   0.270   0.724   2.007  2.3723  0.9688 -0.6097
17374TIP3    H273614   0.150   0.781   2.080  0.1143 -2.8267 -1.2245
17375TIP3   OH273615   3.736   0.197  13.820  0.4831 -0.0753  0.2360
17375TIP3    H173616   3.827   0.223  13.832  0.8186 -0.5529 -1.1269
17375TIP3    H273617   3.740   0.102  13.806 -0.3123 -0.2339  1.0677
17376TIP3   OH273618   0.306   1.888  14.398 -0.3840  0.4715 -0.4069
17376TIP3    H173619   0.307   1.959  14.334  0.3943 -0.5409 -1.5337
17376TIP3    H273620   0.303   1.808  14.346  0.4256 -0.3776  0.8134
17377TIP3   OH273621   5.271   3.021   2.059  0.7418 -0.5477  0.2287
17377TIP3    H173622   5.226   3.106   2.057 -0.4247 -1.1664 -0.0866
17377TIP3    H273623   5.282   2.997   1.967  1.3737 -0.5857  0.3113
17378TIP3   OH273624   5.724   1.936   0.599  0.7773 -0.4754  0.3770
17378TIP3    H173625   5.746   1.848   0.569  0.3616 -0.0863 -1.1126
17378TIP3    H273626   5.629   1.940   0.591  0.7973  0.1003  0.4525
17379TIP3   OH273627   5.774   5.736  14.416  0.7790 -0.6872 -0.3894
17379TIP3    H173628   5.703   5.799  14.422  1.5793  0.3602 -1.7110
17379TIP3    H273629   5.817   5.739  14.502 -0.7971 -1.4032  0.4496
17380TIP3   OH273630   6.711   2.051   3.781 -0.4984 -0.5754  0.1418
17380TIP3    H173631   6.686   2.143   3.770 -0.5296 -0.7056 -1.0133
17380TIP3    H273632   6.800   2.055   3.816 -0.5413 -0.1054  0.2078
17381TIP3   OH273633   1.856   5.490  12.347  0.2554 -0.2769  0.5013
17381TIP3    H173634   1.905   5.518  12.269  1.0258 -1.2788  0.6176
17381TIP3    H273635   1.800   5.565  12.368  1.0584  0.5347 -0.1994
17382TIP3   OH273636   2.888   5.596  14.478  0.1962  0.0266 -0.1582
17382TIP3    H173637   2.918   5.675  14.435  1.4477 -0.7083 -0.6504
17382TIP3    H273638   2.797   5.615  14.503 -0.1449  0.9083 -1.9973
17383TIP3   OH273639   6.380   1.942  14.097 -0.8211  0.0031  0.2916
17383TIP3    H173640   6.409   1.937  14.005 -0.1730  2.6842  0.2984
17383TIP3    H273641   6.429   1.873  14.141  0.6657  0.2108 -0.9695
17384TIP3   OH273642   4.970   5.245   5.383 -0.0485 -0.6084  0.1534
17384TIP3    H173643   4.939   5.155   5.370 -1.8123 -0.3591  2.2542
17384TIP3    H273644   4.904   5.299   5.339 -1.8548 -0.1455  3.2893
17385TIP3   OH273645   5.163   4.252  16.960  0.3183  0.2642  0.1242
17385TIP3    H173646   5.221   4.229  17.032 -1.7094 -1.0920  1.4103
17385TIP3    H273647   5.112   4.327  16.993 -0.0899  0.1178 -0.1624
17386TIP3   OH273648   1.862   0.993   3.619  0.7146 -1.1606  0.3570
17386TIP3    H173649   1.897   1.044   3.546  0.1151  0.0985  0.9479
17386TIP3    H273650   1.838   1.058   3.685 -2.4724 -1.9891  0.0951
17387TIP3   OH273651   4.278   0.098  15.402 -0.4043 -0.2704 -0.7113
17387TIP3    H173652   4.194   0.144  15.405  0.0460  0.4875  1.2712
17387TIP3    H273653   4.334   0.155  15.348 -0.3835  0.6064  0.2162
17388TIP3   OH273654   4.932   6.138   1.104  0.0879  0.1755  0.4459
17388TIP3    H173655   4.993   6.066   1.091  1.1573  1.0097  0.7467
17388TIP3    H273656   4.860   6.121   1.043  0.0766 -1.4075  0.8973
17389TIP3   OH273657   2.592   3.051  16.210  0.0123  0.4226  0.0944
17389TIP3    H173658   2.517   3.075  16.155  0.6659  1.0026 -0.5544
17389TIP3    H273659   2.600   2.956  16.200  0.1847  0.5389 -0.8955
17390TIP3   OH273660   3.418   0.525   2.173  0.0679  0.4591  0.0215
17390TIP3    H173661   3.352   0.540   2.241 -0.0229 -1.3681  0.3519
17390TIP3    H273662   3.401   0.594   2.108 -0.0404  2.0308  1.6833
17391TIP3   OH273663   5.953   1.218   4.409  0.0371 -0.5615  0.2242
17391TIP3    H173664   6.044   1.217   4.438 -0.3695 -0.5801  1.5143
17391TIP3    H273665   5.902   1.214   4.489 -1.1153 -0.0813 -0.4726
17392TIP3   OH273666   5.800   6.098   5.089 -0.0988 -0.6218 -0.5073
17392TIP3    H173667   5.846   6.173   5.051  0.0975 -1.1649 -1.3702
17392TIP3    H273668   5.823   6.024   5.032 -3.3729 -0.5967 -2.0096
17393TIP3   OH273669   6.558   2.466  12.889  0.5803  0.5020  0.2238
17393TIP3    H173670   6.547   2.391  12.829 -0.5231 -0.1322  1.1991
17393TIP3    H273671   6.646   2.455  12.925  0.2218 -0.6403  0.7691
17394TIP3   OH273672   2.197   6.227  16.606 -0.1671 -0.0963 -0.2316
17394TIP3    H173673   2.184   6.155  16.545 -2.9857 -0.3388  0.5652
17394TIP3    H273674   2.291   6.243  16.606  0.1298 -1.7085 -2.7547
17395TIP3   OH273675   0.178   5.292  13.484  0.6362  0.1609 -0.0021
17395TIP3    H173676   0.234   5.244  13.423 -0.9077 -1.0280 -0.5229
17395TIP3    H273677   0.188   5.245  13.567  1.0837  0.4852  0.1304
17396TIP3   OH273678   3.488   1.615   0.700 -0.2606  0.3342 -0.2976
17396TIP3    H173679   3.572   1.633   0.657 -0.1820 -0.8679 -0.6657
17396TIP3    H273680   3.425   1.672   0.655 -0.1446 -0.7873 -1.8956
17397TIP3   OH273681   4.507   1.958  13.384  0.1491  0.0182 -0.2834
17397TIP3    H173682   4.591   1.929  13.422 -0.2165  0.8257  1.2100
17397TIP3    H273683   4.513   1.936  13.292  2.6928  1.5375 -0.5226
17398TIP3   OH273684   6.491   5.037  16.391 -0.5031  0.8354 -0.5234
17398TIP3    H173685   6.531   5.044  16.304 -1.2358 -0.1995 -0.9547
17398TIP3    H273686   6.408   4.992  16.376 -0.8982  1.1547  0.6410
17399TIP3   OH273687   5.563   3.064   5.543  0.1431  0.1039  0.0319
17399TIP3    H173688   5.625   3.133   5.519 -1.2659  1.0632 -0.8938
17399TIP3    H273689   5.507   3.054   5.466  0.7126 -2.5205 -0.0976
17400TIP3   OH273690   1.101   3.502   2.653  0.0330 -0.0223  0.9812
17400TIP3    H173691   1.131   3.476   2.566  2.5684  1.7693  1.2715
17400TIP3    H273692   1.029   3.562   2.637  0.4133  0.2028  0.1120
17401TIP3   OH273693   0.914   3.978  16.156  0.3639 -0.2490  0.4542
17401TIP3    H173694   0.835   3.966  16.209 -0.2530 -0.8705 -0.5806
17401TIP3    H273695   0.887   4.037  16.085  0.8409 -0.4311  0.1165
17402TIP3   OH273696   5.199   1.071   2.806  0.4063 -0.1064 -0.1491
17402TIP3    H173697   5.273   1.124   2.837  0.3316 -0.0174 -0.1203
17402TIP3    H273698   5.227   0.981   2.818  0.9695 -0.0842 -1.1946
17403TIP3   OH273699   6.705   1.827  11.106 -0.0671  0.5155  0.9118
17403TIP3    H173700   6.766   1.865  11.170  0.6584  2.9841 -1.1707
17403TIP3    H273701   6.638   1.894  11.095 -0.9104 -0.4585  0.0541
17404TIP3   OH273702   0.294   6.387   3.495  0.0133  0.0005  0.2034
17404TIP3    H173703   0.236   6.359   3.566 -1.0745 -1.5766 -1.2964
17404TIP3    H273704   0.258   6.348   3.416  2.8391 -0.6061 -0.8533
17405TIP3   OH273705   2.713   4.547  13.264 -0.3378 -0.6050  0.0385
17405TIP3    H173706   2.718   4.479  13.331 -1.1759  0.1039  0.8561
17405TIP3    H273707   2.661   4.616  13.305 -0.0424  0.2541 -1.0051
17406TIP3   OH273708   2.668   5.513  14.734 -0.7633  0.0872 -0.5077
17406TIP3    H173709   2.657   5.459  14.656  0.7479 -0.8419 -0.1078
17406TIP3    H273710   2.600   5.483  14.794 -0.6870 -0.5603 -0.7411
17407TIP3   OH273711   4.997   2.849  17.210  0.1354  0.4791  0.0395
17407TIP3    H173712   4.909   2.847  17.250 -0.2276  3.6764 -0.4315
17407TIP3    H273713   4.992   2.921  17.147  2.4062 -0.8770 -1.7376
17408TIP3   OH273714   1.439   6.814  10.780 -0.2894 -0.0176 -0.0383
17408TIP3    H173715   1.351   6.841  10.809 -0.6731 -0.0133 -1.1903
17408TIP3    H273716   1.497   6.848  10.848 -1.0195  1.4327 -0.1014
17409TIP3   OH273717   6.588   1.948  16.085  0.3331 -0.2328 -0.9618
17409TIP3    H173718   6.572   2.032  16.042  0.8063  0.5140  0.2911
17409TIP3    H273719   6.515   1.938  16.145  2.0146  0.9528  1.3709
17410TIP3   OH273720   6.783   0.998   2.805 -0.0363 -0.3835 -0.3388
17410TIP3    H173721   6.788   1.077   2.859 -0.4056 -0.1749 -0.6019
17410TIP3    H273722   6.862   1.001   2.751  0.0333 -0.2757 -0.2326
17411TIP3   OH273723   0.136   4.078  14.180  0.2725 -0.1693 -0.2395
17411TIP3    H173724   0.222   4.036  14.173  0.6864  0.8198 -1.1638
17411TIP3    H273725   0.103   4.080  14.090 -0.2101  0.5075 -0.0503
17412TIP3   OH273726   3.318   2.378   3.591  0.1719 -0.1441  0.6005
17412TIP3    H173727   3.305   2.315   3.662  0.2651  0.8045  1.4663
17412TIP3    H273728   3.320   2.324   3.512  2.0557 -1.4489  1.4850
17413TIP3   OH273729   0.864   0.366  17.165  0.1534  0.5447  0.8041
17413TIP3    H173730   0.798   0.297  17.166  0.6613  0.0694  2.1227
17413TIP3    H273731   0.929   0.337  17.101 -0.6735  0.8078 -0.1785
17414TIP3   OH273732   3.430   1.353  14.408 -0.8439 -0.0052  0.0083
17414TIP3    H173733   3.479   1.357  14.325 -0.4128 -0.2104  0.2557
17414TIP3    H273734   3.496   1.359  14.476 -0.9854 -2.0437  0.3702
17415TIP3   OH273735   1.494   1.609  15.956  0.0232 -0.4502 -0.4259
17415TIP3    H173736   1.541   1.676  15.907 -0.7072  0.3631 -0.0254
17415TIP3    H273737   1.421   1.656  15.996  0.9279 -0.9716  1.9109
17416TIP3   OH273738   3.553   1.353  14.072  0.4370  0.7167 -0.4474
17416TIP3    H173739   3.550   1.447  14.054  0.4315  1.4048  2.9203
17416TIP3    H273740   3.467   1.332  14.109  0.2264 -0.7597 -1.7089
17417TIP3   OH273741   1.804   4.332  16.348 -0.1578  0.1995  0.2882
17417TIP3    H173742   1.795   4.370  16.261 -1.7282  1.3146  0.9199
17417TIP3    H273743   1.875   4.382  16.389  0.5080 -0.2531 -0.2974
17418TIP3   OH273744   5.252   1.908  13.875 -0.0255 -0.5410  0.6832
17418TIP3    H173745   5.158   1.921  13.882 -0.1773  0.0989 -1.9139
17418TIP3    H273746   5.286   1.995  13.851  0.9715 -1.1802 -0.2961
17419TIP3   OH273747   0.578   1.496  15.030 -0.1881 -0.0473  0.3611
17419TIP3    H173748   0.674   1.502  15.035 -0.2853  0.8203  1.7241
17419TIP3    H273749   0.560   1.404  15.011  0.9484  0.0251 -1.1458
17420TIP3   OH273750   1.081   2.638  15.261  0.7768 -0.6918  0.9873
17420TIP3    H173751   1.049   2.728  15.262  0.2841 -0.8613  0.6346
17420TIP3    H273752   1.109   2.622  15.351  0.4360 -0.3393  1.1575
17421TIP3   OH273753   4.914   3.501  17.015 -0.7256 -0.3687 -0.0596
17421TIP3    H173754   4.867   3.442  16.956  2.9902 -1.3557 -2.1933
17421TIP3    H273755   4.887   3.588  16.988 -1.2551 -0.9210 -1.3679
17422TIP3   OH273756   5.215   2.359   5.299  0.4990  0.2374  0.2916
17422TIP3    H173757   5.262   2.298   5.242  1.0624 -0.0089  1.0085
17422TIP3    H273758   5.283   2.412   5.339  0.1612 -0.0346  1.2393
17423TIP3   OH273759   3.740   5.883  15.999  0.8966  0.5381 -0.4724
17423TIP3    H173760   3.676   5.814  15.979  1.0005 -0.5142  2.4620
17423TIP3    H273761   3.823   5.837  16.008  1.3932  1.3829 -0.7304
17424TIP3   OH273762   1.940   5.245  15.193 -0.8231  0.3177 -0.0720
17424TIP3    H173763   1.971   5.223  15.105  1.6979  1.6178  0.4322
17424TIP3    H273764   1.892   5.327  15.181 -2.6557 -0.7892 -0.5806
17425TIP3   OH273765   1.110   2.944  14.010 -0.5462  0.1810 -0.4118
17425TIP3    H173766   1.066   2.899  13.938 -0.8687  1.2254 -0.8723
17425TIP3    H273767   1.042   3.000  14.047 -0.7243 -1.2047  1.4613
17426TIP3   OH273768   1.336   3.684   3.258 -0.0262  0.3040  0.1022
17426TIP3    H173769   1.319   3.618   3.191 -0.1943  0.2186  0.2273
17426TIP3    H273770   1.316   3.640   3.341  3.2056 -0.5874  0.4496
17427TIP3   OH273771   5.890   6.016  12.170  0.5888  0.3727  0.3866
17427TIP3    H173772   5.904   6.087  12.233 -0.9486 -0.7189  1.9920
17427TIP3    H273773   5.795   6.014  12.156  0.8154 -0.0274 -1.2512
17428TIP3   OH273774   2.017   6.783  14.245  0.4911  0.2074  0.1769
17428TIP3    H173775   1.923   6.765  14.251  0.2222  1.6925  0.6283
17428TIP3    H273776   2.058   6.697  14.242 -0.8838 -0.4518  0.0438
17429TIP3   OH273777   5.907   3.575  11.346 -0.0712 -0.0463 -0.5167
17429TIP3    H173778   5.891   3.493  11.300  0.6509 -0.8408  0.6287
17429TIP3    H273779   5.961   3.551  11.421  0.9647  1.6169 -0.6930
17430TIP3   OH273780   3.471   2.535  16.313  0.1586  0.0242 -0.4628
17430TIP3    H173781   3.460   2.465  16.249  1.8100 -0.8150  0.1242
17430TIP3    H273782   3.541   2.590  16.276  1.6865 -0.9120  0.9578
17431TIP3   OH273783   5.049   6.153  17.038  0.4150  0.0483 -0.3724
17431TIP3    H173784   5.048   6.185  17.129 -2.8697  0.5089 -0.5214
17431TIP3    H273785   4.958   6.129  17.020  0.9971  0.1000 -3.6198
17432TIP3   OH273786   4.335   6.192  16.810 -0.8433  0.0493 -0.5877
17432TIP3    H173787   4.411   6.237  16.772 -1.7377  1.4347 -0.7763
17432TIP3    H273788   4.295   6.257  16.867 -0.0735 -1.7002  2.0173
17433TIP3   OH273789   5.472   5.613   1.548 -0.3780  0.3613  0.2887
17433TIP3    H173790   5.543   5.579   1.492 -0.0630  0.4436  0.6379
17433TIP3    H273791   5.395   5.610   1.492 -0.3918 -1.0889  0.3497
17434TIP3   OH273792   1.525   4.909   2.546 -0.0368 -0.0837  0.1781
17434TIP3    H173793   1.511   4.915   2.640  1.8566 -1.3157  0.5612
17434TIP3    H273794   1.446   4.866   2.513 -1.7014  2.3695  0.8816
17435TIP3   OH273795   1.968   2.947   1.265  0.0975 -0.4222 -1.1376
17435TIP3    H173796   1.987   2.913   1.352  2.1891  2.0535 -0.5886
17435TIP3    H273797   2.051   2.940   1.218 -0.3009  0.8357 -2.0589
17436TIP3   OH273798   1.563   3.890   0.736 -0.4144  0.0279  0.4264
17436TIP3    H173799   1.506   3.835   0.682 -2.4485  0.1837  2.3132
17436TIP3    H273800   1.640   3.836   0.754 -1.0632 -1.1050 -0.1782
17437TIP3   OH273801   0.459   6.273  12.013 -0.0276 -0.2080 -0.1658
17437TIP3    H173802   0.436   6.282  12.105  1.2366 -1.5212  0.3036
17437TIP3    H273803   0.479   6.362  11.984  0.1511  0.1392  1.0023
17438TIP3   OH273804   6.619   0.137   2.265  0.1276 -0.5781 -0.0855
17438TIP3    H173805   6.645   0.046   2.250 -0.0019 -0.3578 -1.7609
17438TIP3    H273806   6.625   0.178   2.179 -0.4839  0.8317  0.5290
17439TIP3   OH273807   6.197   1.681   4.243 -0.3055 -0.0453 -0.7828
17439TIP3    H173808   6.204   1.676   4.148 -0.6987  0.7454 -0.8570
17439TIP3    H273809   6.197   1.590   4.272  0.3012 -0.2815 -1.5031
17440TIP3   OH273810   3.242   0.330  14.668 -0.2796 -0.0797 -0.0308
17440TIP3    H173811   3.220   0.266  14.599 -0.7673 -0.7417  0.7337
17440TIP3    H273812   3.312   0.288  14.718 -0.8786 -0.1773  0.7196
17441TIP3   OH273813   2.409   3.435  16.985 -0.0817 -0.8108  0.5156
17441TIP3    H173814   2.328   3.399  17.024  1.1804 -3.0666  1.1836
17441TIP3    H273815   2.472   3.432  17.057  0.3704  1.8142  0.2531
17442TIP3   OH273816   4.634   5.752  14.064  0.4165 -0.2768 -0.3950
17442TIP3    H173817   4.607   5.699  14.139  0.6090  0.1988  0.0045
17442TIP3    H273818   4.590   5.836  14.077 -0.7577 -0.6697 -1.5782
17443TIP3   OH273819   0.743   2.022   4.205  0.1331  0.2267 -0.0325
17443TIP3    H173820   0.813   2.011   4.270 -2.7489 -3.3915  2.7030
17443TIP3    H273821   0.725   1.934   4.173 -2.0840  1.2840 -1.8829
17444TIP3   OH273822   2.924   6.528  11.179 -0.3743  0.0155 -0.0838
17444TIP3    H173823   2.884   6.530  11.093  2.2808  3.7272 -1.3252
17444TIP3    H273824   2.990   6.458  11.174  0.4071  0.8436 -1.3682
17445TIP3   OH273825   1.303   2.530  17.069 -0.4156  0.5389  0.0701
17445TIP3    H173826   1.362   2.499  17.137  1.1239 -2.0249 -2.2854
17445TIP3    H273827   1.230   2.467  17.070 -0.9423  1.1474  0.1035
17446TIP3   OH273828   4.688   0.342  11.692  0.4880 -0.0447 -0.0995
17446TIP3    H173829   4.599   0.359  11.725  0.6943  2.0314 -0.5383
17446TIP3    H273830   4.741   0.412  11.731  1.9789 -1.3546  0.2779
17447TIP3   OH273831   2.490   4.242  15.354 -0.1772 -0.2677  0.0596
17447TIP3    H173832   2.435   4.168  15.380 -2.1067  0.3183 -2.2061
17447TIP3    H273833   2.512   4.286  15.437 -2.1410 -1.1898  1.0963
17448TIP3   OH273834   1.482   6.203  12.324 -0.3607 -0.5482 -0.1909
17448TIP3    H173835   1.419   6.232  12.259  0.4094  1.4562 -0.0893
17448TIP3    H273836   1.559   6.178  12.273  0.1716  0.8300 -0.0688
17449TIP3   OH273837   4.492   2.716   4.822 -0.1334  0.3300 -0.6324
17449TIP3    H173838   4.528   2.650   4.881 -0.2918  1.1867  0.4373
17449TIP3    H273839   4.502   2.678   4.735 -0.9024 -1.4269  0.0171
17450TIP3   OH273840   1.539   5.819   3.317 -0.3202 -0.1482  0.3699
17450TIP3    H173841   1.606   5.816   3.385  0.3991 -1.0735 -0.3519
17450TIP3    H273842   1.539   5.730   3.280 -2.0168 -0.1884  0.4224
17451TIP3   OH273843   6.536   3.597  11.172  0.4532  0.1176 -0.0699
17451TIP3    H173844   6.548   3.687  11.200 -1.2434 -0.2011  1.7066
17451TIP3    H273845   6.586   3.545  11.234  1.3855 -0.2001 -1.0580
17452TIP3   OH273846   1.993   1.137  13.110 -0.0617 -0.0404 -0.3158
17452TIP3    H173847   1.948   1.090  13.180  0.6685  0.7506  0.7132
17452TIP3    H273848   1.932   1.207  13.085  0.2522  0.5433  0.5250
17453TIP3   OH273849   5.329   0.159  14.167  0.1194 -0.4154  0.2166
17453TIP3    H173850   5.415   0.130  14.197 -0.9234 -1.9799  1.8079
17453TIP3    H273851   5.321   0.122  14.079  0.5737 -1.3071  0.5426
17454TIP3   OH273852   3.703   1.456  16.065 -0.2305 -0.2199 -0.1253
17454TIP3    H173853   3.679   1.372  16.026 -0.8093 -0.7084  1.2807
17454TIP3    H273854   3.656   1.459  16.148  1.5169  0.5114  0.8705
17455TIP3   OH273855   4.599   5.168  13.106  0.1690 -0.6226 -0.2116
17455TIP3    H173856   4.504   5.174  13.095  0.2847  2.1521 -0.1168
17455TIP3    H273857   4.611   5.127  13.192 -1.0602  2.3746  1.5026
17456TIP3   OH273858   4.293   3.750   1.841 -0.5899  0.3356 -0.5317
17456TIP3    H173859   4.295   3.656   1.824 -1.8733  0.2808 -0.3968
17456TIP3    H273860   4.251   3.788   1.764  0.4051  0.8628 -0.8253
17457TIP3   OH273861   6.265   4.038  11.006 -0.3507 -0.2669  0.3540
17457TIP3    H173862   6.208   4.037  11.083  0.1425 -0.9613  0.7148
17457TIP3    H273863   6.348   4.075  11.037  0.2675 -1.7152  0.4624
17458TIP3   OH273864   5.538   2.625  14.107 -0.2539  0.3287  0.1156
17458TIP3    H173865   5.542   2.587  14.020  1.0155 -2.7917  1.4513
17458TIP3    H273866   5.627   2.617  14.141 -1.0309  0.1061  2.2196
17459TIP3   OH273867   2.034   6.473  15.511  0.3940 -0.3329  0.0316
17459TIP3    H173868   2.078   6.492  15.594 -0.6635 -2.0794  1.0243
17459TIP3    H273869   1.942   6.460  15.535 -0.3422  1.4375 -1.7497
17460TIP3   OH273870   4.572   2.337   2.689 -0.5533  0.6559 -0.3291
17460TIP3    H173871   4.490   2.383   2.671 -0.0078  1.0954 -1.8297
17460TIP3    H273872   4.637   2.383   2.635  0.3450 -0.7699 -0.4787
17461TIP3   OH273873   2.173   3.688   4.795  0.5796 -0.5945 -0.1340
17461TIP3    H173874   2.195   3.605   4.752 -1.7880  0.4601 -3.5048
17461TIP3    H273875   2.144   3.745   4.725 -0.7889  2.1433  2.5456
17462TIP3   OH273876   0.974   0.141  15.811 -0.3490 -0.9171  0.3034
17462TIP3    H173877   1.016   0.184  15.886  0.0573 -0.6395 -0.0739
17462TIP3    H273878   0.911   0.205  15.779  0.6594 -0.3523 -0.6093
17463TIP3   OH273879   6.623   4.926   0.719  0.0832  0.2281  0.1572
17463TIP3    H173880   6.689   4.878   0.669 -1.2681  0.8826 -2.3487
17463TIP3    H273881   6.645   4.908   0.810  1.4524 -2.6126 -0.6557
17464TIP3   OH273882   0.862   5.983   0.139 -0.4099 -0.1525 -0.4473
17464TIP3    H173883   0.830   5.900   0.174 -2.0777  0.3152 -0.8280
17464TIP3    H273884   0.957   5.971   0.130 -0.6157 -1.9286 -0.2819
17465TIP3   OH273885   6.693   6.689   3.137  0.3835 -0.7662 -0.2768
17465TIP3    H173886   6.649   6.619   3.089 -1.0839  0.4049 -0.6699
17465TIP3    H273887   6.642   6.767   3.117  2.0109  0.4228  0.1509
17466TIP3   OH273888   6.575   6.628  13.541  0.1382 -0.0947  0.3595
17466TIP3    H173889   6.509   6.648  13.474  0.7630 -0.8273 -0.4855
17466TIP3    H273890   6.554   6.686  13.614 -1.0705  0.1089 -0.1445
17467TIP3   OH273891   1.060   3.038  11.875  0.0527  0.1420  0.3480
17467TIP3    H173892   1.109   3.119  11.888  0.4922 -0.3886  2.2009
17467TIP3    H273893   0.969   3.061  11.897  0.0253  0.3368  0.0352
17468TIP3   OH273894   1.720   3.262   1.589 -0.2189  0.0948  0.0272
17468TIP3    H173895   1.704   3.285   1.681  3.1530 -0.7860  0.8827
17468TIP3    H273896   1.813   3.239   1.586  0.1729  1.8270 -3.9689
17469TIP3   OH273897   6.490   3.145  11.904  0.1568  0.1546 -0.2402
17469TIP3    H173898   6.431   3.219  11.920 -0.2463  0.1327 -1.5238
17469TIP3    H273899   6.560   3.156  11.968 -0.7038  0.7683  0.6235
17470TIP3   OH273900   6.393   2.007  15.659  0.9204  0.5135 -0.0666
17470TIP3    H173901   6.472   2.045  15.698  0.5584 -0.0216  1.2195
17470TIP3    H273902   6.378   1.927  15.709  0.6921 -0.4239 -1.6162
17471TIP3   OH273903   6.570   4.663  16.062  0.2591  0.3371 -0.7369
17471TIP3    H173904   6.582   4.694  15.973 -0.5362 -1.1573 -1.3879
17471TIP3    H273905   6.654   4.678  16.105  1.2268 -0.6094 -2.2607
17472TIP3   OH273906   0.562   2.629   3.050  0.7333 -0.0864 -0.3659
17472TIP3    H173907   0.553   2.629   2.955 -0.9490  3.9652 -0.2980
17472TIP3    H273908   0.561   2.721   3.075  1.1200 -1.0442  3.6060
17473TIP3   OH273909   3.802   3.292   2.239  0.3041 -0.3362 -0.3661
17473TIP3    H173910   3.881   3.336   2.208  0.6588 -0.0225  0.9657
17473TIP3    H273911   3.731   3.332   2.189  1.1025 -1.5539 -2.5507
17474TIP3   OH273912   5.354   2.033   3.178  0.3652 -0.2187  0.3035
17474TIP3    H173913   5.289   2.101   3.164  0.6416 -0.2759 -1.3644
17474TIP3    H273914   5.430   2.079   3.215 -0.3817 -0.0561  1.6474
17475TIP3   OH273915   5.440   5.497   0.117 -0.3656 -0.1195 -0.0227
17475TIP3    H173916   5.451   5.502   0.022 -0.7692  0.4921 -0.0387
17475TIP3    H273917   5.373   5.430   0.129 -1.4237  0.8797 -0.2501
17476TIP3   OH273918   4.078   3.808   2.528  0.4752 -0.2677 -0.2701
17476TIP3    H173919   4.167   3.775   2.541  0.3195 -0.7546 -0.3995
17476TIP3    H273920   4.050   3.767   2.446  0.5648  0.8325 -0.8575
17477TIP3   OH273921   4.880   5.889   5.707  0.0222 -0.2751  0.0498
17477TIP3    H173922   4.863   5.802   5.742 -0.6640 -0.1179  0.1080
17477TIP3    H273923   4.802   5.940   5.729  0.7369  0.5703  0.7169
17478TIP3   OH273924   0.116   1.978  11.267  0.4125  0.5523 -0.4411
17478TIP3    H173925   0.109   2.060  11.218  2.6646  1.6809  1.0544
17478TIP3    H273926   0.196   1.937  11.233  0.8042  0.3172  0.7640
17479TIP3   OH273927   5.915   4.455  13.431  0.3014 -0.1249 -0.3207
17479TIP3    H173928   5.886   4.527  13.375  0.5719  1.6026  1.6950
17479TIP3    H273929   5.962   4.498  13.503 -0.8636 -2.2198  1.7560
17480TIP3   OH273930   6.412   6.723   5.168 -0.1911  0.0855  0.0827
17480TIP3    H173931   6.424   6.814   5.193 -2.7878  0.4399  0.1251
17480TIP3    H273932   6.473   6.674   5.224 -0.7090  1.5431  1.9365
17481TIP3   OH273933   4.627   1.324   3.462  0.2631 -0.0911 -0.0898
17481TIP3    H173934   4.722   1.340   3.462  0.3993 -0.7951 -1.8752
17481TIP3    H273935   4.604   1.320   3.555  2.3356 -1.9136  0.4037
17482TIP3   OH273936   5.589   6.638  15.092 -0.1478  0.2122  0.0120
17482TIP3    H173937   5.656   6.669  15.031  0.2952 -0.0875  0.3444
17482TIP3    H273938   5.612   6.681  15.175  0.7751 -1.3963  0.6078
17483TIP3   OH273939   2.344   3.501   1.884  0.4646  0.1933  0.5018
17483TIP3    H173940   2.315   3.499   1.793  0.0239  0.7569  0.6267
17483TIP3    H273941   2.265   3.484   1.935  0.8110 -0.6588  0.7621
17484TIP3   OH273942   5.770   3.261   5.513 -0.3814 -0.1434 -0.1199
17484TIP3    H173943   5.865   3.268   5.521 -0.4737 -0.2665  1.3345
17484TIP3    H273944   5.741   3.350   5.494 -0.2461  0.5843  2.8561
17485TIP3   OH273945   3.955   0.736  16.275 -0.0851 -0.1925  0.2118
17485TIP3    H173946   4.043   0.722  16.241 -0.1377  1.5244 -0.7035
17485TIP3    H273947   3.967   0.747  16.369  0.6988  0.1632  0.0740
17486TIP3   OH273948   5.430   3.060   4.614 -0.0667 -0.5343 -0.7620
17486TIP3    H173949   5.338   3.056   4.641  0.4095 -0.5186  0.9388
17486TIP3    H273950   5.446   2.976   4.571 -0.1460 -1.7192  1.4527
17487TIP3   OH273951   5.592   6.135  17.161 -0.4845  0.1845 -0.1991
17487TIP3    H173952   5.507   6.094  17.146 -0.5546  0.3628 -0.2944
17487TIP3    H273953   5.655   6.063  17.155 -0.6014  0.1005 -0.4156
17488TIP3   OH273954   1.670   6.225   0.749  0.3029  0.2191  0.3214
17488TIP3    H173955   1.613   6.182   0.685  0.5775 -1.8795  1.4532
17488TIP3    H273956   1.610   6.273   0.807 -0.0138  1.2435 -0.8208
17489TIP3   OH273957   5.353   4.068   2.186 -0.0092 -0.6200  0.5810
17489TIP3    H173958   5.436   4.088   2.145 -1.2703  1.4183 -1.0319
17489TIP3    H273959   5.359   4.107   2.274  0.7477 -0.5564  0.4992
17490TIP3   OH273960   2.194   2.776  13.584 -0.2376  0.2522  0.7639
17490TIP3    H173961   2.245   2.697  13.566 -0.0038  0.7440 -0.8694
17490TIP3    H273962   2.251   2.830  13.639  0.9037  0.6496 -0.7639
17491TIP3   OH273963   5.492   1.513  14.502 -0.3774 -0.7528 -0.2817
17491TIP3    H173964   5.481   1.480  14.413  0.8590  0.2727 -0.8399
17491TIP3    H273965   5.562   1.578  14.494 -0.9699  0.0858  1.2573
17492TIP3   OH273966   4.753   3.992  16.155  0.0086  0.1348 -0.3442
17492TIP3    H173967   4.677   3.937  16.136 -1.8011  2.2181  0.5478
17492TIP3    H273968   4.795   3.950  16.229 -0.1620 -1.1433 -0.9550
17493TIP3   OH273969   3.689   1.780  15.534  0.1719 -0.4753 -0.6718
17493TIP3    H173970   3.632   1.707  15.558 -0.2118 -0.5419 -1.7567
17493TIP3    H273971   3.743   1.795  15.611 -0.6800 -1.0189  0.0339
17494TIP3   OH273972   1.342   1.290   0.373  0.3193 -0.0493  0.4281
17494TIP3    H173973   1.306   1.205   0.399  1.7088  0.1234  3.0458
17494TIP3    H273974   1.286   1.354   0.416  1.1176  0.2925  0.9634
17495TIP3   OH273975   1.557   1.185  12.357  0.1898  0.1813  0.0072
17495TIP3    H173976   1.651   1.202  12.350  0.6269 -1.8802  0.5949
17495TIP3    H273977   1.519   1.227  12.279  1.6332  0.6673 -0.4450
17496TIP3   OH273978   1.756   5.871   2.838  0.1641 -0.0207 -0.4968
17496TIP3    H173979   1.843   5.838   2.862 -0.4694 -0.4731  1.2778
17496TIP3    H273980   1.696   5.803   2.867 -0.8641  0.7737 -0.7295
17497TIP3   OH273981   4.546   2.298  13.654  0.0927  0.1316 -0.8151
17497TIP3    H173982   4.640   2.289  13.671  0.0874 -0.5243 -1.0854
17497TIP3    H273983   4.538   2.379  13.605  0.3684  0.8670  0.3468
17498TIP3   OH273984   2.035   1.832   2.153  0.5881  0.0163  0.4931
17498TIP3    H173985   2.096   1.879   2.097  0.0045  0.9165  0.5982
17498TIP3    H273986   2.066   1.847   2.242  1.0160 -0.6958  0.4703
17499TIP3   OH273987   0.874   2.862   4.709 -0.1570  0.1267 -0.0841
17499TIP3    H173988   0.835   2.832   4.627 -0.8222 -0.8772  0.5892
17499TIP3    H273989   0.860   2.957   4.708 -0.6383  0.0586 -0.8766
17500TIP3   OH273990   6.352   1.419   5.576  0.5230  0.2014 -0.4746
17500TIP3    H173991   6.362   1.476   5.653  0.8491  1.7291 -1.6107
17500TIP3    H273992   6.428   1.440   5.522  0.4938 -1.1428 -1.0439
17501TIP3   OH273993   5.650   2.372   0.061 -0.5349  0.2734  0.0031
17501TIP3    H173994   5.736   2.332   0.071  1.0196  3.3851 -0.4585
17501TIP3    H273995   5.607   2.320  -0.007  1.5366 -0.3926 -0.8386
17502TIP3   OH273996   2.999   2.001  16.454 -0.1079 -0.0131 -0.5029
17502TIP3    H173997   2.908   1.980  16.431 -0.2288  0.7678 -0.7484
17502TIP3    H273998   2.992   2.076  16.513  0.2833 -1.1416  0.9978
17503TIP3   OH273999   2.587   0.847   3.351  0.1298  0.7372 -0.3453
17503TIP3    H174000   2.569   0.773   3.409  1.0945  1.4878  0.9224
17503TIP3    H274001   2.519   0.841   3.284  0.2238 -1.3249 -0.2953
17504TIP3   OH274002   3.529   1.135   4.642  0.4479  0.3557  0.4879
17504TIP3    H174003   3.530   1.227   4.670  0.0508  0.2699  0.7901
17504TIP3    H274004   3.551   1.138   4.549 -2.4526  1.0337 -0.2410
17505TIP3   OH274005   5.263   1.835  11.525 -0.9950  0.3191  0.2718
17505TIP3    H174006   5.206   1.758  11.535  0.2858 -0.6961 -0.0253
17505TIP3    H274007   5.327   1.826  11.596 -0.4994  0.7994 -0.1134
17506TIP3   OH274008   0.926   2.665  12.427  0.0164 -0.1101 -0.0972
17506TIP3    H174009   0.946   2.645  12.519 -0.5881 -0.9255 -0.1385
17506TIP3    H274010   0.994   2.727  12.401  1.5957 -1.6640  0.2135
17507TIP3   OH274011   2.890   6.433   4.561  0.2501 -0.6600 -0.3558
17507TIP3    H174012   2.827   6.362   4.550  0.4924 -0.4702 -3.4314
17507TIP3    H274013   2.837   6.513   4.557  0.6263 -0.5072 -2.7118
17508TIP3   OH274014   0.393   6.743  13.833  0.0130 -0.3156  0.8258
17508TIP3    H174015   0.354   6.819  13.875 -0.5603  0.1052 -0.4503
17508TIP3    H274016   0.355   6.668  13.879 -2.8893  0.0667 -0.8369
17509TIP3   OH274017   0.719   0.330  16.171  0.3455 -0.3119  0.3975
17509TIP3    H174018   0.777   0.255  16.179  2.9829  1.5924 -0.2312
17509TIP3    H274019   0.777   0.406  16.181 -2.1536  1.6469  0.4241
17510TIP3   OH274020   3.418   0.293   1.588  0.0164  0.3266 -0.0659
17510TIP3    H174021   3.438   0.353   1.516  0.5661  0.5262  0.2516
17510TIP3    H274022   3.345   0.333   1.634  0.6973  1.0069  0.4380
17511TIP3   OH274023   1.846   0.382  14.969  0.0663 -0.0721 -0.4798
17511TIP3    H174024   1.788   0.319  14.925  0.7843 -0.8574 -0.3089
17511TIP3    H274025   1.813   0.467  14.941 -1.5696 -0.4862  0.0960
17512TIP3   OH274026   4.034   6.053  15.208 -0.4123  0.4163  0.1907
17512TIP3    H174027   3.970   6.122  15.189  0.1100  0.7795 -0.2495
17512TIP3    H274028   4.099   6.096  15.264 -1.2395 -0.2976  1.7437
17513TIP3   OH274029   2.865   3.657  12.325 -0.7408 -0.4399 -0.3402
17513TIP3    H174030   2.796   3.675  12.389  2.0885 -0.9541  2.9738
17513TIP3    H274031   2.899   3.571  12.349  1.2996 -0.0387 -1.6683
17514TIP3   OH274032   3.646   2.880   3.736  0.3611 -0.4067 -0.7608
17514TIP3    H174033   3.740   2.860   3.737  0.6090  0.7302 -0.0310
17514TIP3    H274034   3.627   2.907   3.826 -0.3172  0.8959 -1.2850
17515TIP3   OH274035   4.523   5.205   4.358  0.3392 -0.4912 -0.1017
17515TIP3    H174036   4.603   5.157   4.337  1.3282  0.4220  1.4668
17515TIP3    H274037   4.553   5.294   4.378 -1.0001 -0.2551  0.9418
17516TIP3   OH274038   1.007   3.149   1.454 -0.2022 -0.5096  0.2648
17516TIP3    H174039   0.998   3.243   1.439  0.8286 -0.5377 -0.6154
17516TIP3    H274040   0.920   3.120   1.481 -0.5350  0.6888  0.5041
17517TIP3   OH274041   0.505   3.171   4.865  0.4890 -0.2557 -0.0553
17517TIP3    H174042   0.550   3.094   4.829  0.4291  0.5024 -1.7972
17517TIP3    H274043   0.462   3.138   4.944 -0.6607 -2.3459 -1.5110
17518TIP3   OH274044   5.196   3.997  15.414  0.1770 -0.6912  0.4176
17518TIP3    H174045   5.169   3.937  15.484 -0.5329 -0.7482  0.1055
17518TIP3    H274046   5.174   4.084  15.447 -1.1940 -0.7965 -0.1763
17519TIP3   OH274047   0.017   5.145   3.628  0.1591 -0.3967  0.2406
17519TIP3    H174048  -0.040   5.084   3.675 -1.2399  1.1786  0.6222
17519TIP3    H274049   0.105   5.127   3.662 -0.2038 -2.2442  0.2806
17520TIP3   OH274050   4.289   3.985  10.867 -0.3000  0.2363  0.3010
17520TIP3    H174051   4.369   4.036  10.870  0.3780 -0.7212 -0.8276
17520TIP3    H274052   4.278   3.963  10.774 -1.0702 -0.8741  0.6371
17521TIP3   OH274053   6.324   2.733  16.001  0.5925  0.2008 -0.4528
17521TIP3    H174054   6.411   2.704  15.975  0.5802  0.4033 -0.7241
17521TIP3    H274055   6.330   2.744  16.096  0.8638  0.2190 -0.4700
17522TIP3   OH274056   0.488   3.354   2.926  0.0179 -0.2914  0.1717
17522TIP3    H174057   0.412   3.404   2.957  0.3398 -0.7770  1.8038
17522TIP3    H274058   0.528   3.410   2.859 -0.1886  1.2165  1.2707
17523TIP3   OH274059   6.454   6.816  14.035 -0.6772  0.4021  0.1222
17523TIP3    H174060   6.375   6.762  14.048  0.0587 -0.4440  1.1231
17523TIP3    H274061   6.421   6.906  14.036 -1.3451  0.1764  2.9252
17524TIP3   OH274062   6.094   6.211  10.702  0.2921 -0.7354 -0.0678
17524TIP3    H174063   6.124   6.177  10.618  0.8627 -1.6059  0.4853
17524TIP3    H274064   6.169   6.202  10.760  0.2059  0.7545  0.2987
17525TIP3   OH274065   3.201   4.080  12.840  0.6409  0.1330 -0.3803
17525TIP3    H174066   3.254   4.104  12.765  0.9091 -1.4736 -0.7214
17525TIP3    H274067   3.171   4.163  12.876  3.2474  1.0458 -0.2698
17526TIP3   OH274068   2.121   5.653   4.676 -0.2411  0.0724 -0.7431
17526TIP3    H174069   2.064   5.576   4.670 -0.4270  0.1951 -0.5733
17526TIP3    H274070   2.072   5.715   4.729  0.3701 -0.1028  0.0381
17527TIP3   OH274071   2.260   1.631  15.314  0.1715 -0.6839  0.6621
17527TIP3    H174072   2.171   1.597  15.324  0.0132 -0.5766 -0.3212
17527TIP3    H274073   2.271   1.641  15.220  0.7191  0.6639  0.8570
17528TIP3   OH274074   0.726   6.772   6.315 -0.7065  0.5056  0.0613
17528TIP3    H174075   0.691   6.764   6.227  0.4558  1.6037 -0.5085
17528TIP3    H274076   0.744   6.865   6.326  0.9937  0.1184  0.7375
17529TIP3   OH274077   3.394   3.211  12.261  0.3026 -0.4713 -0.4212
17529TIP3    H174078   3.418   3.140  12.201 -1.9340  0.1108 -2.0777
17529TIP3    H274079   3.331   3.171  12.321 -0.3912 -0.1056 -0.8934
17530TIP3   OH274080   6.761   1.788  13.419  0.3075  0.3045  0.5647
17530TIP3    H174081   6.682   1.821  13.375  0.1598 -0.4239  0.2812
17530TIP3    H274082   6.833   1.816  13.363  0.1187 -0.6295 -0.1599
17531TIP3   OH274083   4.653   0.096   4.157  0.6382 -0.6370  0.0179
17531TIP3    H174084   4.747   0.078   4.169  0.2924 -2.0016  0.7775
17531TIP3    H274085   4.644   0.190   4.175  1.4436 -1.0288  2.6458
17532TIP3   OH274086   2.284   4.938   0.391 -0.1384 -0.1250 -0.0075
17532TIP3    H174087   2.203   4.987   0.376 -0.4905 -0.3472  1.0801
17532TIP3    H274088   2.268   4.852   0.351  0.7641  0.8710 -2.5792
17533TIP3   OH274089   2.984   5.949   0.148 -0.1431 -0.5212  0.4802
17533TIP3    H174090   2.990   5.934   0.243  2.6458  3.4554  1.0610
17533TIP3    H274091   2.898   5.991   0.137  0.3839  0.9366  1.6255
17534TIP3   OH274092   6.387   1.596  15.314  0.4439  0.4984 -0.2224
17534TIP3    H174093   6.477   1.610  15.342  0.8617 -3.0305  0.4331
17534TIP3    H274094   6.392   1.526  15.249 -1.8574  0.0752 -0.0024
17535TIP3   OH274095   6.662   1.786   4.427 -0.0653  0.3457 -0.3505
17535TIP3    H174096   6.573   1.778   4.462 -0.3589  0.4638 -1.0522
17535TIP3    H274097   6.676   1.704   4.379  0.3241  0.1961  0.0100
17536TIP3   OH274098   6.735   5.381   3.930  0.6237  0.2453 -0.8333
17536TIP3    H174099   6.704   5.470   3.944  1.4188  0.3565  0.2419
17536TIP3    H274100   6.666   5.325   3.966  1.6334  0.4926  1.5871
17537TIP3   OH274101   6.750   0.745   4.029 -0.4282 -0.2478 -0.3928
17537TIP3    H174102   6.830   0.706   3.995  1.4302  0.8437  2.5415
17537TIP3    H274103   6.714   0.680   4.089  0.1188  0.6328  0.8993
17538TIP3   OH274104   0.498   4.967   0.338  0.6745 -0.4704 -0.3424
17538TIP3    H174105   0.524   4.875   0.348  1.1999 -0.4196 -1.1972
17538TIP3    H274106   0.462   4.972   0.250 -0.4631 -0.1108  0.1347
17539TIP3   OH274107   4.001   3.639   4.305  0.4656 -0.0596 -0.6514
17539TIP3    H174108   4.074   3.584   4.276  2.6920  1.7236  1.2992
17539TIP3    H274109   3.961   3.589   4.376 -0.6696 -1.3474 -2.1734
17540TIP3   OH274110   1.671   6.737   4.378  0.0790 -0.2249  0.4352
17540TIP3    H174111   1.715   6.693   4.452 -0.9754  0.2445  1.3625
17540TIP3    H274112   1.738   6.743   4.311  2.0559  2.2468  2.5158
17541TIP3   OH274113   1.974   4.809   1.915  0.2410 -0.3174 -0.5493
17541TIP3    H174114   1.980   4.732   1.970 -1.5155  1.4824  2.3089
17541TIP3    H274115   2.054   4.858   1.932 -0.1423  0.0663  0.1821
17542TIP3   OH274116   6.802   5.053   5.035 -0.0191 -0.1888 -0.2119
17542TIP3    H174117   6.871   5.089   4.979  0.6214 -1.3414 -0.1515
17542TIP3    H274118   6.764   4.982   4.983  0.6775 -1.3623  0.8838
17543TIP3   OH274119   2.726   1.824   4.793 -0.1286  0.3176 -0.1037
17543TIP3    H174120   2.687   1.902   4.754 -0.5012 -0.7225 -1.8546
17543TIP3    H274121   2.680   1.751   4.753 -1.1547 -0.8169  2.9574
17544TIP3   OH274122   3.082   6.108   2.060  0.6388 -0.2248  0.5752
17544TIP3    H174123   3.122   6.028   2.094 -0.4268 -0.8299  0.4472
17544TIP3    H274124   3.009   6.125   2.120  0.3049  0.1369  0.0669
17545TIP3   OH274125   1.923   4.880  15.370 -0.1932 -0.2065 -0.6394
17545TIP3    H174126   1.840   4.882  15.418 -1.0956  0.7902 -2.2013
17545TIP3    H274127   1.987   4.918  15.431 -1.2531  0.7364 -0.1062
17546TIP3   OH274128   3.491   4.672  13.761 -0.2569  0.6305 -0.8117
17546TIP3    H174129   3.548   4.613  13.810  0.3757  2.2286  0.4097
17546TIP3    H274130   3.408   4.671  13.809 -0.8279 -0.5745 -1.7767
17547TIP3   OH274131   1.950   1.344   5.257 -0.2395 -0.2089  0.0186
17547TIP3    H174132   1.928   1.254   5.233 -1.4009 -0.4444  1.8381
17547TIP3    H274133   1.866   1.384   5.282  0.2806  1.3327 -0.5953
17548TIP3   OH274134   5.772   2.810  13.761 -0.7804  0.6269  0.2398
17548TIP3    H174135   5.762   2.718  13.785  1.5401  0.4754  0.6937
17548TIP3    H274136   5.688   2.850  13.785 -1.3034 -1.0648  1.3451
17549TIP3   OH274137   4.577   4.522   5.866  0.8648 -0.8265 -0.0642
17549TIP3    H174138   4.559   4.462   5.938 -0.5605 -1.5200 -0.9630
17549TIP3    H274139   4.636   4.474   5.808 -0.4060 -1.4707 -0.8667
17550TIP3   OH274140   3.179   4.758  12.993 -0.0522 -0.2143 -0.4570
17550TIP3    H174141   3.144   4.706  12.921  0.4255 -0.0874 -0.7869
17550TIP3    H274142   3.131   4.728  13.071 -1.4391  0.5244 -1.0236
17551TIP3   OH274143   4.181   6.496  13.160 -0.5079  0.0287 -0.2075
17551TIP3    H174144   4.239   6.528  13.091 -0.8995  1.6377  0.1965
17551TIP3    H274145   4.237   6.488  13.237 -0.8659  2.0070  0.3007
17552TIP3   OH274146   6.344   4.936  16.662  0.8301  0.1904  0.5198
17552TIP3    H174147   6.289   4.923  16.584 -2.3220  1.9384  2.3498
17552TIP3    H274148   6.432   4.948  16.627 -0.5360  1.1307 -2.8154
17553TIP3   OH274149   4.745   4.468  16.423 -0.0897  0.1388  0.3972
17553TIP3    H174150   4.702   4.384  16.440 -0.2352  0.4654  1.6965
17553TIP3    H274151   4.832   4.444  16.389  0.0982 -0.5457  1.3352
17554TIP3   OH274152   3.690   0.721  11.057  0.0612 -0.5964  0.2132
17554TIP3    H174153   3.758   0.780  11.025 -0.4951 -0.6412 -1.0464
17554TIP3    H274154   3.707   0.715  11.152  0.9971  0.4273  0.1212
17555TIP3   OH274155   4.379   3.871   1.234 -0.4978  0.3098  0.5127
17555TIP3    H174156   4.361   3.778   1.242 -0.7833  0.3485  0.2967
17555TIP3    H274157   4.380   3.903   1.325 -0.0313  0.0289  0.6085
17556TIP3   OH274158   0.693   5.507   2.485 -0.1097 -0.2481 -0.1717
17556TIP3    H174159   0.722   5.561   2.558  1.7438 -0.3481 -0.8241
17556TIP3    H274160   0.619   5.457   2.521 -1.1732  1.9008  0.7415
17557TIP3   OH274161   0.319   4.074  11.357 -0.1687  0.0151 -0.1726
17557TIP3    H174162   0.272   4.012  11.302  0.2418 -0.3518 -0.1094
17557TIP3    H274163   0.408   4.039  11.364 -0.3064 -0.1397  1.0049
17558TIP3   OH274164   0.260   6.552   0.508 -0.0580  0.1268 -0.5040
17558TIP3    H174165   0.339   6.602   0.527 -0.4794 -0.0775  1.9748
17558TIP3    H274166   0.291   6.474   0.462  0.9688  0.9212 -1.1713
17559TIP3   OH274167   0.092   1.511   5.781  0.0335  0.0746 -0.5046
17559TIP3    H174168   0.058   1.594   5.816  1.5247 -0.6060  2.7015
17559TIP3    H274169   0.014   1.456   5.771 -0.4062  0.0964  2.4013
17560TIP3   OH274170   5.349   4.504  16.881 -0.0986  0.4827  0.0827
17560TIP3    H174171   5.370   4.419  16.842 -1.3062  0.4657 -0.5552
17560TIP3    H274172   5.409   4.566  16.838  1.6807 -0.2299  1.4811
17561TIP3   OH274173   2.140   6.111  12.713  0.0067  0.4739  0.1290
17561TIP3    H174174   2.210   6.104  12.648 -1.3579  0.9533 -1.4230
17561TIP3    H274175   2.059   6.118  12.661 -1.1954 -0.0585  1.8849
17562TIP3   OH274176   2.624   0.119   5.603 -0.6339  0.0207  0.0002
17562TIP3    H174177   2.621   0.215   5.602 -0.7120  0.0704  2.1320
17562TIP3    H274178   2.547   0.092   5.553 -1.1529  1.0790  0.2070
17563TIP3   OH274179   3.513   1.988  12.856 -0.5295 -0.6346 -0.0738
17563TIP3    H174180   3.470   2.072  12.840  0.2802 -0.2268 -0.1564
17563TIP3    H274181   3.488   1.965  12.946 -1.1191 -0.5289 -0.2109
17564TIP3   OH274182   2.518   4.057  11.813  0.2377 -0.4995  0.3107
17564TIP3    H174183   2.546   4.105  11.891 -1.0015 -1.8150  1.5988
17564TIP3    H274184   2.483   3.975  11.847 -0.6545 -0.9428 -1.6131
17565TIP3   OH274185   4.227   2.422  10.902  0.5575 -0.3312 -0.2084
17565TIP3    H174186   4.286   2.493  10.876 -0.0338 -0.0028 -0.6511
17565TIP3    H274187   4.254   2.348  10.847  2.1618 -0.9044  1.2951
17566TIP3   OH274188   2.749   1.574   2.067 -0.7232  0.0589 -0.4250
17566TIP3    H174189   2.812   1.646   2.059  0.0939 -0.4279  1.2766
17566TIP3    H274190   2.778   1.508   2.004  0.1957  0.0457  0.0092
17567TIP3   OH274191   0.324   6.231  14.066  0.0063 -0.3523  0.1394
17567TIP3    H174192   0.237   6.270  14.055 -2.3054 -4.2739  3.0210
17567TIP3    H274193   0.327   6.159  14.003  0.8670 -0.6471  0.5011
17568TIP3   OH274194   5.949   1.116  16.749 -0.7752  0.1359  0.0814
17568TIP3    H174195   6.002   1.076  16.818 -1.2698 -0.8381 -0.0936
17568TIP3    H274196   5.869   1.144  16.793  0.1210  2.1613  0.4615
17569TIP3   OH274197   3.519   3.436  16.238 -0.4906  0.1290 -0.4621
17569TIP3    H174198   3.441   3.402  16.282 -0.2548 -0.7989 -0.7462
17569TIP3    H274199   3.499   3.529  16.222 -0.5612  0.4837  1.5778
17570TIP3   OH274200   2.490   4.872  13.660  0.3824 -0.8539  0.4346
17570TIP3    H174201   2.559   4.805  13.661 -1.7564 -3.1083  2.0908
17570TIP3    H274202   2.479   4.898  13.751  0.9050  1.5177 -0.1470
17571TIP3   OH274203   2.654   2.468  16.109  0.0696  0.0016  0.0457
17571TIP3    H174204   2.587   2.438  16.171 -0.3981 -0.0285 -0.4743
17571TIP3    H274205   2.649   2.405  16.037  0.9521 -0.2540  0.2001
17572TIP3   OH274206   1.321   2.191  14.669  0.0293  0.5921 -0.8264
17572TIP3    H174207   1.304   2.097  14.674  0.7449  0.5511  1.5903
17572TIP3    H274208   1.289   2.216  14.583 -1.7482 -1.5573 -0.8592
17573TIP3   OH274209   1.325   3.815  12.004 -0.0271 -0.3221  0.2284
17573TIP3    H174210   1.254   3.878  11.986  0.2720 -0.0995 -0.1619
17573TIP3    H274211   1.279   3.732  12.020 -0.3335 -0.3421 -0.7377
17574TIP3   OH274212   2.345   4.216   3.883  0.1798  0.4339 -0.3063
17574TIP3    H174213   2.340   4.247   3.974 -0.3141 -2.1326  0.6085
17574TIP3    H274214   2.437   4.224   3.860  0.1786  1.8356  0.1447
17575TIP3   OH274215   1.236   2.947  15.165 -0.7191 -0.5675 -0.3589
17575TIP3    H174216   1.176   2.908  15.101 -1.0024 -0.3837 -0.2020
17575TIP3    H274217   1.303   2.990  15.111 -0.4277 -1.2324 -0.5354
17576TIP3   OH274218   6.698   1.978   6.105  0.1083 -0.3382 -0.4780
17576TIP3    H174219   6.722   2.033   6.180 -1.3694 -1.6857  1.0305
17576TIP3    H274220   6.781   1.938   6.078  1.1139  2.1830 -1.2817
17577TIP3   OH274221   2.662   6.273   4.962 -0.1450 -0.0728  0.0023
17577TIP3    H174222   2.627   6.194   4.921  2.3111 -0.7475 -0.9120
17577TIP3    H274223   2.747   6.246   4.997 -0.1888  1.6534  1.5323
17578TIP3   OH274224   4.219   3.301  13.611 -0.2142  0.1251  0.4628
17578TIP3    H174225   4.240   3.224  13.665  0.8566  0.5646  0.6899
17578TIP3    H274226   4.302   3.323  13.569 -0.5534  1.0668  0.2827
17579TIP3   OH274227   6.421   1.306   6.005  0.1451  0.0970 -0.6189
17579TIP3    H174228   6.475   1.359   5.946 -0.3458 -0.6389 -1.7537
17579TIP3    H274229   6.331   1.329   5.981 -0.1106  2.0308  1.8926
17580TIP3   OH274230   3.329   5.760  11.793 -0.0105  0.3328 -0.3988
17580TIP3    H174231   3.327   5.681  11.739  1.2715 -0.3247  0.4944
17580TIP3    H274232   3.325   5.832  11.730 -0.6715 -0.4265 -1.2479
17581TIP3   OH274233   0.194   2.224   5.596 -0.9566 -0.6972 -0.8841
17581TIP3    H174234   0.168   2.314   5.579 -0.0230 -0.1516  0.5025
17581TIP3    H274235   0.133   2.193   5.663 -1.0849 -0.9902 -1.1355
17582TIP3   OH274236   6.216   2.322  14.357  0.0218  0.1020 -0.0540
17582TIP3    H174237   6.127   2.327  14.322  0.1267  4.1029  0.0314
17582TIP3    H274238   6.271   2.361  14.290  1.3829  0.0351  0.9905
17583TIP3   OH274239   0.667   3.940  14.860  0.4166 -0.0091  0.6073
17583TIP3    H174240   0.598   3.951  14.795  0.6930  1.1987  0.5127
17583TIP3    H274241   0.621   3.920  14.941 -0.0014 -0.0704  0.3548
17584TIP3   OH274242   4.102   0.356  11.323 -0.5060  0.6880  0.0528
17584TIP3    H174243   4.192   0.386  11.306 -0.7345  0.4858 -1.6552
17584TIP3    H274244   4.113   0.268  11.359 -0.0081  0.7087 -0.0414
17585TIP3   OH274245   5.973   6.393   1.843 -0.3018  0.5510 -0.1404
17585TIP3    H174246   5.955   6.308   1.883  0.9578  0.8482  1.1062
17585TIP3    H274247   5.996   6.449   1.917 -1.6716  2.1380 -0.8887
17586TIP3   OH274248   5.911   6.389  16.631 -0.0065  0.4177 -0.3870
17586TIP3    H174249   5.964   6.323  16.675 -0.1636 -0.1458 -1.0418
17586TIP3    H274250   5.822   6.370  16.658 -0.1134  0.0135 -1.0220
17587TIP3   OH274251   6.374   4.285  16.030  0.3870  0.1377  0.0633
17587TIP3    H174252   6.369   4.191  16.044  0.1047  0.0203 -0.8094
17587TIP3    H274253   6.289   4.309  15.993  0.5021  0.7162  0.1670
17588TIP3   OH274254   0.295   3.552   4.052 -0.1114  0.1017 -0.4349
17588TIP3    H174255   0.374   3.585   4.094 -0.4584 -1.6643  1.6514
17588TIP3    H274256   0.322   3.536   3.961  1.7564  0.0784  0.0940
17589TIP3   OH274257   6.093   2.883  15.198 -1.1559  0.6711 -0.6315
17589TIP3    H174258   6.153   2.822  15.242 -1.4619 -0.5742 -1.8899
17589TIP3    H274259   6.147   2.958  15.176 -0.1082 -0.3185 -1.4903
17590TIP3   OH274260   3.022   0.254   6.410 -0.2667 -0.2474  0.2277
17590TIP3    H174261   3.110   0.275   6.442 -0.2786  1.1637 -0.6092
17590TIP3    H274262   2.978   0.339   6.402 -1.2441 -0.8190 -0.6680
17591TIP3   OH274263   2.850   4.253   4.498  0.7433  0.1055 -0.0296
17591TIP3    H174264   2.851   4.159   4.478  2.3061  0.1152 -0.0697
17591TIP3    H274265   2.807   4.293   4.422  0.6626 -0.5066 -0.3137
17592TIP3   OH274266   3.248   0.223  14.145  0.0800 -0.4932 -0.4398
17592TIP3    H174267   3.229   0.296  14.204 -0.4956 -0.3298 -0.8217
17592TIP3    H274268   3.343   0.225  14.133 -0.1020  1.1866 -1.7267
17593TIP3   OH274269   3.743   3.878   3.290  0.7081  0.1068 -0.3139
17593TIP3    H174270   3.769   3.923   3.370  1.5532  0.7975 -0.9658
17593TIP3    H274271   3.803   3.803   3.284  0.9875  0.3439 -0.5535
17594TIP3   OH274272   4.050   1.505  11.454  0.2313  0.0896 -0.5963
17594TIP3    H174273   4.004   1.450  11.390 -0.9578  0.0777  0.2466
17594TIP3    H274274   4.094   1.571  11.402  0.2625 -0.6403 -1.5065
17595TIP3   OH274275   5.916   1.316   2.789  0.5489  0.5024 -0.4201
17595TIP3    H174276   6.007   1.285   2.787 -0.1331 -1.4871 -1.8356
17595TIP3    H274277   5.917   1.396   2.737  1.3660  0.0821 -1.0646
17596TIP3   OH274278   6.271   4.554   0.836  0.4752  0.1877  0.4649
17596TIP3    H174279   6.199   4.520   0.783  1.0182 -0.5232  0.1778
17596TIP3    H274280   6.229   4.615   0.897 -0.2603  0.4113 -0.2467
17597TIP3   OH274281   4.236   6.190   4.619 -0.5621 -0.1658 -0.0758
17597TIP3    H174282   4.294   6.204   4.544  1.9417 -0.2418  1.7891
17597TIP3    H274283   4.233   6.275   4.662  0.5252 -0.8947  1.4614
17598TIP3   OH274284   1.613   0.047  11.966  0.4883  0.1119  0.3360
17598TIP3    H174285   1.599  -0.023  12.029  2.0903 -1.3947 -0.9247
17598TIP3    H274286   1.708   0.060  11.965  0.5380 -0.2076 -2.0589
17599TIP3   OH274287   6.557   0.853   3.643  0.1701  0.3796  0.0345
17599TIP3    H174288   6.620   0.921   3.666 -2.9512  2.8083  1.8302
17599TIP3    H274289   6.499   0.894   3.579 -1.7821 -0.5344  1.1652
17600TIP3   OH274290   4.655   4.992  14.957  0.4143 -0.0578  0.0531
17600TIP3    H174291   4.646   5.041  15.039 -0.6605 -0.1285 -0.0129
17600TIP3    H274292   4.747   4.969  14.953  0.6068  0.5221  0.9178
17601TIP3   OH274293   6.130   3.552   1.935  0.5379 -0.0433  0.4964
17601TIP3    H174294   6.043   3.523   1.908  0.9711 -0.1722 -0.7799
17601TIP3    H274295   6.190   3.507   1.876  1.3107  2.4103 -0.6497
17602TIP3   OH274296   1.924   6.047  11.243 -0.2784 -0.4316 -0.3129
17602TIP3    H174297   1.844   6.099  11.254  0.6246  0.8474  0.4633
17602TIP3    H274298   1.929   5.995  11.323  0.4672  0.6428  0.3527
17603TIP3   OH274299   4.022   5.154   0.816 -0.2796 -0.0301 -0.3658
17603TIP3    H174300   4.083   5.181   0.748 -0.4422  0.2828 -0.3894
17603TIP3    H274301   4.035   5.059   0.824  1.2666  0.2404  0.6562
17604TIP3   OH274302   4.770   0.217   5.141 -0.1212  0.8696 -0.1906
17604TIP3    H174303   4.783   0.287   5.205  2.7102  0.0975  0.1343
17604TIP3    H274304   4.845   0.159   5.153 -2.4367 -2.2902 -0.3933
17605TIP3   OH274305   1.866   4.771   3.983  0.3098  0.0140 -0.6211
17605TIP3    H174306   1.861   4.718   4.062  1.0679 -0.4601 -0.8838
17605TIP3    H274307   1.958   4.799   3.978  0.1730  0.4012 -1.0991
17606TIP3   OH274308   4.564   0.197   3.151 -0.4854  0.5700  0.6015
17606TIP3    H174309   4.608   0.269   3.105 -1.3803  0.1105 -1.0080
17606TIP3    H274310   4.635   0.149   3.193  0.2006  1.9142  1.0169
17607TIP3   OH274311   1.834   0.611   2.868 -0.4519 -0.3404 -0.1511
17607TIP3    H174312   1.807   0.611   2.776  1.8867  0.2973 -0.8855
17607TIP3    H274313   1.785   0.684   2.907 -0.8937 -0.1342 -1.0758
17608TIP3   OH274314   3.434   0.924   4.032  0.3267  1.1000 -0.5655
17608TIP3    H174315   3.502   0.991   4.031  2.5535 -1.0742 -3.3132
17608TIP3    H274316   3.428   0.894   3.941 -2.5260 -0.5518  0.0877
17609TIP3   OH274317   5.978   1.584   2.913 -0.5103 -0.6390 -0.4296
17609TIP3    H174318   6.028   1.586   2.831 -0.4707 -0.5637 -0.4029
17609TIP3    H274319   6.043   1.601   2.981 -1.1254  2.7303 -0.6327
17610TIP3   OH274320   2.053   3.568   3.775 -0.1686  0.2231  0.0663
17610TIP3    H174321   2.131   3.615   3.746  0.1431 -0.7844 -0.7727
17610TIP3    H274322   2.083   3.511   3.845 -0.2579  0.2116  0.0957
17611TIP3   OH274323   5.057   5.123   1.393  0.4065 -0.0199 -0.3357
17611TIP3    H174324   5.036   5.201   1.342  0.9022  1.1424  1.1978
17611TIP3    H274325   5.012   5.137   1.477  0.1919 -1.5633 -0.1691
17612TIP3   OH274326   2.047   6.367  11.545  0.2564  0.6673 -0.1762
17612TIP3    H174327   2.072   6.328  11.629 -0.5330 -1.3816 -0.8599
17612TIP3    H274328   2.058   6.296  11.481 -2.0660  1.2756 -1.3308
17613TIP3   OH274329   1.035   0.258  16.055  0.2171 -0.3981  0.1222
17613TIP3    H174330   1.045   0.300  16.141 -0.4386 -0.5984  0.3016
17613TIP3    H274331   1.074   0.320  15.993 -0.8744  0.5441  0.3674
17614TIP3   OH274332   2.719   4.150   2.574 -0.1389 -0.3424 -0.5685
17614TIP3    H174333   2.736   4.236   2.612  0.2939 -0.3636 -0.7189
17614TIP3    H274334   2.752   4.088   2.639 -0.6503 -0.4029 -0.3592
17615TIP3   OH274335   5.536   1.074  15.059  0.1395  0.5892  0.1075
17615TIP3    H174336   5.563   1.010  15.124 -1.2402  0.6294  0.7357
17615TIP3    H274337   5.614   1.127  15.043  1.4823 -1.5815 -0.8466
17616TIP3   OH274338   0.815   3.141   4.764  0.3875  0.6035 -0.2824
17616TIP3    H174339   0.869   3.220   4.753  2.0222 -0.4267  0.1215
17616TIP3    H274340   0.754   3.164   4.834  0.7543  1.5599 -0.2627
17617TIP3   OH274341   3.962   3.184   1.271  0.5146  0.0708  0.0514
17617TIP3    H174342   4.033   3.140   1.317 -0.9714 -2.8716 -0.3886
17617TIP3    H274343   3.940   3.125   1.199 -1.7246  1.4047 -0.3936
17618TIP3   OH274344   4.303   0.448   5.610  0.3329 -0.0996  0.1075
17618TIP3    H174345   4.217   0.407   5.604  0.2402  0.0846  0.1487
17618TIP3    H274346   4.322   0.478   5.521 -0.3453  1.2477  0.3961
17619TIP3   OH274347   2.928   2.709   5.591  0.3830  0.5105  0.0668
17619TIP3    H174348   2.936   2.719   5.496 -0.9997  0.4589 -0.0589
17619TIP3    H274349   2.896   2.794   5.622  0.8618  0.5394  0.5022
17620TIP3   OH274350   1.738   3.384  12.205  0.0223  0.5726 -0.2011
17620TIP3    H174351   1.732   3.290  12.221  0.8686  0.8957  2.2670
17620TIP3    H274352   1.651   3.418  12.229  0.6304  0.7833  1.7389
17621TIP3   OH274353   5.793   4.646   0.782 -0.0718  0.5063 -0.3075
17621TIP3    H174354   5.768   4.681   0.867  0.6195  0.3498 -0.0424
17621TIP3    H274355   5.732   4.687   0.721 -0.9093  0.2130  0.3258
17622TIP3   OH274356   4.916   1.783   3.319 -0.5638  0.3573 -0.3166
17622TIP3    H174357   4.874   1.855   3.366 -0.3613 -0.1216  0.5978
17622TIP3    H274358   5.007   1.812   3.308 -0.5054  0.2876 -0.0323
17623TIP3   OH274359   3.115   6.350  12.996  0.5365 -0.6152 -0.8120
17623TIP3    H174360   3.199   6.384  13.027  0.5531 -1.2143 -0.1821
17623TIP3    H274361   3.059   6.427  12.988  1.2070 -0.1910 -1.4256
17624TIP3   OH274362   2.021   3.576  13.231  0.0028 -0.0290 -0.3657
17624TIP3    H174363   2.046   3.652  13.178  0.6519 -0.0850 -0.1469
17624TIP3    H274364   2.023   3.608  13.321 -2.0897  0.3427 -0.4132
17625TIP3   OH274365   4.682   5.722  15.851  0.5791 -0.0142  0.5390
17625TIP3    H174366   4.674   5.732  15.756  0.9707 -1.8932  0.2892
17625TIP3    H274367   4.644   5.636  15.870  2.1466 -0.4425  1.8515
17626TIP3   OH274368   5.308   3.045  14.274 -0.5643 -0.2694  0.0189
17626TIP3    H174369   5.312   2.950  14.264  0.9091 -0.1548 -0.7391
17626TIP3    H274370   5.226   3.062  14.320 -1.5452 -1.8044 -1.1149
17627TIP3   OH274371   2.311   5.524  15.803  0.5573  0.2069  0.0035
17627TIP3    H174372   2.249   5.493  15.868 -1.6525  1.0536 -1.6232
17627TIP3    H274373   2.373   5.453  15.792 -1.1018 -1.3416  0.4716
17628TIP3   OH274374   4.958   4.054  12.310  0.6247 -0.0375  0.1001
17628TIP3    H174375   4.992   3.999  12.240 -0.6236  0.3611 -0.8320
17628TIP3    H274376   4.863   4.042  12.307  0.4099  1.4225  0.4894
17629TIP3   OH274377   3.612   4.253  10.619  0.0817 -0.4880 -0.6619
17629TIP3    H174378   3.587   4.218  10.705  0.6684  1.2713  0.2390
17629TIP3    H274379   3.544   4.317  10.599  0.0869 -0.7096 -1.4016
17630TIP3   OH274380   1.295   1.324   5.716  0.3853  0.2088 -0.0612
17630TIP3    H174381   1.257   1.366   5.792  0.4144  0.8908 -0.4184
17630TIP3    H274382   1.381   1.365   5.706  1.2865 -1.4342  0.8433
17631TIP3   OH274383   3.719   4.943   0.785  0.4526 -0.0224  0.5487
17631TIP3    H174384   3.663   4.923   0.860 -0.3298  1.0143  0.2410
17631TIP3    H274385   3.767   5.022   0.811  1.6451 -0.7991  0.7419
17632TIP3   OH274386   2.477   3.030  15.940 -0.2713  0.3685  0.4071
17632TIP3    H174387   2.385   3.054  15.942  0.0772  1.7730  0.2872
17632TIP3    H274388   2.477   2.936  15.923 -1.6717  0.3634  0.3649
17633TIP3   OH274389   1.655   2.603   5.327  0.0617  0.1330  0.3665
17633TIP3    H174390   1.658   2.661   5.404 -0.8320  0.0344  0.4812
17633TIP3    H274391   1.602   2.650   5.264  0.8955  0.2644 -0.2482
17634TIP3   OH274392   2.872   0.388   2.254  0.3858 -0.1125  0.3376
17634TIP3    H174393   2.787   0.382   2.298  0.6773  0.7436  1.0336
17634TIP3    H274394   2.851   0.384   2.161 -0.4087  0.0442  0.5077
17635TIP3   OH274395   2.822   0.442   5.632  0.1454 -0.3643  0.8037
17635TIP3    H174396   2.877   0.417   5.706 -0.8257  0.1290  1.6984
17635TIP3    H274397   2.806   0.536   5.645  1.0732  0.0319 -0.7557
17636TIP3   OH274398   2.097   0.165  12.174  0.2105  0.1151  0.1478
17636TIP3    H174399   2.131   0.096  12.231  0.8965  1.2421  1.1275
17636TIP3    H274400   2.166   0.232  12.173 -0.4471  0.7926 -0.7711
17637TIP3   OH274401   6.150   3.593   5.533 -0.0339  0.2033 -0.0150
17637TIP3    H174402   6.087   3.579   5.462 -0.8733  0.3840  0.6842
17637TIP3    H274403   6.235   3.597   5.489 -0.3316 -1.6175 -0.8082
17638TIP3   OH274404   2.090   4.154  16.885 -0.1588  0.0399 -0.3765
17638TIP3    H174405   2.073   4.212  16.810  0.2215  0.6983  0.0390
17638TIP3    H274406   2.023   4.179  16.949  0.0316  0.0501 -0.1822
17639TIP3   OH274407   4.979   0.064   4.686  0.4023 -0.0108 -1.1036
17639TIP3    H174408   4.973  -0.015   4.631 -1.9712 -0.1773 -0.6606
17639TIP3    H274409   5.024   0.035   4.765  2.3855 -0.1545 -2.2600
17640TIP3   OH274410   0.930   6.468  13.698  0.7295  0.2453 -0.4809
17640TIP3    H174411   0.890   6.381  13.701  2.3107 -0.5349 -1.1688
17640TIP3    H274412   1.013   6.454  13.652  1.1767  2.0533 -0.2478
17641TIP3   OH274413   2.108   5.111  16.794 -0.6007 -0.2174  0.4934
17641TIP3    H174414   2.202   5.120  16.808 -0.6741 -0.1179  0.9461
17641TIP3    H274415   2.083   5.186  16.740 -0.3694 -0.4097  0.1223
17642TIP3   OH274416   2.880   4.075  13.594  0.1924 -0.3047  0.7004
17642TIP3    H174417   2.942   4.137  13.632 -1.6634  1.5374  0.7712
17642TIP3    H274418   2.794   4.115  13.607 -0.9402 -2.2716 -0.4420
17643TIP3   OH274419   0.975   3.065   1.828  0.4683 -0.3173  0.1452
17643TIP3    H174420   1.042   3.100   1.769  2.0985 -2.1565  0.8393
17643TIP3    H274421   0.895   3.062   1.775  1.2806  0.5502 -1.1521
17644TIP3   OH274422   0.833   0.829  13.626 -0.1631  0.5280 -0.0420
17644TIP3    H174423   0.845   0.924  13.634  0.8305  0.3786  0.2835
17644TIP3    H274424   0.846   0.812  13.533  1.2555  0.4984  0.1553
17645TIP3   OH274425   6.257   5.050  15.508 -0.0937  0.5061  0.3117
17645TIP3    H174426   6.217   5.115  15.450 -0.0787  0.7196  0.5410
17645TIP3    H274427   6.278   5.098  15.588 -1.0598 -0.0157  0.8892
17646TIP3   OH274428   5.520   0.860  16.455 -0.3874  0.2311  0.7289
17646TIP3    H174429   5.457   0.794  16.482 -0.9943  1.5368  2.5790
17646TIP3    H274430   5.569   0.881  16.534  3.3831 -1.7536 -0.9399
17647TIP3   OH274431   3.487   2.810  12.532 -0.2011  0.2660  0.3353
17647TIP3    H174432   3.484   2.824  12.437  2.1398 -0.2046  0.1698
17647TIP3    H274433   3.395   2.798  12.557 -0.7943 -0.2611 -1.9715
17648TIP3   OH274434   1.705   1.724   4.709  0.1596  0.1137 -0.1691
17648TIP3    H174435   1.629   1.666   4.723 -1.3090  2.2175  0.8953
17648TIP3    H274436   1.699   1.748   4.617 -2.5822  3.0234  0.6706
17649TIP3   OH274437   4.781   5.584  12.870 -0.4702 -0.0662 -0.1569
17649TIP3    H174438   4.777   5.530  12.949 -1.0056 -1.0924 -0.8773
17649TIP3    H274439   4.753   5.671  12.899 -3.2786 -1.0536  0.2534
17650TIP3   OH274440   1.199   5.617   3.177  0.3257  0.2612  0.2934
17650TIP3    H174441   1.220   5.671   3.101 -0.3909 -1.6149 -1.2672
17650TIP3    H274442   1.130   5.666   3.222  0.5376  1.2321 -0.4060
17651TIP3   OH274443   6.433   2.608   3.910  0.2383  0.3355 -0.4305
17651TIP3    H174444   6.433   2.667   3.986  0.1155 -0.1413 -0.0552
17651TIP3    H274445   6.520   2.566   3.912 -0.0937 -0.3548 -0.0108
17652TIP3   OH274446   6.214   1.081  14.881  0.1804  0.4891 -0.4729
17652TIP3    H174447   6.150   1.121  14.821 -2.1321  0.8082  2.0885
17652TIP3    H274448   6.276   1.152  14.900 -1.3442  1.5815  0.5553
17653TIP3   OH274449   5.278   4.039  16.815  0.0889  0.0796 -0.2704
17653TIP3    H174450   5.219   4.079  16.878 -0.8293 -0.4527 -0.7830
17653TIP3    H274451   5.348   4.103  16.802 -0.1431  0.5194  0.6719
17654TIP3   OH274452   6.155   0.692   1.626 -0.1866  0.0206 -0.1526
17654TIP3    H174453   6.190   0.690   1.537  0.5697  1.9871  0.0833
17654TIP3    H274454   6.151   0.599   1.652  0.1453 -0.5356 -2.0001
17655TIP3   OH274455   0.776   4.058  12.219  0.5554 -0.2479 -0.2877
17655TIP3    H174456   0.771   4.018  12.306 -2.2585  1.8704  0.5924
17655TIP3    H274457   0.731   3.996  12.162  1.0322 -0.9106  0.0482
17656TIP3   OH274458   1.463   4.641   4.603  0.4171  0.0921  0.1040
17656TIP3    H174459   1.551   4.660   4.634 -0.2157  2.3149  0.6611
17656TIP3    H274460   1.406   4.689   4.663 -1.1922 -1.5593 -0.0640
17657TIP3   OH274461   1.936   1.483  13.015  0.2264  0.1548 -0.5962
17657TIP3    H174462   1.914   1.417  12.950  0.5222  1.0493 -1.6085
17657TIP3    H274463   2.031   1.490  13.012  0.3430 -0.5913  0.7224
17658TIP3   OH274464   4.631   1.976  17.139  0.0976 -0.1968  0.5969
17658TIP3    H174465   4.615   1.908  17.205 -0.3246  0.0639  0.7660
17658TIP3    H274466   4.546   2.018  17.127  0.3558  0.2973  0.4887
17659TIP3   OH274467   5.605   5.623  12.923 -0.2287  0.3541 -0.2974
17659TIP3    H174468   5.682   5.666  12.885  0.6288  0.0427  1.0306
17659TIP3    H274469   5.532   5.650  12.867  0.5206  2.2985 -0.3993
17660TIP3   OH274470   5.988   1.193   0.303  0.5641 -0.0608 -0.4218
17660TIP3    H174471   5.925   1.221   0.237 -0.8041 -2.0091  0.0251
17660TIP3    H274472   6.070   1.182   0.255 -0.2375 -0.7364 -1.6533
17661TIP3   OH274473   5.640   3.174   1.594  0.0065  0.2840  0.0632
17661TIP3    H174474   5.635   3.108   1.526  1.1612  0.7639 -0.4982
17661TIP3    H274475   5.597   3.251   1.557  1.4364  0.8418 -0.5109
17662TIP3   OH274476   4.779   2.948  11.345 -0.3911  0.1724 -0.0432
17662TIP3    H174477   4.820   2.952  11.431 -0.0017  0.8838 -0.2566
17662TIP3    H274478   4.751   3.037  11.328  2.1601  0.6699 -1.9103
17663TIP3   OH274479   2.214   2.176  12.327  0.4880 -0.1709 -0.0342
17663TIP3    H174480   2.140   2.180  12.266 -0.2349  0.4494  0.8825
17663TIP3    H274481   2.243   2.084  12.324 -1.0305 -0.6745  0.4496
17664TIP3   OH274482   6.571   5.615  11.163  0.0996  0.0610 -0.8045
17664TIP3    H174483   6.595   5.536  11.212  3.9726  2.1853  0.9658
17664TIP3    H274484   6.597   5.596  11.073  3.4442  0.1537  0.0633
17665TIP3   OH274485   0.400   1.084  14.008  0.7465 -0.3576  0.0943
17665TIP3    H174486   0.493   1.096  13.988  0.7186  0.4226  0.3969
17665TIP3    H274487   0.356   1.088  13.923  1.0708 -1.6324 -0.1431
17666TIP3   OH274488   2.165   1.077   4.099  0.0971  0.2479 -1.0354
17666TIP3    H174489   2.093   1.015   4.113  0.8371 -0.0828  1.4802
17666TIP3    H274490   2.243   1.022   4.093  0.4833  0.7997 -1.1068
17667TIP3   OH274491   0.161   0.555  16.348 -0.4241 -0.1783  0.1594
17667TIP3    H174492   0.226   0.600  16.294 -0.9711  0.0315 -0.3247
17667TIP3    H274493   0.163   0.603  16.431 -0.3048  0.1307 -0.0202
17668TIP3   OH274494   2.823   6.506  15.623  0.6637  0.2816  0.6080
17668TIP3    H174495   2.821   6.560  15.702  2.9602 -1.0569  1.6094
17668TIP3    H274496   2.855   6.421  15.652 -0.0528 -0.7618 -1.4900
17669TIP3   OH274497   4.770   5.894  13.165  0.0891 -0.1674 -0.2966
17669TIP3    H174498   4.751   5.982  13.199 -1.7615 -0.4412 -0.5442
17669TIP3    H274499   4.864   5.884  13.175 -0.0058  0.8966  2.0225
17670TIP3   OH274500   6.583   2.923  12.784 -0.0971 -0.4631  0.1880
17670TIP3    H174501   6.521   2.989  12.815 -0.0751  0.2962 -1.3294
17670TIP3    H274502   6.656   2.928  12.846 -0.8947 -0.3489  1.1396
17671TIP3   OH274503   3.573   6.238  12.869 -0.1347 -0.3378 -0.8413
17671TIP3    H174504   3.643   6.173  12.875  0.0426  0.0020  1.5081
17671TIP3    H274505   3.499   6.198  12.915 -0.6004  0.3862 -0.9480
17672TIP3   OH274506   3.874   1.090  11.355 -0.4502  0.1258 -0.1988
17672TIP3    H174507   3.920   1.098  11.272  0.4839 -0.6215  0.2523
17672TIP3    H274508   3.866   1.180  11.387 -1.5075  0.5020 -1.4573
17673TIP3   OH274509   6.717   4.015   2.922 -0.2655  0.2622 -0.4826
17673TIP3    H174510   6.641   4.061   2.959  0.0307 -0.6779  1.3841
17673TIP3    H274511   6.793   4.058   2.961  0.0369 -1.1662  0.5778
17674TIP3   OH274512   3.036   2.380   2.355 -0.5501 -0.4554  0.4521
17674TIP3    H174513   3.095   2.438   2.405 -1.4095  2.2160 -1.5426
17674TIP3    H274514   2.981   2.440   2.305  0.7228 -2.9878 -4.2771
17675TIP3   OH274515   3.538   3.655  10.591 -0.5896 -0.3635  0.3976
17675TIP3    H174516   3.464   3.595  10.584 -1.3001  0.4967  0.4566
17675TIP3    H274517   3.606   3.605  10.636 -0.3254 -1.9098 -1.6790
17676TIP3   OH274518   4.392   5.130  16.499  0.0138 -0.0466 -0.1777
17676TIP3    H174519   4.390   5.102  16.591 -0.1297 -1.4399 -0.5930
17676TIP3    H274520   4.485   5.129  16.475  0.2385  2.2862  0.5255
17677TIP3   OH274521   0.620   1.131   0.211  0.0991  0.7119 -0.2722
17677TIP3    H174522   0.580   1.216   0.192 -2.0179 -0.4479 -1.1715
17677TIP3    H274523   0.710   1.140   0.179  0.2012  2.9270  0.5229
17678TIP3   OH274524   1.853   5.634   5.164  0.1852  0.3105 -0.2625
17678TIP3    H174525   1.859   5.725   5.135 -1.7264  1.1051  1.7852
17678TIP3    H274526   1.943   5.602   5.158  0.8375  2.2367 -1.2509
17679TIP3   OH274527   0.081   6.377   2.152  0.2034 -0.2629  0.1895
17679TIP3    H174528   0.038   6.379   2.237 -1.7391  2.5179 -0.7883
17679TIP3    H274529   0.150   6.443   2.158  0.7739 -0.8346 -0.0312
17680TIP3   OH274530   3.954   6.381  12.250 -0.1938 -0.5518  0.0246
17680TIP3    H174531   3.972   6.288  12.265  2.3639 -0.0350  0.2471
17680TIP3    H274532   4.039   6.423  12.254 -1.5298  2.1013  1.8539
17681TIP3   OH274533   3.570   2.078   2.340  0.3607 -0.1585  0.5437
17681TIP3    H174534   3.497   2.111   2.288  0.0664  0.3678  1.2738
17681TIP3    H274535   3.529   2.044   2.420  0.7055 -1.8155  0.0454
17682TIP3   OH274536   5.296   4.913   5.887 -0.1019  0.2523 -0.0351
17682TIP3    H174537   5.387   4.940   5.903 -0.6463  0.7037  2.5422
17682TIP3    H274538   5.256   4.987   5.842  0.2697  0.9489  0.7544
17683TIP3   OH274539   3.929   6.619  12.583 -0.0497 -0.1011 -0.3929
17683TIP3    H174540   3.891   6.706  12.597 -0.1777  0.0550 -1.7176
17683TIP3    H274541   3.854   6.559  12.587  0.0014 -0.1277  0.2331
17684TIP3   OH274542   3.202   5.414   4.305  0.3271  0.7654  0.1297
17684TIP3    H174543   3.291   5.395   4.275  0.2138  2.8754 -1.7471
17684TIP3    H274544   3.215   5.473   4.379  0.5184  1.1962 -0.2380
17685TIP3   OH274545   3.840   3.597  15.329  0.4068  0.2630 -0.3954
17685TIP3    H174546   3.864   3.563  15.243  1.9299  0.3445 -0.0164
17685TIP3    H274547   3.779   3.532  15.364 -0.2026  0.2164 -1.5098
17686TIP3   OH274548   3.249   1.675  11.150 -1.0458 -0.6956 -0.1778
17686TIP3    H174549   3.171   1.717  11.114 -0.3982 -1.0634 -2.0670
17686TIP3    H274550   3.227   1.582  11.155 -0.1397 -1.0709 -2.4416
17687TIP3   OH274551   2.846   2.414  17.132  0.4809 -0.2583  0.2856
17687TIP3    H174552   2.824   2.500  17.168  1.4540  0.4637 -0.7806
17687TIP3    H274553   2.899   2.372  17.200  1.8150  0.8551 -0.0454
17688TIP3   OH274554   5.866   3.137   6.811 -0.1398 -0.0092 -0.2853
17688TIP3    H174555   5.931   3.075   6.777 -0.6017 -1.2737  1.1151
17688TIP3    H274556   5.782   3.095   6.795 -0.4684  0.3898  0.3952
17689TIP3   OH274557   4.554   6.043   0.558 -0.1381  0.5095 -0.5844
17689TIP3    H174558   4.481   6.088   0.515  0.0709  1.1395 -0.2956
17689TIP3    H274559   4.551   5.954   0.523 -1.2001  0.4519 -0.3883
17690TIP3   OH274560   1.161   1.883   0.379 -0.5616 -0.2902 -0.2900
17690TIP3    H174561   1.115   1.951   0.330 -0.5592  0.4049  0.6533
17690TIP3    H274562   1.191   1.821   0.313 -0.9513  0.4017 -1.1145
17691TIP3   OH274563   6.038   1.118   5.756  0.2729 -0.0054  0.4356
17691TIP3    H174564   6.077   1.126   5.669 -1.6371  1.3843 -0.3152
17691TIP3    H274565   5.970   1.052   5.747  0.9473 -0.8182  1.2094
17692TIP3   OH274566   5.258   6.151   5.957 -0.1821 -0.3142 -0.2088
17692TIP3    H174567   5.207   6.078   5.923 -0.6409 -0.2749  0.3819
17692TIP3    H274568   5.341   6.111   5.984  0.0571 -0.3988 -1.0567
17693TIP3   OH274569   1.560   1.460   0.888  0.4108 -0.4768  0.5493
17693TIP3    H174570   1.615   1.535   0.907  0.0231 -0.4588  1.6883
17693TIP3    H274571   1.485   1.469   0.948 -0.1788 -1.1829 -0.0589
17694TIP3   OH274572   2.362   0.529   3.661  0.9558 -0.2725  0.0867
17694TIP3    H174573   2.403   0.520   3.575 -0.7688 -0.4149 -0.7448
17694TIP3    H274574   2.329   0.442   3.681  0.1532  0.0752  0.2821
17695TIP3   OH274575   2.167   2.138  13.572  0.7828  0.1133 -0.1566
17695TIP3    H174576   2.171   2.075  13.644  0.8317 -1.2437 -1.3067
17695TIP3    H274577   2.081   2.124  13.532  0.6926  0.9578 -0.2638
17696TIP3   OH274578   5.916   4.369   3.886 -0.2489  0.5391 -0.1551
17696TIP3    H174579   5.958   4.366   3.800 -0.1397  0.6421 -0.1047
17696TIP3    H274580   5.909   4.278   3.913 -0.3699  0.5002 -0.3151
17697TIP3   OH274581   3.089   6.152   3.222 -0.6573  0.0045  0.5963
17697TIP3    H174582   3.095   6.134   3.316 -1.0658 -0.6224  0.5026
17697TIP3    H274583   3.029   6.226   3.215 -0.6187  0.0584  0.8282
17698TIP3   OH274584   0.742   3.298   1.308  0.6560  0.4110 -0.3036
17698TIP3    H174585   0.711   3.357   1.239 -1.0772  2.3448  2.0526
17698TIP3    H274586   0.673   3.301   1.374  1.4900 -2.7310  0.7920
17699TIP3   OH274587   6.701   5.816  15.797  0.1579  0.3996 -0.2279
17699TIP3    H174588   6.748   5.875  15.856  1.0700  0.0356 -0.5700
17699TIP3    H274589   6.621   5.793  15.844 -1.0071  3.1834 -0.7389
17700TIP3   OH274590   0.106   2.743   3.803 -0.0787 -0.3176  0.8075
17700TIP3    H174591   0.011   2.749   3.818 -0.4291  1.1796 -1.7762
17700TIP3    H274592   0.141   2.824   3.840  0.2602 -0.9710  1.9596
17701TIP3   OH274593   4.068   4.878   0.456 -0.6187 -0.3677 -0.3965
17701TIP3    H174594   4.011   4.853   0.530 -1.5839 -1.9039 -1.6185
17701TIP3    H274595   4.145   4.916   0.497 -0.9000 -1.6968  1.4427
17702TIP3   OH274596   0.834   5.085  13.239 -0.0485  0.2059  0.1284
17702TIP3    H174597   0.843   5.174  13.206 -1.8952  0.7512  1.0570
17702TIP3    H274598   0.921   5.047  13.228  0.4173  1.6800 -1.5357
17703TIP3   OH274599   5.691   6.081  12.786  0.0133 -0.9559  0.2920
17703TIP3    H174600   5.614   6.026  12.798 -0.7897  0.3519  1.2652
17703TIP3    H274601   5.688   6.143  12.859  0.5350  0.7891 -1.1336
17704TIP3   OH274602   4.993   4.686  13.628 -0.0806  0.2417  0.1468
17704TIP3    H174603   5.021   4.743  13.699  1.0018  0.6050 -0.5565
17704TIP3    H274604   4.919   4.637  13.664 -0.2163  1.1768  1.1679
17705TIP3   OH274605   3.936   2.349   1.427  0.2432 -0.3437 -0.2356
17705TIP3    H174606   4.021   2.324   1.389 -0.1677 -0.2248 -1.2517
17705TIP3    H274607   3.948   2.439   1.456  0.2883 -0.1120 -0.9471
17706TIP3   OH274608   6.613   2.442   5.067 -0.0143  0.0494  0.3693
17706TIP3    H174609   6.538   2.501   5.075  0.6883  0.7552  1.8542
17706TIP3    H274610   6.686   2.490   5.106  1.9572  0.5892 -3.7886
17707TIP3   OH274611   1.302   4.888   1.444 -0.1893  0.4131 -0.6856
17707TIP3    H174612   1.231   4.831   1.472  1.2858 -1.3633 -0.4474
17707TIP3    H274613   1.333   4.929   1.525 -0.4277  0.5701 -0.6760
17708TIP3   OH274614   2.957   0.702   2.050  0.1815  0.1553  0.2688
17708TIP3    H174615   2.985   0.611   2.037  0.1281  0.0565  0.8753
17708TIP3    H274616   2.944   0.711   2.144 -0.8610  0.4882  0.0982
17709TIP3   OH274617   5.507   6.120  11.399 -0.4154  0.1528  0.3226
17709TIP3    H174618   5.580   6.182  11.388 -1.5913  1.9014  1.9553
17709TIP3    H274619   5.549   6.038  11.423  1.1177  0.6276 -0.6407
17710TIP3   OH274620   5.250   4.433  14.210  0.4176  0.7363  0.6511
17710TIP3    H174621   5.162   4.467  14.228 -0.0987 -0.6722  0.9148
17710TIP3    H274622   5.290   4.497  14.152 -1.4153  0.5824 -0.8407
17711TIP3   OH274623   5.175   2.549   6.561  0.2067 -0.2131 -0.3129
17711TIP3    H174624   5.230   2.589   6.629  0.8464  0.0473 -0.9677
17711TIP3    H274625   5.230   2.478   6.526 -0.4737 -0.9285  0.0546
17712TIP3   OH274626   6.224   4.518  15.293 -0.1523 -0.2810 -0.6532
17712TIP3    H174627   6.151   4.495  15.235  0.1349  0.4785 -1.3309
17712TIP3    H274628   6.215   4.612  15.306  0.0697 -0.3715  0.1546
17713TIP3   OH274629   6.514   3.321   1.514  0.2772  0.1401 -0.0406
17713TIP3    H174630   6.527   3.317   1.609 -1.8389  0.7959  0.3089
17713TIP3    H274631   6.523   3.414   1.492 -3.8364  0.7222  0.3010
17714TIP3   OH274632   0.532   1.865  12.620  0.2963  0.1217  0.2717
17714TIP3    H174633   0.445   1.824  12.623  0.2062  0.3235  0.4446
17714TIP3    H274634   0.517   1.954  12.650  0.6018  0.0933  0.5109
17715TIP3   OH274635   2.722   2.879   2.791 -0.2016  0.1360 -0.0879
17715TIP3    H174636   2.733   2.912   2.880  0.2741  0.1593 -0.1526
17715TIP3    H274637   2.803   2.905   2.746 -0.3242 -0.1119 -0.4514
17716TIP3   OH274638   3.996   4.951   3.189  0.0238  0.1914  0.4524
17716TIP3    H174639   4.088   4.940   3.165  0.6683  0.5041  2.6046
17716TIP3    H274640   3.948   4.941   3.107  1.9998  0.3515 -0.7636
17717TIP3   OH274641   5.451   2.508  11.714  0.2023  0.3718  0.1179
17717TIP3    H174642   5.421   2.495  11.804 -1.8637 -0.8884 -0.7308
17717TIP3    H274643   5.448   2.603  11.702  0.7820  0.5736  1.4658
17718TIP3   OH274644   1.729   6.644   4.090 -0.2479 -0.1874  0.0009
17718TIP3    H174645   1.762   6.585   4.158  0.1228 -1.5166 -1.3186
17718TIP3    H274646   1.778   6.725   4.103 -0.9970 -0.0335  2.0313
17719TIP3   OH274647   0.298   0.356   6.345  0.2950  0.1869  0.2257
17719TIP3    H174648   0.388   0.382   6.368  0.0861  1.0448  0.0941
17719TIP3    H274649   0.284   0.275   6.394  0.7908  0.5879  1.0629
17720TIP3   OH274650   4.168   4.376   4.923 -0.1822  0.4904 -0.4221
17720TIP3    H174651   4.257   4.405   4.907 -0.4011  2.3070  1.4092
17720TIP3    H274652   4.122   4.455   4.951 -1.9543 -0.7397  0.2300
17721TIP3   OH274653   4.226   2.490  13.689  0.2830 -0.2241  0.2279
17721TIP3    H174654   4.215   2.540  13.608 -2.7742 -1.4778 -0.2190
17721TIP3    H274655   4.239   2.400  13.660 -0.5706 -0.6422  1.1230
17722TIP3   OH274656   3.260   4.684  12.675 -0.0355  0.1006 -0.0138
17722TIP3    H174657   3.274   4.751  12.609  1.1431 -1.7915 -1.7432
17722TIP3    H274658   3.168   4.694  12.700 -0.0197  1.9691 -0.6675
17723TIP3   OH274659   4.225   4.497   6.714 -0.0864  0.1454 -0.2699
17723TIP3    H174660   4.254   4.462   6.799  1.2325  1.5353 -0.1258
17723TIP3    H274661   4.301   4.488   6.657 -0.8408 -0.3988 -1.2097
17724TIP3   OH274662   6.129   2.019  11.312 -0.2103 -0.0221 -0.3850
17724TIP3    H174663   6.060   1.996  11.375 -1.3768  1.7554 -0.9698
17724TIP3    H274664   6.103   1.977  11.231 -1.9356  2.5933 -1.2495
17725TIP3   OH274665   1.021   2.543   2.119 -0.3668 -0.2689  0.1255
17725TIP3    H174666   1.038   2.578   2.032  0.8502 -1.6198 -0.2075
17725TIP3    H274667   0.927   2.529   2.122 -0.1249 -2.7940 -2.0102
17726TIP3   OH274668   5.541   1.937  11.082 -0.1762 -0.0629 -0.7956
17726TIP3    H174669   5.521   2.025  11.115 -0.6667 -0.6005  0.3521
17726TIP3    H274670   5.532   1.880  11.158  1.3527 -0.9456 -1.2718
17727TIP3   OH274671   4.364   2.502  14.358  0.4549  0.0962 -0.5818
17727TIP3    H174672   4.336   2.558  14.286 -1.3821  0.5556  0.4557
17727TIP3    H274673   4.336   2.414  14.333 -1.6880  0.5059  0.3015
17728TIP3   OH274674   5.342   2.655   6.107 -0.2132  0.0316  0.0796
17728TIP3    H174675   5.256   2.696   6.108 -0.6535 -0.8759  1.0536
17728TIP3    H274676   5.327   2.568   6.144  0.9919 -0.4021 -0.4239
17729TIP3   OH274677   2.512   5.548  12.711  0.2333 -0.4746 -0.0004
17729TIP3    H174678   2.457   5.469  12.702 -0.9894  0.3402  0.1461
17729TIP3    H274679   2.571   5.527  12.784  0.1783 -1.3995 -0.2117
17730TIP3   OH274680   1.318   2.048  15.283 -0.0438 -0.3141  0.0589
17730TIP3    H174681   1.267   2.125  15.257 -0.9518 -1.1193 -0.5733
17730TIP3    H274682   1.268   1.974  15.250  0.3603 -1.2286  1.4605
17731TIP3   OH274683   3.740   4.908   6.361 -0.1753 -0.5486  0.2819
17731TIP3    H174684   3.823   4.945   6.329 -0.1701 -1.4792 -0.8291
17731TIP3    H274685   3.747   4.814   6.342 -0.4521 -1.0351  2.4675
17732TIP3   OH274686   5.442   0.094   2.280  0.2636 -0.5226  0.2689
17732TIP3    H174687   5.385   0.155   2.233  1.5346  1.0515  0.7387
17732TIP3    H274688   5.528   0.136   2.280  0.8800 -1.7383  1.6906
17733TIP3   OH274689   3.715   3.242  15.587  0.3239 -0.1458 -0.3938
17733TIP3    H174690   3.668   3.247  15.504 -0.6663  0.6528  0.2101
17733TIP3    H274691   3.742   3.332  15.605 -1.4760  0.0840  1.2919
17734TIP3   OH274692   3.801   6.095  16.806  0.1386 -0.1958 -0.5696
17734TIP3    H174693   3.764   6.011  16.778 -0.9994 -0.0351  0.4149
17734TIP3    H274694   3.896   6.084  16.794  0.0207 -1.6974 -0.2474
17735TIP3   OH274695   5.600   3.072  15.003 -0.4304 -0.3175 -0.5302
17735TIP3    H174696   5.618   3.021  14.924  0.1801  0.0845 -0.6558
17735TIP3    H274697   5.629   3.015  15.075  0.1210 -0.2064 -0.6629
17736TIP3   OH274698   5.093   1.781   3.661  0.0720  0.6074  0.1103
17736TIP3    H174699   5.103   1.838   3.737 -0.3338 -0.0668  0.6765
17736TIP3    H274700   5.166   1.720   3.667 -0.9389 -0.5398  0.9290
17737TIP3   OH274701   4.607   1.721  15.459  0.2612  1.1360 -0.1253
17737TIP3    H174702   4.565   1.805  15.440  1.8418  1.9230 -0.1677
17737TIP3    H274703   4.696   1.730  15.428  1.1305  0.2730  2.0063
17738TIP3   OH274704   0.338   4.826   3.611  0.2329  0.3087  0.1984
17738TIP3    H174705   0.380   4.771   3.677  0.3834 -1.6288 -1.4738
17738TIP3    H274706   0.403   4.892   3.589  2.2122 -2.2248 -1.8334
17739TIP3   OH274707   5.974   4.691   3.556 -0.1349  0.7331 -0.1853
17739TIP3    H174708   5.933   4.722   3.475  3.6113  2.4990 -1.4951
17739TIP3    H274709   6.036   4.624   3.527 -0.3654 -0.2487  1.5314
17740TIP3   OH274710   6.543   6.311  15.133  0.0041 -0.0971  0.6716
17740TIP3    H174711   6.464   6.317  15.186 -1.2465 -0.1960 -1.1249
17740TIP3    H274712   6.546   6.219  15.105  0.9775 -0.1889  1.0635
17741TIP3   OH274713   2.096   2.373   5.352  0.4888 -0.1786  0.1741
17741TIP3    H174714   2.153   2.432   5.402 -0.6460  0.5529  0.6307
17741TIP3    H274715   2.155   2.307   5.316  1.5329  0.2089  1.1569
17742TIP3   OH274716   1.717   3.791  16.301  0.3514  0.1822 -0.6059
17742TIP3    H174717   1.651   3.730  16.268  0.0331  0.2765 -0.1462
17742TIP3    H274718   1.716   3.779  16.396 -1.1264  2.2962 -0.3164
17743TIP3   OH274719   1.094   0.158   2.663  0.4658 -0.2344  0.9236
17743TIP3    H174720   1.137   0.234   2.701  0.4228 -0.9350  2.3999
17743TIP3    H274721   1.130   0.152   2.574  1.0544  1.0276  1.0639
17744TIP3   OH274722   3.785   3.505  10.470  0.2231  0.3851 -0.6333
17744TIP3    H174723   3.819   3.432  10.418  1.9084  1.6509 -1.3535
17744TIP3    H274724   3.842   3.510  10.546  0.2961  1.1259 -0.7303
17745TIP3   OH274725   5.635   6.812   1.565  0.1537  0.2169 -0.7465
17745TIP3    H174726   5.646   6.897   1.522  2.1961 -0.4609 -1.6219
17745TIP3    H274727   5.707   6.807   1.628 -1.1607 -0.0081  0.7522
17746TIP3   OH274728   5.005   1.127  14.939  0.2797  0.3836 -0.1162
17746TIP3    H174729   4.920   1.172  14.934 -0.0817  0.0883  2.6369
17746TIP3    H274730   5.064   1.190  14.979  0.8730 -0.0851 -0.2416
17747TIP3   OH274731   4.831   0.684  16.510 -0.5387  0.1424 -0.5170
17747TIP3    H174732   4.868   0.595  16.513 -1.1403 -0.1763 -2.1074
17747TIP3    H274733   4.865   0.726  16.589 -1.3588 -1.9277  0.9891
17748TIP3   OH274734   1.168   2.900   6.012 -0.1275 -0.4078 -0.2555
17748TIP3    H174735   1.214   2.940   6.085 -0.5631  0.0431 -0.2219
17748TIP3    H274736   1.174   2.806   6.028 -0.5604 -0.2974  0.5744
17749TIP3   OH274737   2.853   6.156   4.366 -0.3084  0.8709 -0.3181
17749TIP3    H174738   2.886   6.069   4.389 -0.0338  1.2099  0.5653
17749TIP3    H274739   2.799   6.182   4.441 -0.8946  1.2073 -0.8495
17750TIP3   OH274740   5.712   5.076  10.824 -0.2313  0.4287  0.0425
17750TIP3    H174741   5.799   5.106  10.850  0.5637  0.7813 -2.7739
17750TIP3    H274742   5.710   4.984  10.849  1.2809  0.2176 -0.5417
17751TIP3   OH274743   0.589   0.438   4.633 -0.1465 -0.2095 -0.1555
17751TIP3    H174744   0.600   0.525   4.670  2.8097  0.5772 -2.6562
17751TIP3    H274745   0.648   0.382   4.684 -1.3180 -0.5714  0.8192
17752TIP3   OH274746   5.491   3.487   2.896 -0.0416 -0.2157 -0.1692
17752TIP3    H174747   5.397   3.475   2.889  0.0595 -0.3382 -1.3906
17752TIP3    H274748   5.520   3.411   2.948 -0.6404 -0.0296  0.4439
17753TIP3   OH274749   6.740   6.779  12.224 -0.8264 -0.1449  0.2405
17753TIP3    H174750   6.656   6.776  12.271 -1.0237 -0.3874 -0.1197
17753TIP3    H274751   6.805   6.797  12.292 -0.9843 -1.5515  0.7866
17754TIP3   OH274752   4.761   4.131  17.204 -0.4748 -0.0675 -0.0939
17754TIP3    H174753   4.734   4.219  17.176  0.8899 -0.4403 -2.7246
17754TIP3    H274754   4.852   4.141  17.231  0.1604 -0.9238 -1.8344
17755TIP3   OH274755   0.104   1.922   2.851  0.1568 -0.2710  0.0586
17755TIP3    H174756   0.122   1.986   2.782  0.8046  1.1709  1.5313
17755TIP3    H274757   0.168   1.942   2.920 -0.0878 -2.0626  0.8389
17756TIP3   OH274758   0.534   1.630   0.028  0.5215  0.4248  0.9427
17756TIP3    H174759   0.453   1.636  -0.023 -0.0989  0.8685  1.9615
17756TIP3    H274760   0.597   1.681  -0.022  0.4470 -0.7699 -0.3849
17757TIP3   OH274761   4.669   3.464   5.597  0.1324  0.0223 -0.0280
17757TIP3    H174762   4.692   3.545   5.642  0.0784  0.0579 -0.0637
17757TIP3    H274763   4.669   3.397   5.665  1.7441 -0.2458 -0.2681
17758TIP3   OH274764   3.993   6.232  11.212  0.1185  0.2617  0.1908
17758TIP3    H174765   3.945   6.268  11.138 -0.4618  0.0802  0.4702
17758TIP3    H274766   3.955   6.145  11.225  2.7191 -1.2113 -1.5961
17759TIP3   OH274767   5.528   0.157   3.312 -0.1395 -0.0695  0.0511
17759TIP3    H174768   5.578   0.160   3.231 -0.1228 -0.3473  0.0525
17759TIP3    H274769   5.593   0.170   3.381 -0.1896  0.4395  0.0074
17760TIP3   OH274770   0.280   6.484  15.639  0.0469  0.2399  0.1111
17760TIP3    H174771   0.227   6.532  15.703 -0.9640 -1.7041  0.7806
17760TIP3    H274772   0.366   6.477  15.681 -0.7184 -1.3851  1.5326
17761TIP3   OH274773   5.011   3.915  15.954 -0.6473  0.1476 -0.3479
17761TIP3    H174774   4.924   3.875  15.943 -0.0045 -0.8629 -1.9046
17761TIP3    H274775   5.046   3.921  15.865  1.6786 -1.2890  0.4182
17762TIP3   OH274776   4.001   4.244   5.310 -0.3831 -0.2501  0.2286
17762TIP3    H174777   3.989   4.153   5.339 -0.0066 -0.1619  0.6627
17762TIP3    H274778   3.912   4.280   5.307 -0.4096 -0.2081  1.4414
17763TIP3   OH274779   6.378   3.824   6.002 -0.3728 -0.3155  0.6954
17763TIP3    H174780   6.471   3.839   6.020 -0.6570 -0.3604  2.2666
17763TIP3    H274781   6.334   3.844   6.085 -1.9304  1.2430 -0.4540
17764TIP3   OH274782   5.409   0.281  12.275  0.2862  0.5373 -0.3425
17764TIP3    H174783   5.440   0.228  12.348  0.4590 -0.9285 -1.4487
17764TIP3    H274784   5.366   0.218  12.217 -0.5967  1.8134 -1.0906
17765TIP3   OH274785   2.949   4.752   5.512  0.2107 -0.4115  0.1107
17765TIP3    H174786   2.893   4.782   5.583 -0.2231 -0.0132 -0.3913
17765TIP3    H274787   3.002   4.829   5.489  0.4112 -0.5636  0.0659
17766TIP3   OH274788   2.436   6.714   3.770 -0.0033 -0.0487 -0.0159
17766TIP3    H174789   2.417   6.699   3.678  0.0037 -1.2770  0.1664
17766TIP3    H274790   2.377   6.784   3.796  1.4312  1.7474 -1.4469
17767TIP3   OH274791   0.338   3.588  14.790  0.3246 -0.3685 -0.1756
17767TIP3    H174792   0.323   3.572  14.697  0.2723 -0.4017 -0.1625
17767TIP3    H274793   0.264   3.545  14.834 -1.1120  1.9371 -0.2668
17768TIP3   OH274794   2.704   0.739   3.004 -0.0588 -0.3873 -0.4363
17768TIP3    H174795   2.618   0.703   3.025  0.6543 -0.9688  1.6681
17768TIP3    H274796   2.686   0.827   2.972 -1.4531 -0.6468 -0.4044
17769TIP3   OH274797   2.970   4.970   0.716  0.0340 -0.0297  0.6773
17769TIP3    H174798   2.883   4.965   0.676 -0.0169  0.0720  0.7761
17769TIP3    H274799   3.029   4.989   0.642  0.0337 -0.5632  0.5382
17770TIP3   OH274800   4.847   1.316   4.279 -0.0543 -0.2825  0.0979
17770TIP3    H174801   4.914   1.279   4.223 -0.4362 -0.0048 -0.5510
17770TIP3    H274802   4.890   1.330   4.363  1.3477  2.1035 -0.9911
17771TIP3   OH274803   1.073   6.402   2.795  0.4595 -0.1127 -0.6340
17771TIP3    H174804   1.062   6.428   2.704  0.5115 -0.4131 -0.7239
17771TIP3    H274805   1.151   6.347   2.796 -1.1827 -2.5261 -0.8954
17772TIP3   OH274806   3.026   1.496  11.581 -0.4239 -0.0048  0.3301
17772TIP3    H174807   3.005   1.589  11.575  0.2674  0.0678 -1.1743
17772TIP3    H274808   3.121   1.494  11.593 -0.6379 -0.4774  2.0250
17773TIP3   OH274809   5.606   3.706   1.084 -0.0272  0.1585  0.0136
17773TIP3    H174810   5.513   3.695   1.105 -0.1717 -1.6236 -1.5207
17773TIP3    H274811   5.609   3.783   1.027 -0.1883  1.9704  2.3296
17774TIP3   OH274812   4.102   3.379  16.667  0.0497 -0.3252  0.5028
17774TIP3    H174813   4.172   3.408  16.608 -1.6197  2.9272 -0.0228
17774TIP3    H274814   4.147   3.336  16.739  2.3195 -1.8469 -1.7214
17775TIP3   OH274815   1.209   1.634  12.394 -0.8118 -0.6112 -0.2973
17775TIP3    H174816   1.154   1.686  12.453  0.3067  1.3865 -0.9676
17775TIP3    H274817   1.282   1.605  12.449  0.3326  1.4127 -0.7065
17776TIP3   OH274818   0.597   6.065   4.604  0.1126  0.5406  0.1377
17776TIP3    H174819   0.533   6.095   4.668  0.2309 -1.1812  1.1146
17776TIP3    H274820   0.580   5.971   4.596  0.4972  0.6258 -1.9295
17777TIP3   OH274821   0.784   2.601   3.743  0.1031 -0.1886  0.3651
17777TIP3    H174822   0.782   2.695   3.725 -1.1468  0.1362  2.0681
17777TIP3    H274823   0.862   2.589   3.797  0.8364 -0.3039 -0.7087
17778TIP3   OH274824   2.735   6.626   3.162 -0.6050 -0.0591  0.0948
17778TIP3    H174825   2.819   6.670   3.148 -0.2999 -0.4223  0.7877
17778TIP3    H274826   2.744   6.583   3.247 -1.0402 -1.1449 -0.3951
17779TIP3   OH274827   3.907   5.651  17.237  0.1298 -0.1433  0.7070
17779TIP3    H174828   3.847   5.586  17.272  0.5313 -0.8496  0.0883
17779TIP3    H274829   3.992   5.628  17.274  0.2767  0.0283  0.4801
17780TIP3   OH274830   3.336   5.609  16.340  0.3433 -0.0175 -0.0335
17780TIP3    H174831   3.269   5.560  16.388 -0.0274 -0.9348 -1.4762
17780TIP3    H274832   3.400   5.544  16.314  0.0673  0.3222 -1.5972
17781TIP3   OH274833   4.559   4.166  14.049  0.0677 -0.1974  0.2116
17781TIP3    H174834   4.584   4.087  14.000  0.9761  0.1441  0.1147
17781TIP3    H274835   4.595   4.238  13.998 -2.5922  0.4326 -0.8339
17782TIP3   OH274836   0.002   3.003   2.438  0.5192 -0.9958  0.4768
17782TIP3    H174837   0.029   3.081   2.389 -1.4186 -1.1650 -0.9014
17782TIP3    H274838   0.084   2.961   2.464  1.6045 -0.9960 -2.7764
17783TIP3   OH274839   2.890   3.610   2.685 -0.7998  0.3010  0.0193
17783TIP3    H174840   2.979   3.645   2.674 -0.5456 -0.1665  0.5504
17783TIP3    H274841   2.843   3.680   2.730 -0.2961 -0.0237  1.0722
17784TIP3   OH274842   1.934   4.908  15.093 -0.3200 -0.7214  0.0475
17784TIP3    H174843   1.903   4.901  15.184 -0.8801 -0.9575 -0.1627
17784TIP3    H274844   2.022   4.944  15.101 -0.2569 -1.0085  0.7068
17785TIP3   OH274845   0.458   0.969   1.789  0.1792  0.0959  0.3924
17785TIP3    H174846   0.372   0.967   1.830  0.7720 -0.0599  1.6339
17785TIP3    H274847   0.444   1.015   1.706 -1.2198 -0.4735  0.3016
17786TIP3   OH274848   1.503   5.108   5.596  0.3943 -0.6215 -0.3401
17786TIP3    H174849   1.497   5.120   5.690  0.2505 -2.6252 -0.0725
17786TIP3    H274850   1.513   5.196   5.561  0.6030  0.1235  1.5511
17787TIP3   OH274851   3.030   1.637   5.093 -0.2409  0.0670 -0.3682
17787TIP3    H174852   3.026   1.572   5.163 -1.7135 -0.6796 -1.1265
17787TIP3    H274853   3.110   1.687   5.111  0.5101 -1.4738  0.6301
17788TIP3   OH274854   3.211   2.356  16.834 -0.0075  0.3044  0.0011
17788TIP3    H174855   3.235   2.435  16.881  2.3558 -0.5196  0.2704
17788TIP3    H274856   3.181   2.387  16.748 -0.6651  1.5757  0.6862
17789TIP3   OH274857   4.419   0.703   5.884 -0.1939 -0.0004  0.0981
17789TIP3    H174858   4.454   0.656   5.809  0.6459 -1.0310  1.1242
17789TIP3    H274859   4.338   0.657   5.906 -0.6267  0.5192 -0.3803
17790TIP3   OH274860   3.673   0.236   3.473  0.6167  0.2256 -0.3799
17790TIP3    H174861   3.717   0.211   3.392  0.1479 -1.1167 -0.2294
17790TIP3    H274862   3.596   0.179   3.478  2.2594 -1.8857  2.5147
17791TIP3   OH274863   6.639   1.232   4.608  0.1079 -0.9185  0.1458
17791TIP3    H174864   6.654   1.256   4.700 -0.2652  2.5604 -0.6695
17791TIP3    H274865   6.720   1.258   4.563  0.1455 -2.2763 -0.5976
17792TIP3   OH274866   5.382   3.917  13.172  0.2878 -0.1177 -0.3658
17792TIP3    H174867   5.336   3.981  13.226 -0.1925 -1.1505  0.4760
17792TIP3    H274868   5.442   3.873  13.233  0.8966 -0.1905 -1.0150
17793TIP3   OH274869   6.627   2.975  12.096  0.2544 -0.3686 -0.4075
17793TIP3    H174870   6.669   2.919  12.161 -1.1665 -0.2527  0.6495
17793TIP3    H274871   6.539   2.938  12.085  0.2196  0.0521 -1.7289
17794TIP3   OH274872   0.661   0.006   3.570  0.3041  0.2160 -0.1659
17794TIP3    H174873   0.752   0.023   3.545  1.0369  0.1260  2.2646
17794TIP3    H274874   0.663  -0.082   3.608 -1.3089 -0.8145 -2.3716
17795TIP3   OH274875   3.742   4.742  16.888 -0.0921  0.4886  0.0959
17795TIP3    H174876   3.805   4.773  16.954 -0.5853  1.1618  0.2567
17795TIP3    H274877   3.792   4.739  16.807  0.5593 -0.4657  0.5139
17796TIP3   OH274878   3.024   3.253  10.826 -0.0202 -0.0016 -0.4267
17796TIP3    H174879   3.034   3.161  10.848 -1.6266 -0.3767 -1.1989
17796TIP3    H274880   2.987   3.292  10.905  1.2414  0.1204  0.1204
17797TIP3   OH274881   4.727   6.820   1.298 -0.2183 -0.1870 -0.3285
17797TIP3    H174882   4.796   6.770   1.255 -0.1392 -1.0310  0.7798
17797TIP3    H274883   4.669   6.753   1.335  0.3650  0.5390  1.9372
17798TIP3   OH274884   6.048   6.741   3.353  0.7026 -1.1647  0.0497
17798TIP3    H174885   6.139   6.721   3.374  1.0346  0.2398  0.0214
17798TIP3    H274886   6.037   6.832   3.381 -0.8966 -1.5444  0.6938
17799TIP3   OH274887   2.802   0.214  11.583  0.4247  0.0608  0.8599
17799TIP3    H174888   2.852   0.165  11.648  1.7837 -0.5833 -0.6313
17799TIP3    H274889   2.795   0.155  11.508 -0.9139  0.8775  0.3063
17800TIP3   OH274890   4.318   6.467  11.450  0.2011 -0.2738 -0.0898
17800TIP3    H174891   4.337   6.453  11.542  0.3080  0.5337  0.0171
17800TIP3    H274892   4.224   6.486  11.448  0.2958  0.2030 -0.0849
17801TIP3   OH274893   5.005   0.263   0.288 -0.0690 -0.0592 -0.6049
17801TIP3    H174894   4.964   0.302   0.211 -0.1328  0.1771 -0.4509
17801TIP3    H274895   5.057   0.333   0.327 -0.7725  0.0877  0.0855
17802TIP3   OH274896   0.897   6.192   2.194  0.0972 -0.4672  0.1462
17802TIP3    H174897   0.926   6.216   2.107 -1.9951  1.1102 -0.1484
17802TIP3    H274898   0.976   6.196   2.248  1.8266 -3.5331 -2.0501
17803TIP3   OH274899   0.380   4.678  16.632 -0.3156 -0.1887 -0.1118
17803TIP3    H174900   0.317   4.665  16.703 -0.1119 -0.0834  0.0862
17803TIP3    H274901   0.464   4.653  16.669 -0.3431 -1.0305 -0.6072
17804TIP3   OH274902   0.394   3.104   2.848  0.1428  0.1020  0.2178
17804TIP3    H174903   0.419   3.141   2.933 -2.9548  1.2145  0.7135
17804TIP3    H274904   0.392   3.179   2.789  2.0523 -0.6316 -0.8343
17805TIP3   OH274905   4.204   6.527  16.037 -0.6123 -0.0157 -0.4058
17805TIP3    H174906   4.254   6.593  16.085 -1.3917  0.2388  0.0618
17805TIP3    H274907   4.136   6.499  16.098 -0.9201 -0.5086 -0.9701
17806TIP3   OH274908   6.186   6.080   3.155 -0.5599 -0.3989 -0.0186
17806TIP3    H174909   6.098   6.047   3.139 -0.3738 -0.2391 -1.4168
17806TIP3    H274910   6.244   6.008   3.127 -0.1890  0.5214 -1.6651
17807TIP3   OH274911   1.022   6.178  11.808  0.3116  0.0043  0.3668
17807TIP3    H174912   1.089   6.186  11.740  0.8057 -1.0614  0.7249
17807TIP3    H274913   0.990   6.268  11.821 -0.4119  0.1003 -1.8996
17808TIP3   OH274914   0.052   6.661  11.866 -0.0238 -0.2673  0.2244
17808TIP3    H174915   0.043   6.710  11.784 -1.9266 -1.3322 -0.2400
17808TIP3    H274916   0.135   6.691  11.903  0.4210  0.9005 -1.6421
17809TIP3   OH274917   4.049   2.101  13.778 -0.4762  0.2555  0.1749
17809TIP3    H174918   3.993   2.032  13.742  0.6894  0.4332 -2.0335
17809TIP3    H274919   4.136   2.060  13.786 -0.6193  0.3229  2.5096
17810TIP3   OH274920   1.203   2.180   0.316  0.3603  0.4795 -0.6380
17810TIP3    H174921   1.180   2.211   0.228 -0.5083  1.8788  0.0617
17810TIP3    H274922   1.125   2.198   0.369  1.1004  0.2267  0.5549
17811TIP3   OH274923   4.532   0.214   2.366  0.3797  0.8969 -0.1028
17811TIP3    H174924   4.508   0.124   2.345  0.6118  1.3679 -2.4461
17811TIP3    H274925   4.454   0.265   2.344  0.9094  1.5076 -0.5478
17812TIP3   OH274926   5.302   0.058   1.517  0.2852  0.2932  0.1268
17812TIP3    H174927   5.227   0.038   1.460  0.9231 -0.6443 -0.4012
17812TIP3    H274928   5.331  -0.027   1.548  0.8956  0.6907  0.6389
17813TIP3   OH274929   4.686   6.794  12.804 -0.6131  0.1008 -0.1550
17813TIP3    H174930   4.642   6.844  12.873  0.3579  1.4910 -0.5141
17813TIP3    H274931   4.617   6.776  12.740 -0.8869  1.3993 -0.2395
17814TIP3   OH274932   5.063   3.189   2.083  0.2398 -0.4721 -0.0889
17814TIP3    H174933   5.028   3.256   2.025 -0.8333 -1.9126 -1.1450
17814TIP3    H274934   5.089   3.236   2.163 -0.8837  1.1098 -0.6506
17815TIP3   OH274935   2.557   3.251  12.461 -0.0623  0.7186 -0.2973
17815TIP3    H174936   2.531   3.319  12.523 -2.8115  0.7625 -1.4039
17815TIP3    H274937   2.535   3.169  12.505  0.8301  0.6290 -0.0087
17816TIP3   OH274938   3.469   5.983   1.908  0.1384  0.2635  0.2076
17816TIP3    H174939   3.483   6.031   1.827  0.9607 -1.0551 -0.4451
17816TIP3    H274940   3.539   6.013   1.967  0.6670 -0.1497 -0.2072
17817TIP3   OH274941   2.998   0.381   3.580 -0.1277 -0.1835  0.1997
17817TIP3    H174942   2.915   0.366   3.627 -1.4624 -0.8046 -2.2581
17817TIP3    H274943   2.990   0.469   3.545  0.2821 -0.2281 -0.0030
17818TIP3   OH274944   6.149   4.352  13.728 -0.5159  0.1561  0.2556
17818TIP3    H174945   6.111   4.439  13.728 -0.0821  0.3482  0.7820
17818TIP3    H274946   6.087   4.299  13.778 -0.7962  0.1536 -0.0928
17819TIP3   OH274947   1.183   2.908  11.287 -0.3605 -0.3429 -0.1082
17819TIP3    H174948   1.167   2.835  11.227 -0.3486  0.7643 -1.4839
17819TIP3    H274949   1.115   2.900  11.354 -0.4723 -1.5046 -0.3589
17820TIP3   OH274950   4.545   3.137   0.862  0.2652 -0.2111 -0.6967
17820TIP3    H174951   4.503   3.088   0.791 -0.6922 -1.5018  0.7361
17820TIP3    H274952   4.541   3.228   0.834  0.8306 -0.7960 -2.7836
17821TIP3   OH274953   3.574   6.738  11.778 -0.5632  0.1361  0.4951
17821TIP3    H174954   3.497   6.687  11.802 -1.6920  0.5028 -2.1605
17821TIP3    H274955   3.542   6.803  11.716  1.9382  0.0198 -1.0155
17822TIP3   OH274956   5.973   3.983   3.284  0.2003 -0.3219 -1.0625
17822TIP3    H174957   5.938   3.907   3.237  1.0081 -0.7972 -0.8998
17822TIP3    H274958   5.897   4.039   3.299 -0.6505 -1.7246 -0.0110
17823TIP3   OH274959   1.534   4.200  17.071 -0.4559  0.0240  0.1672
17823TIP3    H174960   1.467   4.259  17.038 -1.8984 -1.9629 -0.5891
17823TIP3    H274961   1.526   4.121  17.017  1.4237 -0.8589  1.1085
17824TIP3   OH274962   1.432   4.770  15.440 -0.0178 -0.0836 -0.3614
17824TIP3    H174963   1.527   4.785  15.435 -0.1833  1.1181  0.1416
17824TIP3    H274964   1.423   4.675  15.432  1.2670 -0.2602  0.1564
17825TIP3   OH274965   0.625   2.539  15.189 -0.0927 -0.2589  0.8395
17825TIP3    H174966   0.608   2.545  15.283  0.6335 -2.0183  1.0889
17825TIP3    H274967   0.538   2.533  15.150 -0.3671 -0.4528  1.4688
17826TIP3   OH274968   5.721   3.192  14.724  0.1980 -0.4862  0.5426
17826TIP3    H174969   5.772   3.119  14.758 -0.2930 -0.6942  0.8528
17826TIP3    H274970   5.759   3.270  14.765  0.9605 -0.5270 -0.0739
17827TIP3   OH274971   4.417   2.010  12.209  0.2417 -0.1045  0.0163
17827TIP3    H174972   4.362   1.952  12.158  0.2210 -0.3422  0.3106
17827TIP3    H274973   4.372   2.019  12.293  1.7719 -2.0804  1.0691
17828TIP3   OH274974   3.485   4.845  15.172 -0.1131  0.0584 -0.3345
17828TIP3    H174975   3.450   4.877  15.088 -0.2092  0.1700 -0.2525
17828TIP3    H274976   3.468   4.917  15.233  0.1146  0.0472 -0.2591
17829TIP3   OH274977   1.925   1.387  15.096  0.5713  0.4302 -0.0374
17829TIP3    H174978   1.989   1.423  15.157  3.7271 -0.0508 -2.9147
17829TIP3    H274979   1.913   1.455  15.029 -0.7326 -0.1208 -0.3913
17830TIP3   OH274980   5.475   0.932   0.666 -0.0608  0.2586 -0.1730
17830TIP3    H174981   5.455   0.997   0.734 -0.3718 -0.6122  0.5676
17830TIP3    H274982   5.460   0.979   0.584  0.7664  1.4657  0.3365
17831TIP3   OH274983   3.124   1.782   0.253  0.0171  0.1746 -0.3049
17831TIP3    H174984   3.206   1.749   0.216 -0.7623 -0.1032 -1.8354
17831TIP3    H274985   3.105   1.725   0.327  0.6584 -0.4229 -0.6015
17832TIP3   OH274986   5.611   0.652   2.892 -0.6829 -0.1074  0.3382
17832TIP3    H174987   5.605   0.711   2.816 -0.0892  1.1270  1.2345
17832TIP3    H274988   5.671   0.583   2.864  0.9724  1.3101  0.2895
17833TIP3   OH274989   1.641   0.831  11.344 -0.1511  0.7367  0.3990
17833TIP3    H174990   1.591   0.868  11.271 -2.5598 -0.7113  1.2396
17833TIP3    H274991   1.687   0.756  11.307 -0.9632  0.3174  0.2172
17834TIP3   OH274992   0.480   1.666   0.470 -0.3551  0.1314  0.3647
17834TIP3    H174993   0.482   1.571   0.467 -2.6654  0.0983 -1.3218
17834TIP3    H274994   0.407   1.687   0.528  0.1955  0.8884  0.7969
17835TIP3   OH274995   2.010   3.258   5.563 -0.6472  0.0570 -0.3199
17835TIP3    H174996   1.970   3.288   5.644 -0.2535 -0.8464  0.2278
17835TIP3    H274997   1.940   3.213   5.516 -0.2187 -1.8388  0.8014
17836TIP3   OH274998   4.516   1.527   4.629 -0.0808  0.0050 -0.6751
17836TIP3    H174999   4.464   1.486   4.699 -0.0673  0.8160 -0.1751
17836TIP3    H275000   4.476   1.497   4.548  1.1303 -2.5418 -0.3632
17837TIP3   OH275001   0.464   3.647   0.111 -0.7209  0.9227  0.2946
17837TIP3    H175002   0.510   3.587   0.053 -1.7571  0.0334  0.3671
17837TIP3    H275003   0.372   3.619   0.106 -0.6809  0.0487  3.2518
17838TIP3   OH275004   2.472   6.740   4.439 -0.2699  0.5495 -0.5350
17838TIP3    H175005   2.562   6.771   4.449 -0.5326  0.6357  1.9400
17838TIP3    H275006   2.424   6.783   4.510 -1.6178 -1.8587  0.0590
17839TIP3   OH275007   1.735   1.259  14.428 -0.2637  0.2701  0.8046
17839TIP3    H175008   1.771   1.346  14.446  0.4104 -0.3326  2.4905
17839TIP3    H275009   1.662   1.250  14.489 -1.3544  0.2933 -0.5003
17840TIP3   OH275010   1.627   3.491  13.425  0.4449 -0.1785 -0.0771
17840TIP3    H175011   1.649   3.518  13.336  3.1063 -1.5824  0.0783
17840TIP3    H275012   1.659   3.401  13.431 -2.9374 -1.3858  1.2096
17841TIP3   OH275013   2.652   6.541   6.093  0.0818  0.3527 -0.0498
17841TIP3    H175014   2.613   6.502   6.171 -0.0698 -1.2155 -0.8936
17841TIP3    H275015   2.736   6.496   6.083 -0.6695 -0.7482 -1.7745
17842TIP3   OH275016   2.942   5.132   0.404  0.0373  0.3628 -0.0463
17842TIP3    H175017   2.884   5.135   0.329  1.1397  0.9149 -0.8843
17842TIP3    H275018   2.988   5.049   0.396  1.0469  0.9640 -0.6791
17843TIP3   OH275019   4.941   5.521  11.456  0.1745  0.3718  0.0594
17843TIP3    H175020   4.923   5.564  11.372 -0.4830  0.9137  0.4667
17843TIP3    H275021   4.977   5.436  11.432  2.6246  1.5866 -0.7692
17844TIP3   OH275022   3.249   1.193   4.524  0.5346  0.4411 -0.0719
17844TIP3    H175023   3.209   1.108   4.539 -0.8487  1.2323  0.8751
17844TIP3    H275024   3.283   1.189   4.435  2.0506 -1.6986  0.5746
17845TIP3   OH275025   5.330   2.424   6.256 -0.1260  0.1251 -0.6082
17845TIP3    H175026   5.358   2.399   6.345 -1.8744 -0.1306 -0.1102
17845TIP3    H275027   5.296   2.343   6.219  0.9667  0.1449 -1.6768
17846TIP3   OH275028   0.836   0.837   5.954 -0.1275 -0.6343 -0.4643
17846TIP3    H175029   0.906   0.823   5.891  0.8566  2.8722 -0.2262
17846TIP3    H275030   0.880   0.839   6.039 -0.6899  0.1994 -0.1811
17847TIP3   OH275031   4.880   4.442  16.858  0.0038  0.1199 -0.1708
17847TIP3    H175032   4.799   4.458  16.906  0.2021  1.2743 -0.1901
17847TIP3    H275033   4.872   4.497  16.779  0.0907 -1.0234 -0.9880
17848TIP3   OH275034   2.068   3.193  14.742  0.1968  0.7055  0.3828
17848TIP3    H175035   2.032   3.248  14.812  0.1878  1.7325 -0.4208
17848TIP3    H275036   2.086   3.254  14.671 -1.7606 -0.6212 -1.3068
17849TIP3   OH275037   0.481   0.153   0.664  0.0476 -0.4530 -0.7162
17849TIP3    H175038   0.431   0.194   0.594 -1.1086  2.1679  1.5103
17849TIP3    H275039   0.572   0.160   0.636 -0.4737 -0.3882 -2.4189
17850TIP3   OH275040   1.657   4.458   5.175  0.0680 -0.6941 -0.0481
17850TIP3    H175041   1.683   4.381   5.123 -1.4573 -0.3644 -1.3342
17850TIP3    H275042   1.576   4.489   5.133  1.1132  2.1215 -0.0796
17851TIP3   OH275043   5.040   6.129   6.505 -0.2404 -0.0645 -0.2600
17851TIP3    H175044   4.959   6.162   6.466 -1.1984 -0.6158  1.2059
17851TIP3    H275045   5.066   6.058   6.447 -0.2549  0.7651 -1.2997
17852TIP3   OH275046   3.559   0.306  11.934 -0.2213 -0.1222 -0.0943
17852TIP3    H175047   3.481   0.320  11.881  1.0286  0.4838 -1.8431
17852TIP3    H275048   3.621   0.372  11.902  1.3035 -1.1946  0.6256
17853TIP3   OH275049   1.248   3.100   5.357  0.4086  0.1421 -0.0092
17853TIP3    H175050   1.174   3.160   5.352  0.1132 -0.1640  0.5909
17853TIP3    H275051   1.259   3.067   5.268 -2.0915 -2.1082  0.4492
17854TIP3   OH275052   6.476   0.201   5.515  0.2429  0.0583  0.7216
17854TIP3    H175053   6.514   0.289   5.526  0.0981  0.3560 -1.0937
17854TIP3    H275054   6.429   0.205   5.432  0.3203 -1.7799  0.5696
17855TIP3   OH275055   3.089   2.934   4.862 -0.0566 -0.4602  0.1539
17855TIP3    H175056   3.168   2.989   4.862  0.7306 -1.5060  2.2764
17855TIP3    H275057   3.067   2.922   4.770 -0.2795  3.4165 -0.3595
17856TIP3   OH275058   3.858   3.580  16.706  0.4021  0.3754 -0.3141
17856TIP3    H175059   3.776   3.539  16.733  0.7322 -0.3257 -0.3561
17856TIP3    H275060   3.926   3.518  16.734  0.9793  1.4478  0.6721
17857TIP3   OH275061   4.932   1.629   4.797  0.2702 -0.1317  0.6256
17857TIP3    H175062   4.919   1.581   4.716 -1.1609 -0.1466  0.8426
17857TIP3    H275063   4.965   1.715   4.769 -0.8379  0.0917 -0.0191
17858TIP3   OH275064   6.213   6.013  16.464 -0.3668 -0.3863 -0.1359
17858TIP3    H175065   6.283   6.064  16.505 -2.6689  1.0334  2.1709
17858TIP3    H275066   6.229   6.022  16.370  2.2277  0.3586  0.3502
17859TIP3   OH275067   0.896   0.050   4.302 -0.5292 -0.0449  0.2968
17859TIP3    H175068   0.807   0.072   4.275 -0.4259 -0.9659 -0.8167
17859TIP3    H275069   0.888   0.030   4.396 -1.3070  0.8723  0.4314
17860TIP3   OH275070   4.111   1.941  12.902  0.6766  0.7133 -0.3814
17860TIP3    H175071   4.202   1.925  12.880  0.5484  0.3887 -0.6771
17860TIP3    H275072   4.070   1.967  12.819  0.4938  0.8187 -0.2606
17861TIP3   OH275073   4.720   5.141   2.653 -0.3273  0.0385 -0.1774
17861TIP3    H175074   4.813   5.136   2.678 -0.5847 -1.2610  0.5769
17861TIP3    H275075   4.714   5.219   2.598  1.2225  0.1260 -0.2450
17862TIP3   OH275076   4.290   1.673  16.607 -0.8369 -0.3588 -0.1553
17862TIP3    H175077   4.232   1.679  16.531 -1.5601 -0.5874  0.3767
17862TIP3    H275078   4.378   1.676  16.570 -1.1860 -0.3547 -0.9946
17863TIP3   OH275079   6.481   1.010   2.569 -0.2137  0.3325  0.0159
17863TIP3    H175080   6.549   0.945   2.552 -1.0791 -0.3102 -1.0812
17863TIP3    H275081   6.525   1.080   2.618  1.4499  0.3970 -1.5558
17864TIP3   OH275082   3.901   4.262  16.875 -0.5654  0.7652  0.2346
17864TIP3    H175083   3.906   4.357  16.864 -1.0334  0.6890 -0.6433
17864TIP3    H275084   3.816   4.238  16.838  0.4789 -0.2658 -1.5716
17865TIP3   OH275085   4.940   0.103  12.390  0.0495 -0.2726 -0.2791
17865TIP3    H175086   4.886   0.096  12.468  0.4380  0.1426  0.0368
17865TIP3    H275087   4.912   0.031  12.334 -1.1778  0.2516 -0.3419
17866TIP3   OH275088   5.444   4.565  13.483  0.3841  0.8740 -0.2764
17866TIP3    H175089   5.412   4.491  13.430 -0.1695  0.8437  0.0907
17866TIP3    H275090   5.490   4.523  13.556 -0.2938  0.8762  0.1608
17867TIP3   OH275091   3.068   1.883  13.251  0.0529 -0.2888  0.0510
17867TIP3    H175092   3.005   1.887  13.178 -0.3200 -1.0489  0.3339
17867TIP3    H275093   3.072   1.973  13.283  1.0641  0.2879 -1.6131
17868TIP3   OH275094   6.316   2.391   6.368  0.1609  0.4235 -0.2306
17868TIP3    H175095   6.369   2.323   6.410  0.4744  0.7320 -0.1279
17868TIP3    H275096   6.241   2.403   6.426 -0.2476 -0.3182 -0.5870
17869TIP3   OH275097   0.739   3.878  12.448  1.2100  0.0142 -0.4931
17869TIP3    H175098   0.705   3.939  12.513  3.4515  1.4337 -0.5781
17869TIP3    H275099   0.694   3.796  12.466  0.9920  0.6685  2.1696
17870TIP3   OH275100   3.583   1.584  12.204  0.3010  0.4683  0.3318
17870TIP3    H175101   3.549   1.673  12.218 -1.1733  0.0633 -0.5018
17870TIP3    H275102   3.580   1.572  12.109  3.1021  0.5027  0.1942
17871TIP3   OH275103   5.797   6.559  13.528 -0.3702 -0.0353  0.2156
17871TIP3    H175104   5.877   6.555  13.582 -1.2514  0.8492  1.6143
17871TIP3    H275105   5.778   6.468  13.507  0.8863 -0.2735  0.0492
17872TIP3   OH275106   2.685   1.366  14.434 -0.1854 -0.1282 -0.2027
17872TIP3    H175107   2.599   1.379  14.475  0.5762  2.0601  0.7866
17872TIP3    H275108   2.686   1.427  14.360  0.5434 -0.0794 -0.1528
17873TIP3   OH275109   2.729   5.057  15.578 -0.7750 -0.3171 -0.7175
17873TIP3    H175110   2.785   5.133  15.595 -0.8304  0.1986 -2.7648
17873TIP3    H275111   2.777   4.983  15.614 -0.2471  0.5388  0.3825
17874TIP3   OH275112   5.655   1.406   6.500  0.7123 -0.1230 -0.1080
17874TIP3    H175113   5.731   1.461   6.518  1.2608 -1.8132  3.1139
17874TIP3    H275114   5.663   1.333   6.562 -2.0053 -1.8422 -1.6770
17875TIP3   OH275115   2.286   4.300   0.085 -0.2122  0.2698  0.2057
17875TIP3    H175116   2.200   4.324   0.117 -0.1124  1.3652 -0.3235
17875TIP3    H275117   2.294   4.344   0.000 -0.5346 -2.6910 -1.4333
17876TIP3   OH275118   3.386   0.925   1.909  0.3055 -0.0632  0.0950
17876TIP3    H175119   3.336   0.850   1.940 -0.3243  0.8273  1.2458
17876TIP3    H275120   3.477   0.895   1.908  0.1628 -0.5497  1.4461
17877TIP3   OH275121   6.113   3.073   5.296 -0.1009  0.6209  0.0006
17877TIP3    H175122   6.027   3.079   5.253 -0.1475 -0.2567 -0.0471
17877TIP3    H275123   6.176   3.094   5.227 -0.1479 -1.3107 -0.6534
17878TIP3   OH275124   3.419   1.919  13.690 -0.2769  0.8055 -0.1965
17878TIP3    H175125   3.457   1.916  13.778 -1.9433 -1.1388  0.5002
17878TIP3    H275126   3.452   2.000  13.652  2.0567  0.6990  1.4981
17879TIP3   OH275127   4.098   0.149   0.048  0.2309  0.0940 -0.6578
17879TIP3    H175128   4.183   0.135   0.006  0.3306 -1.1862 -0.0436
17879TIP3    H275129   4.061   0.061   0.058 -0.3401  0.4832  0.7791
17880TIP3   OH275130   4.494   4.595   1.125 -0.0262 -0.4122  0.0633
17880TIP3    H175131   4.564   4.529   1.120 -0.4833 -0.8844 -0.1471
17880TIP3    H275132   4.456   4.596   1.038 -0.1408  0.0046  0.1194
17881TIP3   OH275133   1.982   4.980   4.341  0.7051 -0.3228 -0.5250
17881TIP3    H175134   2.060   5.002   4.290  0.7195 -0.0529 -0.3887
17881TIP3    H275135   1.947   5.064   4.368  1.2083 -0.4862  0.6712
17882TIP3   OH275136   1.992   0.188  13.461 -0.1126 -0.0569  0.5103
17882TIP3    H175137   1.956   0.104  13.431 -1.4562  0.7345 -0.1241
17882TIP3    H275138   2.077   0.194  13.419  0.7685 -1.9050  1.9403
17883TIP3   OH275139   4.268   6.157   2.439 -0.3754 -0.1651 -0.0092
17883TIP3    H175140   4.294   6.247   2.460  0.8807 -0.2769 -1.0018
17883TIP3    H275141   4.177   6.165   2.410 -0.3500  0.7571  0.1503
17884TIP3   OH275142   1.513   2.862  14.925  0.3832 -0.0405 -0.1028
17884TIP3    H175143   1.490   2.868  14.833 -2.1230  2.2343  0.6074
17884TIP3    H275144   1.471   2.939  14.966 -0.6872 -2.3292  3.3357
17885TIP3   OH275145   1.565   0.066   3.850  0.1757 -0.1668 -0.5482
17885TIP3    H175146   1.563  -0.029   3.843 -0.4693 -0.2848  0.9656
17885TIP3    H275147   1.632   0.084   3.916  1.2159  0.5048 -1.7606
17886TIP3   OH275148   4.228   4.571  16.039 -1.2891  1.3322 -0.3826
17886TIP3    H175149   4.272   4.510  16.098 -0.7296 -0.3492 -2.4789
17886TIP3    H275150   4.135   4.549  16.046 -1.1822  0.8638 -0.4336
17887TIP3   OH275151   5.218   0.232  15.804 -0.2932  0.2945  0.4775
17887TIP3    H175152   5.274   0.282  15.745 -0.3878 -2.9206 -2.5026
17887TIP3    H275153   5.130   0.267  15.790  0.1890  2.0071  1.5142
17888TIP3   OH275154   4.609   2.671   2.878  0.2210 -0.1615  0.0450
17888TIP3    H175155   4.527   2.673   2.827  0.1307 -0.8201  0.1590
17888TIP3    H275156   4.611   2.583   2.916  0.5612  0.1462  0.7395
17889TIP3   OH275157   5.990   2.892  16.822 -0.3028  0.0145 -0.7680
17889TIP3    H175158   6.084   2.873  16.832 -0.1762  1.6902  1.5819
17889TIP3    H275159   5.946   2.813  16.852  0.3387 -0.4821 -1.1070
17890TIP3   OH275160   3.702   5.391  13.326 -0.2810 -0.7606  0.0994
17890TIP3    H175161   3.764   5.428  13.389  0.7555  1.5840 -2.1832
17890TIP3    H275162   3.626   5.448  13.331  0.2246  0.0879 -1.4669
17891TIP3   OH275163   4.429   3.124  12.801  0.1811 -0.1456 -0.0980
17891TIP3    H175164   4.369   3.169  12.741 -0.4552 -1.0290 -0.1164
17891TIP3    H275165   4.506   3.182  12.805  0.3959 -0.2554 -2.0668
17892TIP3   OH275166   5.564   3.060   4.844  0.0389  0.0076  0.4413
17892TIP3    H175167   5.508   3.033   4.772  2.7992 -2.0170 -1.0406
17892TIP3    H275168   5.621   3.127   4.806  0.4896  0.0549  1.1815
17893TIP3   OH275169   4.070   4.168  13.469  0.4905 -0.4778  0.0965
17893TIP3    H175170   4.135   4.107  13.505  2.7309  0.8965 -1.5077
17893TIP3    H275171   4.115   4.252  13.464 -1.7897  0.7936 -0.0426
17894TIP3   OH275172   1.072   1.039  13.351 -0.1215 -0.9111  0.3400
17894TIP3    H175173   0.989   1.016  13.310 -0.5007 -0.5962  0.9264
17894TIP3    H275174   1.120   1.086  13.282  0.3301 -2.6710 -0.5833
17895TIP3   OH275175   3.650   4.389   0.083 -0.9122 -0.4861  0.1426
17895TIP3    H175176   3.734   4.377   0.127 -0.7620 -0.4319 -0.1257
17895TIP3    H275177   3.586   4.352   0.142 -0.8749  0.8664  1.0615
17896TIP3   OH275178   6.490   0.354   4.227  0.0443 -0.2690 -0.1338
17896TIP3    H175179   6.394   0.356   4.229  0.0594  0.4468  0.1632
17896TIP3    H275180   6.513   0.269   4.264 -0.4672 -0.2983  0.1230
17897TIP3   OH275181   4.556   5.071   0.067  0.2245  0.1003 -0.4709
17897TIP3    H175182   4.545   5.060   0.162 -0.8722 -0.4103 -0.6454
17897TIP3    H275183   4.552   5.166   0.053  2.2616  0.3091  0.1941
17898TIP3   OH275184   2.878   4.604  12.564  0.2089 -0.1076 -0.0135
17898TIP3    H175185   2.879   4.635  12.473 -0.6312  1.7983  0.5911
17898TIP3    H275186   2.875   4.509  12.557  0.7499 -0.0007 -1.9833
17899TIP3   OH275187   0.425   2.348   3.902  0.2605 -0.1307 -0.6401
17899TIP3    H175188   0.463   2.435   3.913  0.3845 -0.3589  0.7850
17899TIP3    H275189   0.354   2.360   3.839 -0.1951  1.1449  0.1050
17900TIP3   OH275190   1.897   4.442   6.294  0.6969  0.4186 -0.1380
17900TIP3    H175191   1.865   4.528   6.321  0.7903  0.3534  0.1839
17900TIP3    H275192   1.959   4.418   6.362 -1.4332 -1.1645  1.3119
17901TIP3   OH275193   2.519   5.584   0.036 -0.1967 -0.1262 -0.8234
17901TIP3    H175194   2.592   5.591   0.097 -0.5756  0.3892 -0.4237
17901TIP3    H275195   2.448   5.545   0.087 -0.7157  0.8917 -0.7572
17902TIP3   OH275196   4.036   0.127   2.796 -0.2725  0.1639 -0.3956
17902TIP3    H175197   4.072   0.107   2.710 -0.0660  0.3987 -0.3630
17902TIP3    H275198   4.111   0.152   2.849 -0.2511 -1.0180  0.1634
17903TIP3   OH275199   2.910   3.730   5.705 -0.5749 -0.6280 -0.3474
17903TIP3    H175200   2.836   3.693   5.657  0.2864 -0.8569 -1.5376
17903TIP3    H275201   2.977   3.662   5.702  0.5776  0.5196 -1.4880
17904TIP3   OH275202   3.351   4.374   5.671 -0.3115 -0.5067 -0.4277
17904TIP3    H175203   3.333   4.383   5.578  0.1490  2.6284 -0.2461
17904TIP3    H275204   3.446   4.362   5.676 -0.1201  0.9856 -0.2829
17905TIP3   OH275205   2.175   6.485  16.778  0.4230 -0.0210 -0.0043
17905TIP3    H175206   2.221   6.535  16.845 -0.6637 -0.6561  1.2411
17905TIP3    H275207   2.225   6.404  16.769  0.3650 -0.0868  0.2822
17906TIP3   OH275208   4.887   0.040   0.420  0.0959 -0.4344 -0.2707
17906TIP3    H175209   4.923  -0.048   0.406  2.2349  0.1518  1.2358
17906TIP3    H275210   4.932   0.094   0.356 -2.1817 -0.6055 -2.0956
17907TIP3   OH275211   6.438   5.792  15.928  0.1736  0.0663  0.4969
17907TIP3    H175212   6.446   5.886  15.940 -1.8434  0.4041 -0.6599
17907TIP3    H275213   6.346   5.778  15.906  0.4219 -2.1858  0.7977
17908TIP3   OH275214   2.959   3.854   3.740  0.1440  0.4717  0.6184
17908TIP3    H175215   2.987   3.839   3.649 -1.2408  1.9197 -0.0635
17908TIP3    H275216   3.020   3.921   3.772  0.2783  0.3731  0.5705
17909TIP3   OH275217   1.613   4.246   1.541 -0.5511 -0.1545  0.3213
17909TIP3    H175218   1.587   4.169   1.592 -0.5480 -0.1823  0.2806
17909TIP3    H275219   1.574   4.319   1.588 -0.5983 -0.1854  0.3310
17910TIP3   OH275220   5.645   4.758   4.030 -0.2861 -0.5247  0.2410
17910TIP3    H175221   5.726   4.810   4.024 -0.3312 -0.3488  1.1081
17910TIP3    H275222   5.664   4.693   4.097  0.0946 -2.2322 -1.4636
17911TIP3   OH275223   1.748   3.321   4.894  0.1237 -0.1073 -0.3178
17911TIP3    H175224   1.701   3.252   4.940 -0.6645 -1.3123 -2.7991
17911TIP3    H275225   1.735   3.400   4.947 -0.7712 -1.4102  1.4346
17912TIP3   OH275226   4.323   2.420  14.628 -0.1566  0.0651  0.2761
17912TIP3    H175227   4.279   2.352  14.577  1.3663  0.0730 -1.1118
17912TIP3    H275228   4.370   2.472  14.562 -0.1237  1.5759  1.4595
17913TIP3   OH275229   5.232   3.340   4.911  0.4831 -0.9091 -0.4342
17913TIP3    H175230   5.287   3.351   4.834  0.1648  1.0053 -0.4143
17913TIP3    H275231   5.292   3.346   4.985  0.2782  1.3418 -0.4064
17914TIP3   OH275232   0.691   0.025  13.302  0.2993  0.2740 -0.1056
17914TIP3    H175233   0.768   0.066  13.341  0.8153 -2.2031  1.6199
17914TIP3    H275234   0.725  -0.054  13.260 -0.8366  0.9209 -2.2981
17915TIP3   OH275235   4.456   3.322  13.499 -0.1366 -0.3076  0.1941
17915TIP3    H175236   4.523   3.302  13.565 -0.6224  0.3221  0.8920
17915TIP3    H275237   4.470   3.257  13.430  0.1120 -1.2464  1.1188
17916TIP3   OH275238   6.281   5.988   5.349 -0.5701 -0.4298  0.1768
17916TIP3    H175239   6.206   5.952   5.302 -0.3887 -0.4629 -0.0903
17916TIP3    H275240   6.244   6.055   5.407 -0.6647  0.3730 -0.8021
17917TIP3   OH275241   1.336   5.684  17.099  0.0452 -0.6457 -0.5618
17917TIP3    H175242   1.278   5.699  17.024 -0.6065  2.3308  0.4320
17917TIP3    H275243   1.278   5.651  17.167  0.0464 -0.4153 -0.4475
17918TIP3   OH275244   6.787   3.373   3.715 -0.1227  0.2100 -0.0799
17918TIP3    H175245   6.800   3.342   3.804 -0.2453 -1.3261 -0.5887
17918TIP3    H275246   6.873   3.405   3.688  0.4908 -1.5786 -0.2648
17919TIP3   OH275247   4.408   2.356  13.291 -0.0404  0.8686  0.3451
17919TIP3    H175248   4.463   2.407  13.350  0.5406  1.3395 -0.5767
17919TIP3    H275249   4.373   2.420  13.229  0.6153  0.1786 -0.7637
17920TIP3   OH275250   1.803   1.743  12.512  0.0962  0.7267 -0.1748
17920TIP3    H175251   1.748   1.811  12.475  0.5633  1.4716  0.4772
17920TIP3    H275252   1.800   1.672  12.449 -0.9344  1.0935 -0.5357
17921TIP3   OH275253   2.425   0.611  13.661  0.1258 -0.4658 -0.1967
17921TIP3    H175254   2.500   0.594  13.719 -0.8699 -1.7656  0.7559
17921TIP3    H275255   2.348   0.597  13.716 -0.8435  1.3873 -1.0161
17922TIP3   OH275256   6.378   2.179   3.594  0.5283  0.0306 -0.1165
17922TIP3    H175257   6.336   2.265   3.604 -0.6560 -0.5740  0.1646
17922TIP3    H275258   6.384   2.166   3.499  1.3699  0.7394 -0.1658
17923TIP3   OH275259   1.599   4.944  11.395  0.1933 -0.1930 -0.7121
17923TIP3    H175260   1.579   4.852  11.375  0.8919 -0.7315  0.9378
17923TIP3    H275261   1.681   4.940  11.445 -1.1765  1.0731  1.7371
17924TIP3   OH275262   2.342   5.552  16.590  0.2075 -0.2725 -0.2601
17924TIP3    H175263   2.378   5.525  16.675  1.7272 -1.0167 -1.1315
17924TIP3    H275264   2.346   5.648  16.593 -0.8150 -0.2543  0.9572
17925TIP3   OH275265   4.340   3.857   5.193  0.4555  0.4111  0.0845
17925TIP3    H175266   4.348   3.921   5.264 -1.5751 -0.3668  1.0542
17925TIP3    H275267   4.431   3.837   5.168  1.3734 -1.3523  4.3523
17926TIP3   OH275268   0.393   4.949  13.830  0.1122 -0.5661 -0.0989
17926TIP3    H175269   0.436   4.865  13.848  0.7833 -0.3602 -0.6715
17926TIP3    H275270   0.430   4.976  13.746  1.8909  1.5603  1.3157
17927TIP3   OH275271   3.304   3.836   4.046  0.0529  0.2172 -0.1431
17927TIP3    H175272   3.360   3.913   4.042 -0.8240  0.8794  0.2685
17927TIP3    H275273   3.316   3.793   3.961  1.3847  0.1990  0.0360
17928TIP3   OH275274   5.097   2.908   2.770  0.6532 -0.2659  0.9850
17928TIP3    H175275   5.175   2.852   2.771  0.3589 -0.6790  0.8485
17928TIP3    H275276   5.026   2.850   2.796  0.1691 -0.2213 -0.1924
17929TIP3   OH275277   3.025   4.335  10.966 -0.3306  0.0248 -0.0718
17929TIP3    H175278   2.987   4.277  10.901 -0.8121  1.9754 -1.5726
17929TIP3    H275279   2.952   4.358  11.023 -0.6660  1.0272 -0.8953
17930TIP3   OH275280   1.049   4.652  16.460  0.6105  0.2848  0.8051
17930TIP3    H175281   1.105   4.648  16.538 -0.6262 -0.2767  1.6815
17930TIP3    H275282   0.960   4.659  16.495  0.0454 -0.0310 -0.5535
17931TIP3   OH275283   4.139   6.123   0.647  0.0542  0.4605  0.1272
17931TIP3    H175284   4.073   6.097   0.583  0.6088 -1.1748  0.1843
17931TIP3    H275285   4.205   6.170   0.596  0.5801 -0.9902 -0.5445
17932TIP3   OH275286   2.716   2.707  14.986  0.2162  0.0139 -0.6246
17932TIP3    H175287   2.651   2.651  15.029  0.1630 -0.1892 -0.9671
17932TIP3    H275288   2.664   2.773  14.940  0.3099  1.0287  0.7091
17933TIP3   OH275289   5.810   3.153   2.961 -0.1953 -0.5024 -0.6983
17933TIP3    H175290   5.829   3.216   2.892  0.1083  2.9893  2.4133
17933TIP3    H275291   5.715   3.157   2.972 -0.0549  0.2835  0.2666
17934TIP3   OH275292   6.485   3.514   3.141  0.1035  0.2891  0.3252
17934TIP3    H175293   6.458   3.474   3.058 -1.9810  1.3371  0.4445
17934TIP3    H275294   6.439   3.463   3.208 -1.0519  1.6131  0.5854
17935TIP3   OH275295   1.888   2.469   1.521 -0.6070 -0.4328  0.2395
17935TIP3    H175296   1.843   2.424   1.449 -0.5841 -1.1986  0.6996
17935TIP3    H275297   1.833   2.545   1.540 -1.1099 -0.7480  0.0539
17936TIP3   OH275298   1.468   6.390  14.002 -0.0263  0.0839  0.0719
17936TIP3    H175299   1.405   6.394  14.073  0.2844  0.8550  0.3047
17936TIP3    H275300   1.484   6.481  13.978 -0.8343 -0.2066 -1.6236
17937TIP3   OH275301   2.423   6.115  15.106  0.0854 -0.0149 -0.3995
17937TIP3    H175302   2.385   6.030  15.084  1.1458 -0.1009 -2.0188
17937TIP3    H275303   2.470   6.101  15.188  0.5574 -1.0855 -0.8433
17938TIP3   OH275304   2.412   3.099  11.023  0.0993 -0.4125  0.2972
17938TIP3    H175305   2.462   3.018  11.010 -0.0470 -0.3584 -0.6044
17938TIP3    H275306   2.458   3.164  10.971 -0.1946 -0.0725  0.4624
17939TIP3   OH275307   0.951   1.434  10.681  0.2287  0.6493  0.0981
17939TIP3    H175308   0.873   1.383  10.658  0.5933  0.6340 -1.2021
17939TIP3    H275309   0.947   1.444  10.776 -1.2877  0.5465  0.0588
17940TIP3   OH275310   3.828   4.561  11.148 -0.5448 -0.1818 -0.4470
17940TIP3    H175311   3.853   4.552  11.056  2.9901  0.9183  0.3198
17940TIP3    H275312   3.887   4.501  11.194 -1.8064 -0.1826  1.1860
17941TIP3   OH275313   4.532   2.689   0.688  0.4113  0.5399 -0.8231
17941TIP3    H175314   4.472   2.709   0.616  0.3314 -0.5933 -1.0774
17941TIP3    H275315   4.495   2.735   0.763 -1.2084 -0.7547 -0.7976
17942TIP3   OH275316   3.959   1.593  11.059 -0.1463  0.0282  0.3934
17942TIP3    H175317   4.022   1.571  10.991  0.3402  0.6631  0.6277
17942TIP3    H275318   3.876   1.556  11.029  0.1013  0.1723 -0.4568
17943TIP3   OH275319   1.600   4.144  10.221 -0.4110 -0.1450 -0.6980
17943TIP3    H175320   1.596   4.214  10.156  1.3614  0.5924 -0.0453
17943TIP3    H275321   1.678   4.164  10.273  0.1397 -2.6314 -0.5185
17944TIP3   OH275322   0.843   3.967   3.511  0.0673  0.6027  0.1271
17944TIP3    H175323   0.897   4.038   3.547  1.0746 -0.2660  0.3886
17944TIP3    H275324   0.893   3.887   3.531 -1.3640 -0.2327  0.4296
17945TIP3   OH275325   6.116   2.315   2.013 -0.0222  0.2236 -0.0691
17945TIP3    H175326   6.150   2.403   2.030  0.0501 -0.0322  1.1625
17945TIP3    H275327   6.157   2.261   2.081 -0.0701 -0.7545 -0.8224
17946TIP3   OH275328   4.662   2.144  16.432  0.9623 -0.3334 -0.5400
17946TIP3    H175329   4.717   2.124  16.357 -0.9204 -0.7432 -1.8616
17946TIP3    H275330   4.664   2.064  16.486  2.6277  0.1059  0.0638
17947TIP3   OH275331   4.679   0.298   6.808 -0.0136 -0.0970  0.0208
17947TIP3    H175332   4.684   0.365   6.740  0.3604  0.6113  0.7403
17947TIP3    H275333   4.614   0.331   6.870  0.1494 -0.4103  0.3623
17948TIP3   OH275334   0.504   3.649   4.167  0.8020  0.0815 -0.6458
17948TIP3    H175335   0.598   3.645   4.154  0.9480 -0.2080  0.4089
17948TIP3    H275336   0.485   3.742   4.179  1.1790  0.0089  0.6166
17949TIP3   OH275337   0.897   6.188  13.549  0.4310 -0.3303  0.2908
17949TIP3    H175338   0.836   6.261  13.564  1.5432  0.7266 -0.1993
17949TIP3    H275339   0.882   6.128  13.622  0.3200  0.9630  1.3457
17950TIP3   OH275340   0.794   5.306  16.480 -0.4364  0.0130 -0.3252
17950TIP3    H175341   0.812   5.310  16.386  0.4474  0.0700 -0.1497
17950TIP3    H275342   0.866   5.353  16.521 -0.9235  0.1556  0.3763
17951TIP3   OH275343   0.673   4.363  13.964 -0.4017 -0.1675  1.0738
17951TIP3    H175344   0.590   4.318  13.948 -0.1935 -0.6940  1.4856
17951TIP3    H275345   0.728   4.339  13.890 -0.4287 -0.2537  1.0825
17952TIP3   OH275346   2.867   4.779  13.037 -0.2440  0.0380 -0.7929
17952TIP3    H175347   2.900   4.741  13.118 -0.4165  2.5654  0.5089
17952TIP3    H275348   2.776   4.803  13.057 -0.1409  1.1275 -1.5857
17953TIP3   OH275349   6.040   4.462  15.089  0.1835 -0.7525  0.1463
17953TIP3    H175350   5.972   4.519  15.051  0.0538  1.1532  3.0818
17953TIP3    H275351   6.091   4.433  15.013 -0.2346  2.6446 -1.5559
17954TIP3   OH275352   3.872   1.988   3.859 -0.2128 -0.3980  0.0295
17954TIP3    H175353   3.905   1.899   3.842  2.1888  0.3090  0.7912
17954TIP3    H275354   3.827   1.980   3.943 -2.3175 -1.4383 -1.1531
17955TIP3   OH275355   3.941   3.525  11.535 -0.5244  0.2808 -0.1908
17955TIP3    H175356   3.858   3.562  11.567 -0.8798 -0.6480 -0.0311
17955TIP3    H275357   3.931   3.430  11.545  0.7391  0.1802  0.2669
17956TIP3   OH275358   5.764   4.515   1.521  0.1471  0.7884  0.0123
17956TIP3    H175359   5.695   4.476   1.574  0.3281  0.5708  0.0895
17956TIP3    H275360   5.845   4.480   1.558  0.2224 -0.5903 -1.3994
17957TIP3   OH275361   5.304   2.678  16.152 -0.4564 -0.6564 -0.1473
17957TIP3    H175362   5.235   2.745  16.153  0.1292 -0.0285  1.4979
17957TIP3    H275363   5.334   2.675  16.062 -0.6489  1.1721 -0.2874
17958TIP3   OH275364   5.238   0.559  16.757  0.3591 -0.4970  0.0368
17958TIP3    H175365   5.231   0.474  16.801 -0.2916 -0.9484 -0.9230
17958TIP3    H275366   5.235   0.623  16.829 -0.8319 -1.2155  0.6405
17959TIP3   OH275367   4.797   1.972   0.289 -0.1822 -0.3948  0.4725
17959TIP3    H175368   4.794   2.059   0.330  0.8161 -0.2009  0.1631
17959TIP3    H275369   4.873   1.930   0.329 -0.0507 -0.7368 -0.1389
17960TIP3   OH275370   2.049   6.304  15.972 -0.3011 -0.2169  0.3737
17960TIP3    H175371   2.043   6.235  16.038  1.3187 -0.9440 -0.1998
17960TIP3    H275372   2.025   6.261  15.890 -0.6058  0.2430  0.2201
17961TIP3   OH275373   4.263   2.661  14.159  0.6004 -0.0988  0.1143
17961TIP3    H175374   4.191   2.640  14.099 -1.2268  1.2977  1.7787
17961TIP3    H275375   4.263   2.756  14.164  3.8785  0.0501 -1.3706
17962TIP3   OH275376   0.066   0.220   6.699  0.3455  0.1254  0.4447
17962TIP3    H175377   0.089   0.139   6.743  1.9806  0.3522  0.0332
17962TIP3    H275378  -0.001   0.260   6.755 -0.8366 -1.7325  0.3881
17963TIP3   OH275379   4.047   5.953  16.011  0.3072  0.4537  0.2614
17963TIP3    H175380   4.124   5.970  16.065 -0.7442 -0.7396  2.1680
17963TIP3    H275381   4.026   5.861  16.026 -1.7623  0.8815  0.1301
17964TIP3   OH275382   5.956   6.286   5.786  0.0362 -0.3733  0.6919
17964TIP3    H175383   5.934   6.351   5.720 -0.9130 -1.1965  0.1845
17964TIP3    H275384   5.917   6.320   5.867 -0.1470 -0.1419  0.5064
17965TIP3   OH275385   6.365   3.605  12.865  0.0459  0.3559 -0.1437
17965TIP3    H175386   6.363   3.598  12.770  0.0514 -0.3889 -0.0928
17965TIP3    H275387   6.423   3.535  12.893  0.3700  0.8331  0.3857
17966TIP3   OH275388   2.670   6.688   1.090  0.2615  0.4999 -0.1638
17966TIP3    H175389   2.616   6.612   1.069  1.2558 -0.4030  0.4824
17966TIP3    H275390   2.681   6.734   1.007  1.1712 -1.0577 -0.9273
17967TIP3   OH275391   6.321   2.695   1.528  0.3964 -0.0012 -0.3495
17967TIP3    H175392   6.391   2.704   1.463 -0.3996  1.4178 -1.0456
17967TIP3    H275393   6.324   2.777   1.578 -0.4422 -0.1277 -0.0794
17968TIP3   OH275394   1.334   4.210  12.853  0.1565  0.3557 -0.0332
17968TIP3    H175395   1.343   4.238  12.944  1.9046 -0.3533  0.0190
17968TIP3    H275396   1.309   4.290  12.806 -0.2546  0.8345  0.9695
17969TIP3   OH275397   4.548   5.464  15.836 -0.3924 -0.9189  0.3991
17969TIP3    H175398   4.534   5.414  15.916  0.7633 -1.4626  0.2677
17969TIP3    H275399   4.591   5.403  15.776  1.8304  0.4439  0.5423
17970TIP3   OH275400   2.811   3.357  11.523  0.2473  0.3725 -0.2772
17970TIP3    H175401   2.754   3.370  11.447 -1.2632  0.4012  0.8374
17970TIP3    H275402   2.851   3.271  11.509  0.8250  0.8385 -1.6171
17971TIP3   OH275403   5.385   1.322   6.336 -0.5221  0.0410 -0.2730
17971TIP3    H175404   5.416   1.236   6.365  0.0850  1.2102  2.6920
17971TIP3    H275405   5.462   1.362   6.294 -0.8078 -0.8235 -1.6700
17972TIP3   OH275406   6.155   2.910  11.153 -0.3660 -0.3671 -0.3898
17972TIP3    H175407   6.105   2.990  11.165 -1.4536 -1.2269  0.8984
17972TIP3    H275408   6.166   2.875  11.241 -1.2921 -2.4560 -1.0723
17973TIP3   OH275409   5.988   5.662   1.007  0.8457 -0.1979 -0.2862
17973TIP3    H175410   6.046   5.586   1.001  1.3479  0.2299 -0.9296
17973TIP3    H275411   5.915   5.633   1.062  0.3271 -1.5745 -1.6820
17974TIP3   OH275412   3.597   0.801  14.405 -0.6894 -0.2508  0.6051
17974TIP3    H175413   3.541   0.816  14.329 -1.5690 -0.5078  1.1952
17974TIP3    H275414   3.589   0.707  14.423  0.9887 -0.5423 -0.1171
17975TIP3   OH275415   4.264   1.452   4.192  0.3683 -0.1239 -0.2612
17975TIP3    H175416   4.221   1.464   4.277  1.6466 -0.3241  0.4142
17975TIP3    H275417   4.196   1.415   4.137 -0.7099  0.7460  0.4527
17976TIP3   OH275418   6.762   3.556  14.250  0.4790  0.4601  0.3926
17976TIP3    H175419   6.815   3.606  14.188 -0.6947  1.2557  0.0059
17976TIP3    H275420   6.761   3.610  14.329 -1.1623  1.2912 -0.1739
17977TIP3   OH275421   5.179   5.147   1.736 -0.1788  0.1249  0.1480
17977TIP3    H175422   5.114   5.192   1.682  1.2647  0.5876 -1.2486
17977TIP3    H275423   5.187   5.061   1.695  0.8488  0.4400 -0.3078
17978TIP3   OH275424   6.782   3.161  16.104 -0.1239 -0.0164  0.4225
17978TIP3    H175425   6.721   3.186  16.173 -1.1764  1.0888 -0.8620
17978TIP3    H275426   6.749   3.206  16.026  0.1335 -2.4700 -1.1470
17979TIP3   OH275427   1.565   1.323   3.747 -0.4862 -0.5213  0.3913
17979TIP3    H175428   1.542   1.232   3.726  0.7544 -0.4204 -1.5925
17979TIP3    H275429   1.481   1.367   3.759 -1.1693 -1.5196 -0.5735
17980TIP3   OH275430   2.546   3.561  14.824 -0.5187 -0.3688  0.2009
17980TIP3    H175431   2.594   3.491  14.867  0.4558 -0.0979 -0.4400
17980TIP3    H275432   2.553   3.542  14.730 -1.2327 -0.0540  0.0787
17981TIP3   OH275433   1.654   6.194   4.651  0.4084  0.1676 -0.2293
17981TIP3    H175434   1.579   6.249   4.674  0.5040  0.7964 -1.4212
17981TIP3    H275435   1.695   6.174   4.736 -1.7730 -1.1769  0.5627
17982TIP3   OH275436   3.248   2.962  10.968 -0.4762 -0.0167 -0.3438
17982TIP3    H175437   3.324   3.018  10.982  1.3198 -2.6723  0.9533
17982TIP3    H275438   3.247   2.946  10.873  0.5563  0.1160 -0.3808
17983TIP3   OH275439   2.435   5.070  14.546 -0.4518  0.4383 -0.2714
17983TIP3    H175440   2.484   5.030  14.619 -1.9151  1.7073  1.4478
17983TIP3    H275441   2.346   5.037  14.557 -1.0074  1.8151 -0.6128
17984TIP3   OH275442   0.978   6.139   2.610 -0.8496 -0.2512  0.4882
17984TIP3    H175443   1.041   6.211   2.606  0.0327 -0.9474  1.6724
17984TIP3    H275444   1.032   6.060   2.623 -1.8879 -0.9721  0.4888
17985TIP3   OH275445   2.177   3.390  14.575  0.3407 -0.7301  0.4758
17985TIP3    H175446   2.264   3.361  14.605  1.3149  1.2934 -0.3363
17985TIP3    H275447   2.190   3.481  14.548 -1.8668 -0.6704 -0.4445
17986TIP3   OH275448   4.398   3.237   1.421 -0.2878 -0.7534 -0.0916
17986TIP3    H175449   4.465   3.255   1.487 -1.0939  1.7852  0.0759
17986TIP3    H275450   4.331   3.304   1.435 -1.2350 -1.1336 -2.4665
17987TIP3   OH275451   1.232   5.667  14.870 -0.1850 -0.2391 -0.1440
17987TIP3    H175452   1.271   5.580  14.879 -1.2262 -0.8798 -1.5796
17987TIP3    H275453   1.141   5.649  14.845 -0.6365  1.2644  0.3913
17988TIP3   OH275454   3.163   4.110   4.024 -1.0076  0.7201  0.1763
17988TIP3    H175455   3.121   4.110   3.938  0.5360  0.1981 -0.5906
17988TIP3    H275456   3.204   4.024   4.030  0.1855  1.3259  0.7865
17989TIP3   OH275457   5.020   3.888  12.527  0.0749 -0.3555 -0.5550
17989TIP3    H175458   5.109   3.897  12.560 -0.0474 -1.3157  0.0669
17989TIP3    H275459   5.004   3.969  12.478  0.7806  0.4673  0.5280
17990TIP3   OH275460   6.080   3.886   4.989 -0.4336 -0.2275 -0.1604
17990TIP3    H175461   6.147   3.953   4.998  1.6589 -2.2591 -0.1769
17990TIP3    H275462   6.001   3.934   4.965  0.6021  2.3878  1.4644
17991TIP3   OH275463   0.434   4.299   5.162 -0.1017 -0.1874 -0.6006
17991TIP3    H175464   0.520   4.324   5.127  0.2473 -0.2442  0.1988
17991TIP3    H275465   0.372   4.325   5.094  0.4604  0.7402 -0.7750
17992TIP3   OH275466   2.392   2.288  15.235 -0.5890 -0.7945 -1.3359
17992TIP3    H175467   2.394   2.229  15.311 -1.7133 -0.4152 -1.0019
17992TIP3    H275468   2.317   2.345  15.252  1.4275  1.7686 -0.8740
17993TIP3   OH275469   4.114   1.349   4.670 -0.1806  0.2189  0.9007
17993TIP3    H175470   4.100   1.288   4.743 -0.1391  2.5751  2.9470
17993TIP3    H275471   4.202   1.384   4.684  0.0668  0.2364 -0.6478
17994TIP3   OH275472   2.424   4.236  17.009 -0.1425  0.0374  0.6171
17994TIP3    H175473   2.361   4.186  16.958  0.7609  1.0491 -1.5508
17994TIP3    H275474   2.485   4.171  17.043  1.3446 -0.3735 -2.6413
17995TIP3   OH275475   2.505   3.165   5.824 -0.0384  0.0190 -0.5312
17995TIP3    H175476   2.529   3.175   5.731  0.9537  0.2860 -0.2542
17995TIP3    H275477   2.410   3.179   5.826  0.1532  1.5587 -1.2968
17996TIP3   OH275478   6.636   6.575   5.676  0.0067 -0.1495 -0.1481
17996TIP3    H175479   6.579   6.651   5.685 -0.0899 -0.4785  2.4060
17996TIP3    H275480   6.630   6.551   5.584 -1.0332  2.0925 -0.6935
17997TIP3   OH275481   5.055   2.534   0.555  0.5626 -0.2808  0.4175
17997TIP3    H175482   4.960   2.524   0.550  0.7178 -0.8024 -2.0987
17997TIP3    H275483   5.079   2.494   0.639 -1.3695 -0.5671  0.8604
17998TIP3   OH275484   2.691   0.306   3.589  0.2580  0.4225 -0.3126
17998TIP3    H175485   2.749   0.231   3.575 -1.8900 -1.6835  1.5374
17998TIP3    H275486   2.631   0.303   3.515  1.9935  2.1358 -1.8157
17999TIP3   OH275487   4.364   3.070   2.551  0.5588  0.0766 -0.0534
17999TIP3    H175488   4.449   3.067   2.507  0.3831 -2.1938 -0.2735
17999TIP3    H275489   4.308   3.120   2.491  0.7173 -1.7188 -1.7486
18000TIP3   OH275490   4.562   4.511   2.610  0.3733  0.9523  0.0421
18000TIP3    H175491   4.567   4.519   2.515 -0.2853 -0.0078 -0.0726
18000TIP3    H275492   4.528   4.595   2.640  2.6754  2.0666 -0.3908
18001TIP3   OH275493   4.394   5.624  15.664 -0.5015 -0.1174  0.0112
18001TIP3    H175494   4.421   5.570  15.739 -0.2677  1.3611  1.0200
18001TIP3    H275495   4.471   5.630  15.609 -0.0577  0.4540  0.6831
18002TIP3   OH275496   5.332   2.575  12.734  0.1872  0.2686  0.2756
18002TIP3    H175497   5.252   2.555  12.783 -0.7917 -0.2399 -1.4604
18002TIP3    H275498   5.330   2.669  12.720 -0.8787  0.0718 -1.0044
18003TIP3   OH275499   3.807   4.867  10.576  0.0956 -0.8486 -0.1830
18003TIP3    H175500   3.766   4.904  10.498  0.0651 -0.7808 -0.1344
18003TIP3    H275501   3.873   4.806  10.542 -0.6480 -1.6245 -0.2553
18004TIP3   OH275502   5.093   6.550   3.737 -0.2904  0.2810 -0.0740
18004TIP3    H175503   5.132   6.596   3.812 -0.4094 -1.7644  1.2751
18004TIP3    H275504   4.999   6.565   3.747 -0.4400 -1.2960  1.1177
18005TIP3   OH275505   1.586   2.943  16.874  0.1216 -0.0371  0.1586
18005TIP3    H175506   1.641   2.945  16.952  0.2379 -0.0779  0.0775
18005TIP3    H275507   1.530   2.866  16.887 -0.7165  0.6722  0.7857
18006TIP3   OH275508   4.286   5.883  14.235 -0.2174  0.1127  0.3835
18006TIP3    H175509   4.355   5.946  14.215  0.4518 -0.0381  2.1113
18006TIP3    H275510   4.226   5.888  14.161  0.9975  1.1517 -0.5460
18007TIP3   OH275511   6.239   4.155  17.023  0.0598  0.0645 -0.5150
18007TIP3    H175512   6.298   4.231  17.023  1.7462 -1.2024 -1.8807
18007TIP3    H275513   6.277   4.095  17.087  0.0078 -0.5664 -1.0698
18008TIP3   OH275514   2.993   0.704  15.599 -0.1130 -0.1295  0.2848
18008TIP3    H175515   2.990   0.612  15.575 -0.5781 -0.6265  2.1682
18008TIP3    H275516   3.083   0.731  15.580  0.0743 -1.0121 -0.1079
18009TIP3   OH275517   0.768   6.056   2.415 -0.1276 -0.0116 -0.0569
18009TIP3    H175518   0.839   6.089   2.360 -0.8103  0.9153 -0.3786
18009TIP3    H275519   0.790   6.085   2.504  1.1327 -1.7619  0.2524
18010TIP3   OH275520   0.793   0.518   2.778  0.7884 -0.3060  0.2177
18010TIP3    H175521   0.713   0.479   2.812 -0.3004  1.5255 -0.1230
18010TIP3    H275522   0.785   0.509   2.683 -0.0268  1.7193  0.0736
18011TIP3   OH275523   2.798   0.672   2.345 -0.3035 -0.0578  0.1420
18011TIP3    H175524   2.781   0.616   2.421 -2.4670  0.9864  0.4580
18011TIP3    H275525   2.711   0.698   2.314  0.6383  3.1414  0.0251
18012TIP3   OH275526   5.878   0.617  16.102 -0.4984 -0.1216  0.0904
18012TIP3    H175527   5.842   0.667  16.176 -3.0794 -1.1120 -0.4521
18012TIP3    H275528   5.910   0.684  16.041 -3.8445  0.9549 -0.5866
18013TIP3   OH275529   6.647   0.702  13.645 -0.1752 -0.2485  0.1839
18013TIP3    H175530   6.695   0.709  13.727 -0.1390  0.3218  0.1209
18013TIP3    H275531   6.710   0.728  13.578 -0.7137  1.0433  0.1557
18014TIP3   OH275532   3.992   1.493   6.494 -0.0081  0.7440  0.0595
18014TIP3    H175533   4.064   1.438   6.464 -0.3580  0.7573 -0.8082
18014TIP3    H275534   3.947   1.440   6.560  0.5567  0.5888  0.3289
18015TIP3   OH275535   1.448   1.572  15.159 -0.0696  0.6723  0.1779
18015TIP3    H175536   1.524   1.516  15.177 -0.9420  0.6872  4.5026
18015TIP3    H275537   1.388   1.516  15.110  0.8947 -0.7735  0.6115
18016TIP3   OH275538   5.614   1.833   4.581  0.0498 -0.8452 -0.3137
18016TIP3    H175539   5.659   1.765   4.631 -0.4265 -0.7555  0.2437
18016TIP3    H275540   5.667   1.844   4.501  0.7047 -1.1228  0.0805
18017TIP3   OH275541   0.909   4.248  14.668 -0.7296  0.3482 -0.3031
18017TIP3    H175542   0.981   4.210  14.718 -1.5195 -0.1563  0.4586
18017TIP3    H275543   0.888   4.329  14.714 -1.4459 -0.1081  0.1840
18018TIP3   OH275544   0.090   3.159  16.841 -0.1556 -0.6937  0.2213
18018TIP3    H175545   0.104   3.067  16.819  0.8496 -0.2966 -0.8202
18018TIP3    H275546   0.151   3.207  16.785 -0.0575  0.5565  1.3857
18019TIP3   OH275547   1.195   0.738  11.501  0.4294  0.4372  0.4783
18019TIP3    H175548   1.204   0.782  11.416 -3.1677 -0.2102 -0.3188
18019TIP3    H275549   1.187   0.645  11.479 -2.8428  0.4697  1.2591
18020TIP3   OH275550   4.342   6.494   1.868  0.0989 -0.5577 -0.7047
18020TIP3    H175551   4.406   6.558   1.901 -0.6920  2.6308 -4.9256
18020TIP3    H275552   4.269   6.501   1.930  0.7317  1.4331 -0.1214
18021TIP3   OH275553   5.114   0.703   0.767  0.3306 -0.0021  0.4203
18021TIP3    H175554   5.086   0.632   0.710  0.5454 -0.2524  0.6254
18021TIP3    H275555   5.205   0.682   0.790  0.1337 -0.0925  1.1360
18022TIP3   OH275556   5.041   2.336  11.029 -0.5918 -0.7030  0.0747
18022TIP3    H175557   5.031   2.329  10.935 -0.8970  2.6847 -0.2078
18022TIP3    H275558   5.131   2.366  11.042 -0.3528 -1.7219  0.9243
18023TIP3   OH275559   1.527   2.174  12.302  0.6355 -0.8019 -0.2294
18023TIP3    H175560   1.467   2.124  12.357 -0.0096  0.6576  0.4294
18023TIP3    H275561   1.494   2.160  12.213  0.0353 -0.9832  0.0138
18024TIP3   OH275562   4.555   6.243  11.170  0.3362  0.1246  0.1640
18024TIP3    H175563   4.648   6.220  11.174  0.1722 -0.6654 -0.3330
18024TIP3    H275564   4.519   6.184  11.103 -0.9453 -1.1497  1.9071
18025TIP3   OH275565   0.232   2.975  12.830  0.0631  0.1836 -0.2615
18025TIP3    H175566   0.212   2.900  12.773 -3.0931 -1.1364  2.3902
18025TIP3    H275567   0.184   3.048  12.792  3.3559  1.0584 -3.0086
18026TIP3   OH275568   4.866   1.797   6.578  0.2667  0.4373  0.1375
18026TIP3    H175569   4.798   1.857   6.609  0.3337  0.5055  0.1503
18026TIP3    H275570   4.863   1.804   6.483  0.8227  1.0621  0.1618
18027TIP3   OH275571   4.868   3.457   1.077  0.6962 -0.2774  0.1530
18027TIP3    H175572   4.862   3.361   1.069 -0.2012 -0.2752  0.7347
18027TIP3    H275573   4.841   3.489   0.991 -0.9195 -0.5041  0.5505
18028TIP3   OH275574   5.134   5.338   2.572 -0.5142  0.2166 -0.5137
18028TIP3    H175575   5.153   5.254   2.614 -0.9443  0.2280 -0.2929
18028TIP3    H275576   5.039   5.337   2.559 -0.4047  0.2973 -1.3119
18029TIP3   OH275577   2.219   2.881   3.868  0.2038  0.0962  0.6013
18029TIP3    H175578   2.257   2.967   3.887  2.1605 -0.7379  0.6321
18029TIP3    H275579   2.270   2.820   3.921 -0.4694 -1.2054 -0.2079
18030TIP3   OH275580   3.984   5.135  11.211 -0.7121  0.3125  0.1234
18030TIP3    H175581   3.927   5.062  11.187 -0.4612 -1.1028  3.6380
18030TIP3    H275582   4.069   5.112  11.174 -1.0640 -0.2638 -0.3433
18031TIP3   OH275583   0.484   6.610   2.374  0.6070 -0.1604  0.7699
18031TIP3    H175584   0.408   6.582   2.323  2.4060  1.3496 -2.9124
18031TIP3    H275585   0.540   6.532   2.379 -0.0566 -0.6013  1.3722
18032TIP3   OH275586   1.950   5.919  11.496 -0.0260 -0.1475  0.4929
18032TIP3    H175587   1.864   5.887  11.522 -0.2101 -1.4454 -1.6232
18032TIP3    H275588   2.011   5.854  11.531 -0.1297 -0.7323 -0.3746
18033TIP3   OH275589   6.380   6.733  11.383 -0.2775  0.3738  0.2389
18033TIP3    H175590   6.452   6.706  11.440 -0.7424  0.5746  0.9314
18033TIP3    H275591   6.335   6.651  11.360  1.6391 -0.0481 -2.2434
18034TIP3   OH275592   1.933   3.408  14.461 -0.5094 -0.6058 -0.2758
18034TIP3    H175593   2.020   3.375  14.483 -1.2067 -2.4810 -0.2625
18034TIP3    H275594   1.936   3.423  14.366 -0.0479 -0.2619 -0.2089
18035TIP3   OH275595   3.859   1.500   2.552 -0.1629  0.4269  0.4627
18035TIP3    H175596   3.945   1.521   2.515  0.0645 -0.8281  0.2398
18035TIP3    H275597   3.849   1.559   2.627  0.0622  1.8985 -0.6498
18036TIP3   OH275598   5.351   0.910   1.048  0.2214  0.5354  0.2979
18036TIP3    H175599   5.359   0.935   1.140 -0.0265  0.8141  0.2455
18036TIP3    H275600   5.438   0.880   1.024  0.3327  0.6267  0.5768
18037TIP3   OH275601   3.004   6.687   3.085  1.1407  0.0474 -0.3201
18037TIP3    H175602   3.052   6.695   3.168 -0.8389 -1.2875  0.9984
18037TIP3    H275603   3.042   6.609   3.044  1.1431 -0.1224  0.0001
18038TIP3   OH275604   5.621   3.179   0.513  0.2121  0.0641 -0.1116
18038TIP3    H175605   5.669   3.139   0.440  1.5546  0.1939  0.6827
18038TIP3    H275606   5.689   3.200   0.577 -0.6314  2.3458  0.0821
18039TIP3   OH275607   4.453   2.048   2.057  0.5507  0.1971  0.5677
18039TIP3    H175608   4.429   2.140   2.060 -0.5238 -0.1019  1.3874
18039TIP3    H275609   4.425   2.013   2.142  0.0563 -1.1055 -0.1196
18040TIP3   OH275610   2.736   3.682   5.988 -0.4265  0.3484  0.3885
18040TIP3    H175611   2.730   3.713   6.079 -1.9397 -0.3995  0.5618
18040TIP3    H275612   2.740   3.587   5.995 -1.2402  0.2542 -0.3502
18041TIP3   OH275613   5.080   6.654   5.564 -0.0581  0.6556 -0.0771
18041TIP3    H175614   5.100   6.563   5.587  1.5791  0.3117 -2.6028
18041TIP3    H275615   5.099   6.704   5.644  1.6354 -0.9009  0.5366
18042TIP3   OH275616   4.353   5.302   0.430 -0.4895  0.4917  0.6063
18042TIP3    H175617   4.389   5.277   0.516  0.2710 -1.1240 -0.1676
18042TIP3    H275618   4.276   5.248   0.420  1.0625 -1.5001 -0.9998
18043TIP3   OH275619   0.016   0.740   0.899 -0.0454  0.5314  0.4336
18043TIP3    H175620  -0.072   0.771   0.924 -0.4331  0.1157 -0.4080
18043TIP3    H275621   0.001   0.653   0.864  0.7501  0.3515  0.5449
18044TIP3   OH275622   0.474   5.638  13.877 -0.2206  0.5294  0.1104
18044TIP3    H175623   0.491   5.571  13.810  0.2404  0.3594  0.4031
18044TIP3    H275624   0.457   5.588  13.957  0.3178  0.7714  0.3758
18045TIP3   OH275625   1.218   2.628  15.491 -0.1031 -0.4259 -0.0630
18045TIP3    H175626   1.263   2.546  15.475  1.0795  0.1148  0.4378
18045TIP3    H275627   1.205   2.631  15.586  0.1532  0.1228 -0.0452
18046TIP3   OH275628   5.522   1.854  15.164 -0.1730 -0.1401  0.4399
18046TIP3    H175629   5.461   1.928  15.158 -0.6505 -0.6553 -1.2386
18046TIP3    H275630   5.479   1.783  15.117  2.6872  0.1637 -2.7729
18047TIP3   OH275631   2.535   3.558  10.821 -0.6187 -0.5569  0.0770
18047TIP3    H175632   2.597   3.620  10.782  0.5420 -0.3236  2.1931
18047TIP3    H275633   2.451   3.581  10.783 -0.1522  2.1372  0.5415
18048TIP3   OH275634   1.955   5.621   2.218  0.0249 -0.1232 -0.1981
18048TIP3    H175635   2.029   5.641   2.160  0.3129  1.0543  0.5700
18048TIP3    H275636   1.884   5.598   2.158 -0.0875  2.4614 -1.1153
18049TIP3   OH275637   4.467   0.330  14.024 -0.0266 -0.2396 -0.3940
18049TIP3    H175638   4.462   0.293  13.935 -1.5354 -1.5168  0.2035
18049TIP3    H275639   4.440   0.421  14.013  2.5902  0.4399 -1.6941
18050TIP3   OH275640   3.439   6.270  11.364 -0.2804  0.3716  0.0020
18050TIP3    H175641   3.367   6.294  11.422 -0.2041  0.8315 -0.0886
18050TIP3    H275642   3.417   6.182  11.334  0.4836 -0.5090  1.9692
18051TIP3   OH275643   4.663   1.296   5.181  0.1645  0.1544 -0.1241
18051TIP3    H175644   4.660   1.376   5.129 -0.8272 -0.3599 -0.8606
18051TIP3    H275645   4.665   1.226   5.116  1.5752 -0.4073  0.5111
18052TIP3   OH275646   5.870   4.491   5.298  1.1317  0.5146  0.5752
18052TIP3    H175647   5.875   4.430   5.372 -2.6260 -0.3135  0.2285
18052TIP3    H275648   5.879   4.436   5.220 -4.4569 -0.0835  0.1785
18053TIP3   OH275649   5.401   2.127  15.178 -0.5722 -0.7128  0.6983
18053TIP3    H175650   5.461   2.197  15.201 -1.3156  0.0501  0.3469
18053TIP3    H275651   5.320   2.172  15.153 -1.2331 -1.7136  1.0047
18054TIP3   OH275652   2.460   6.765   0.467  0.3939 -0.4030  0.1026
18054TIP3    H175653   2.373   6.790   0.436  1.4282  1.1799 -1.6502
18054TIP3    H275654   2.497   6.846   0.502  2.3707 -0.2601 -2.1692
18055TIP3   OH275655   5.240   1.654  13.951 -0.1613  0.2271  0.7975
18055TIP3    H175656   5.217   1.732  13.900  0.3195  0.4938  0.9877
18055TIP3    H275657   5.328   1.671  13.983  0.7346 -1.2355 -0.7997
18056TIP3   OH275658   2.750   4.291   4.233  0.1308 -0.1644 -0.3638
18056TIP3    H175659   2.712   4.238   4.163 -2.8063 -0.1788  1.1532
18056TIP3    H275660   2.691   4.366   4.240  0.7715  0.1812  1.6111
18057TIP3   OH275661   3.724   1.929   2.191 -0.2577  0.4775 -0.1305
18057TIP3    H175662   3.750   1.857   2.248 -1.6457  0.9813  1.1495
18057TIP3    H275663   3.665   1.982   2.244 -2.3069  0.4746 -2.3100
18058TIP3   OH275664   4.569   5.849  16.291  0.7994  0.0149  0.4368
18058TIP3    H175665   4.656   5.817  16.270 -0.2356 -2.0262 -1.0025
18058TIP3    H275666   4.520   5.841  16.209 -1.2349 -0.6887  1.6635
18059TIP3   OH275667   6.231   5.402  15.137  0.2181 -0.6226  0.4615
18059TIP3    H175668   6.262   5.391  15.048  1.2850  0.7592  0.6362
18059TIP3    H275669   6.267   5.328  15.185  2.5168  0.4343  0.4502
18060TIP3   OH275670   0.080   5.401  11.661  0.6078 -0.7123 -0.1073
18060TIP3    H175671   0.153   5.391  11.601  0.3119 -0.3295 -0.5415
18060TIP3    H275672   0.012   5.344  11.626 -0.8280  2.1319 -2.1880
18061TIP3   OH275673   2.917   4.912   2.927  0.3404  0.0519 -0.5238
18061TIP3    H175674   2.996   4.963   2.909 -0.3707  0.4968 -2.4447
18061TIP3    H275675   2.854   4.940   2.861 -2.4625  1.8667  2.7545
18062TIP3   OH275676   4.111   0.711  13.846  0.3111  0.4202 -0.1786
18062TIP3    H175677   4.170   0.674  13.780  0.0744  0.0757 -0.2026
18062TIP3    H275678   4.065   0.635  13.881  0.8779  0.5356  0.8209
18063TIP3   OH275679   4.455   0.334   6.344  0.9347  0.3469  0.2019
18063TIP3    H175680   4.532   0.389   6.357 -0.9610  2.6764  2.2195
18063TIP3    H275681   4.407   0.376   6.273  0.3871  0.2575  0.5105
18064TIP3   OH275682   6.003   0.078   5.167 -0.6401 -0.3403  0.3507
18064TIP3    H175683   6.018   0.170   5.189 -0.6967 -0.0463 -0.8207
18064TIP3    H275684   6.020   0.072   5.073  0.1216 -1.6883  0.5547
18065TIP3   OH275685   6.635   6.306   3.955  0.1878 -0.4084 -0.0268
18065TIP3    H175686   6.609   6.226   3.911  0.8348 -0.2251 -0.7599
18065TIP3    H275687   6.729   6.313   3.937  0.4032 -0.1919  1.1556
18066TIP3   OH275688   4.984   2.968  13.958  0.3082  0.2474  0.3289
18066TIP3    H175689   4.897   2.962  13.997  0.9449  2.0858  2.1293
18066TIP3    H275690   5.002   2.879  13.926 -3.1727  0.3883 -2.3177
18067TIP3   OH275691   2.026   1.464   4.200 -0.5566  0.3571 -0.0616
18067TIP3    H175692   2.077   1.400   4.150 -0.6561 -0.6097  1.0618
18067TIP3    H275693   1.935   1.444   4.178 -0.6107 -0.2111  0.6694
18068TIP3   OH275694   1.874   0.309  16.950 -0.2980  0.4259 -0.3681
18068TIP3    H175695   1.905   0.364  16.878  0.3482  2.4647  1.4228
18068TIP3    H275696   1.952   0.293  17.003 -1.2286  0.8933  1.1424
18069TIP3   OH275697   1.233   5.114  14.420 -0.0041  0.3329 -0.1237
18069TIP3    H175698   1.293   5.158  14.479  0.2397 -0.5961  0.3411
18069TIP3    H275699   1.146   5.136  14.454  0.1230  0.1651  0.3224
18070TIP3   OH275700   2.524   2.426  17.017 -0.2739 -0.2918 -0.5154
18070TIP3    H175701   2.545   2.361  16.949  0.2065  0.4762 -1.1154
18070TIP3    H275702   2.571   2.504  16.990  0.5210 -0.1976  1.1278
18071TIP3   OH275703   2.908   3.302  15.168  0.1728  0.0943  0.7314
18071TIP3    H175704   2.914   3.397  15.155  0.9543 -0.3128 -2.1466
18071TIP3    H275705   2.991   3.279  15.211 -0.0951  0.7188  1.6010
18072TIP3   OH275706   4.697   3.103   0.139 -0.6536 -0.1824  0.1014
18072TIP3    H175707   4.754   3.179   0.131 -1.9171  0.8248  0.3967
18072TIP3    H275708   4.756   3.030   0.156  0.5462  0.8299  0.3570
18073TIP3   OH275709   1.714   0.286   3.649 -0.2533 -0.0181 -0.0279
18073TIP3    H175710   1.623   0.315   3.644 -0.4709 -0.1134  2.6861
18073TIP3    H275711   1.709   0.193   3.671  0.5221 -0.5155 -1.8185
18074TIP3   OH275712   5.197   4.613  13.363 -0.3390 -0.1709 -0.1030
18074TIP3    H175713   5.185   4.555  13.438 -1.8189  0.8427  0.4683
18074TIP3    H275714   5.274   4.665  13.385  0.4132 -1.2404 -0.1837
18075TIP3   OH275715   1.918   1.359  15.651 -0.2216 -0.3257 -0.3016
18075TIP3    H175716   1.840   1.381  15.600 -0.3556  0.1733  0.1083
18075TIP3    H275717   1.927   1.431  15.714  1.8698  0.7719 -1.8071
18076TIP3   OH275718   0.435   2.425  13.993 -0.1853 -0.1815  0.1889
18076TIP3    H175719   0.435   2.503  14.049  3.0868  0.2647 -0.3177
18076TIP3    H275720   0.457   2.458  13.906 -3.1926 -1.1438 -0.9805
18077TIP3   OH275721   2.470   4.393   4.977  0.1405  0.5055  0.2639
18077TIP3    H175722   2.504   4.429   4.894  0.3477  1.3239  0.6942
18077TIP3    H275723   2.524   4.434   5.044 -1.8056  1.9550  0.9852
18078TIP3   OH275724   3.036   1.603  16.437 -0.3920 -0.5787 -0.1625
18078TIP3    H175725   3.027   1.588  16.343  0.3225 -1.7939 -0.0469
18078TIP3    H275726   2.998   1.525  16.477  0.0622 -0.4412  0.5406
18079TIP3   OH275727   0.390   3.681  12.297  0.3308 -0.4256  0.2232
18079TIP3    H175728   0.429   3.600  12.265 -0.0354  0.6275 -3.1369
18079TIP3    H275729   0.297   3.662  12.303  0.3316 -0.4603  0.1259
18080TIP3   OH275730   5.873   4.941   2.150 -0.1592 -0.0552 -0.1756
18080TIP3    H175731   5.832   4.880   2.089  0.7454  1.0290 -1.8817
18080TIP3    H275732   5.956   4.900   2.174  0.1151  0.1579 -0.7567
18081TIP3   OH275733   3.987   5.662  14.513 -0.0036 -0.3404  0.5077
18081TIP3    H175734   3.894   5.683  14.521 -0.2763 -1.1074 -0.5873
18081TIP3    H275735   4.026   5.742  14.477 -0.4742 -0.4757 -0.3321
18082TIP3   OH275736   0.040   1.669   1.796  0.2171 -0.0864 -0.3766
18082TIP3    H175737  -0.027   1.724   1.755  0.8801 -0.4182 -1.9228
18082TIP3    H275738  -0.009   1.609   1.852 -0.6899  0.4467 -0.5903
18083TIP3   OH275739   6.282   1.100  16.701 -0.1117 -0.3910  0.0408
18083TIP3    H175740   6.254   1.035  16.637  1.4575 -0.7513 -0.3120
18083TIP3    H275741   6.342   1.053  16.759 -1.3009  0.0011  1.6143
18084TIP3   OH275742   4.684   2.514  12.671  0.0397  0.0444  0.9358
18084TIP3    H175743   4.661   2.421  12.675 -0.1507  0.1183  1.4654
18084TIP3    H275744   4.773   2.515  12.633 -0.1236 -0.3260  0.5398
18085TIP3   OH275745   2.226   2.658  15.772 -0.2709 -0.0414  0.6286
18085TIP3    H175746   2.195   2.681  15.860 -1.6452  0.5742 -0.0037
18085TIP3    H275747   2.311   2.703  15.765 -1.3942  2.1622  0.6490
18086TIP3   OH275748   0.343   3.389  11.323  0.0905  0.0343 -0.7232
18086TIP3    H175749   0.340   3.484  11.314 -0.0241  0.0486 -0.5207
18086TIP3    H275750   0.393   3.360  11.246  1.1188  0.3472 -0.1901
18087TIP3   OH275751   4.646   0.495  12.711  0.5395 -0.5597  0.2930
18087TIP3    H175752   4.674   0.562  12.774 -2.1791  1.2549 -0.3687
18087TIP3    H275753   4.721   0.436  12.705  1.7283  0.5044  3.4784
18088TIP3   OH275754   3.042   3.997  16.975 -0.4336 -0.1718  0.3969
18088TIP3    H175755   2.963   3.949  16.952 -0.3806 -0.4288  0.7442
18088TIP3    H275756   3.051   4.063  16.907  1.3367 -2.7377 -1.9467
18089TIP3   OH275757   6.712   1.379  12.307  0.5868 -0.4230 -0.0356
18089TIP3    H175758   6.751   1.456  12.348  0.3630  0.4620 -1.4266
18089TIP3    H275759   6.620   1.382  12.332  0.2247  0.6892 -1.3584
18090TIP3   OH275760   6.062   3.251   3.933 -0.2289  0.0052  0.5753
18090TIP3    H175761   6.055   3.292   4.019 -2.3237 -0.2681  0.5752
18090TIP3    H275762   6.066   3.157   3.951 -1.5222 -0.1064  0.3840
18091TIP3   OH275763   1.947   3.693   5.480  0.0278  0.0489  0.4467
18091TIP3    H175764   2.000   3.732   5.411 -0.6549 -0.2708 -0.2751
18091TIP3    H275765   2.004   3.629   5.522  0.6258  0.6506  0.5549
18092TIP3   OH275766   4.688   1.252  14.197 -0.5344 -0.5808  0.8116
18092TIP3    H175767   4.642   1.221  14.275 -0.7903 -0.1484  0.8303
18092TIP3    H275768   4.631   1.318  14.159 -0.0823 -0.2691  0.6605
18093TIP3   OH275769   1.862   0.295  13.186 -0.3562  0.4181  0.1583
18093TIP3    H175770   1.933   0.357  13.202 -0.4443  1.1653 -2.0811
18093TIP3    H275771   1.801   0.344  13.129 -1.8833 -0.7337  0.7770
18094TIP3   OH275772   5.482   3.556  17.160  0.5946  0.1810  0.4954
18094TIP3    H175773   5.447   3.629  17.211 -1.0342  0.1436 -0.5368
18094TIP3    H275774   5.408   3.498  17.148  0.8376  0.3840 -2.2535
18095TIP3   OH275775   2.280   5.737   4.313  0.0099 -0.0972  0.7483
18095TIP3    H175776   2.230   5.655   4.309 -1.4230  0.6737  2.3676
18095TIP3    H275777   2.361   5.713   4.357 -0.8319 -0.4544  2.1272
18096TIP3   OH275778   1.334   5.984   1.994  0.5166 -0.2689 -0.4731
18096TIP3    H175779   1.250   5.953   2.028  0.2708 -1.0672 -1.7865
18096TIP3    H275780   1.395   5.913   2.011  0.7260 -0.0695 -0.3756
18097TIP3   OH275781   5.873   5.872   0.501 -0.0006 -0.5420  0.2035
18097TIP3    H175782   5.912   5.785   0.501  0.6500 -0.2542 -0.3281
18097TIP3    H275783   5.826   5.877   0.418  0.9117  0.0260 -0.2903
18098TIP3   OH275784   0.284   0.176   2.967 -0.4499  0.0989 -0.0133
18098TIP3    H175785   0.323   0.112   3.025  3.3811  2.1652 -0.1657
18098TIP3    H275786   0.240   0.238   3.025 -1.4911 -0.9198  0.3020
18099TIP3   OH275787   1.465   5.399   0.572 -0.0728 -0.2519 -0.5886
18099TIP3    H175788   1.523   5.456   0.521 -1.3897  0.8732 -0.8528
18099TIP3    H275789   1.380   5.405   0.528 -0.8225 -0.5384  0.7795
18100TIP3   OH275790   0.829   3.533  14.851 -0.3238 -0.4568  0.4086
18100TIP3    H175791   0.887   3.459  14.870 -1.9089 -1.8460 -0.0764
18100TIP3    H275792   0.805   3.567  14.937 -1.5114 -2.0432  0.7310
18101TIP3   OH275793   1.963   0.521   1.660  0.2091 -0.2972  0.3083
18101TIP3    H175794   1.880   0.506   1.614  0.7261  0.6980 -0.9977
18101TIP3    H275795   2.030   0.499   1.596  0.9465  0.3626  0.8386
18102TIP3   OH275796   5.254   5.414  16.458  0.1468  0.2325  0.5103
18102TIP3    H175797   5.160   5.411  16.438  0.1948  0.9485  0.1577
18102TIP3    H275798   5.275   5.507  16.459  0.7556  0.0893  1.0711
18103TIP3   OH275799   5.576   0.305   0.741  0.0612 -1.3502  0.4634
18103TIP3    H175800   5.580   0.369   0.812  1.5438  0.3810 -1.0954
18103TIP3    H275801   5.655   0.253   0.750  0.0717 -1.3613  0.3173
18104TIP3   OH275802   0.339   0.357  11.710 -0.6913  0.3937  0.1805
18104TIP3    H175803   0.346   0.409  11.789 -2.3379  0.6097  0.1926
18104TIP3    H275804   0.359   0.418  11.639  1.5880  0.0144  0.4370
18105TIP3   OH275805   1.307   1.438  14.543  0.3814 -0.7758 -0.0047
18105TIP3    H175806   1.281   1.454  14.634 -0.1202 -2.7174  0.2127
18105TIP3    H275807   1.252   1.498  14.492 -0.2928 -0.6156  0.8890
18106TIP3   OH275808   1.446   3.691   5.841 -0.1628  0.2033 -0.2106
18106TIP3    H175809   1.448   3.723   5.931 -2.0301  1.5140 -0.6015
18106TIP3    H275810   1.466   3.768   5.788 -0.7653 -0.1723 -0.9895
18107TIP3   OH275811   2.553   6.348  14.735 -0.2023 -0.1181  0.2381
18107TIP3    H175812   2.477   6.375  14.684 -0.7059  1.2480  1.6967
18107TIP3    H275813   2.541   6.388  14.821  0.5079 -2.6145  1.5572
18108TIP3   OH275814   5.708   4.000   2.974  0.3981 -0.0556  0.3964
18108TIP3    H175815   5.720   3.914   3.014 -1.2440 -0.1496  0.6850
18108TIP3    H275816   5.705   3.982   2.880 -3.0873 -0.7090  0.5881
18109TIP3   OH275817   1.480   3.846  14.435  0.3898 -0.5106 -0.4958
18109TIP3    H175818   1.534   3.918  14.402  0.2058 -0.3347 -0.4097
18109TIP3    H275819   1.408   3.839  14.371  0.9654 -1.2920 -1.0729
18110TIP3   OH275820   2.531   1.647   5.294  0.1217  0.0102 -0.3305
18110TIP3    H175821   2.487   1.562   5.288  1.2480 -0.6194  0.3349
18110TIP3    H275822   2.603   1.642   5.232  0.5885  0.2369  0.1877
18111TIP3   OH275823   1.852   0.096  16.739 -0.1325 -0.5779 -0.0812
18111TIP3    H175824   1.866   0.154  16.814  0.3241  2.2515 -2.2982
18111TIP3    H275825   1.903   0.018  16.760  1.7916  1.0669  1.5793
18112TIP3   OH275826   2.717   6.796  12.612  0.0840  0.0080 -0.2481
18112TIP3    H175827   2.631   6.831  12.636 -0.2524  1.0410 -2.7889
18112TIP3    H275828   2.710   6.702  12.632 -1.0587  0.3637  1.1052
18113TIP3   OH275829   5.765   5.521   5.949 -0.7137  0.1175 -0.4120
18113TIP3    H175830   5.849   5.487   5.977 -1.2923 -0.4247  0.6845
18113TIP3    H275831   5.706   5.446   5.951 -1.6041  0.8250  0.3989
18114TIP3   OH275832   2.506   2.754   5.175 -0.6557  0.4704  0.7553
18114TIP3    H175833   2.478   2.839   5.142 -1.3078  0.4102  1.1339
18114TIP3    H275834   2.426   2.701   5.173  0.4541 -1.2534 -2.9196
18115TIP3   OH275835   0.918   1.992   1.285  0.3975  0.3041  0.6152
18115TIP3    H175836   0.987   1.976   1.350  0.7475  1.0843  0.4324
18115TIP3    H275837   0.947   2.069   1.238 -1.3592  1.5838  1.5817
18116TIP3   OH275838   4.222   5.471   5.892 -0.1814  0.7094 -0.1842
18116TIP3    H175839   4.254   5.482   5.803 -0.8088  1.1949 -0.3542
18116TIP3    H275840   4.132   5.439   5.882 -0.5216  1.5066  0.2534
18117TIP3   OH275841   2.511   1.930   4.371 -0.0264  0.4633  0.4204
18117TIP3    H175842   2.449   1.884   4.428 -0.1368  0.1174  0.0177
18117TIP3    H275843   2.597   1.913   4.410 -0.1530  0.6850  0.8016
18118TIP3   OH275844   5.596   4.308  16.223  0.0988  0.1433  0.4037
18118TIP3    H175845   5.504   4.312  16.251  0.1577 -1.5076  0.8785
18118TIP3    H275846   5.592   4.295  16.128 -0.1872 -1.5855  0.6412
18119TIP3   OH275847   1.913   3.516  16.892 -0.6420 -0.0954 -0.0026
18119TIP3    H175848   1.879   3.605  16.886 -0.2465  0.2984  2.9101
18119TIP3    H275849   1.977   3.510  16.821 -0.9558  1.8155 -0.4627
18120TIP3   OH275850   1.202   0.052   4.420 -0.4472 -0.2888  0.1776
18120TIP3    H175851   1.279   0.093   4.381 -0.9540  0.6418  0.1464
18120TIP3    H275852   1.129   0.082   4.366 -0.6245 -2.7759 -1.0405
18121TIP3   OH275853   0.452   4.077  14.133  0.0027 -0.1385  0.0481
18121TIP3    H175854   0.439   4.155  14.079 -0.7834 -0.4007 -0.1499
18121TIP3    H275855   0.476   4.112  14.219 -0.1155  0.3197 -0.1028
18122TIP3   OH275856   1.948   5.448   4.747 -0.3139  0.3293  0.1071
18122TIP3    H175857   1.951   5.427   4.841 -1.3505  0.9472  0.2944
18122TIP3    H275858   1.855   5.445   4.725 -0.1495  1.0080 -0.7088
18123TIP3   OH275859   4.578   4.187  16.261  0.0206 -0.1233  0.4383
18123TIP3    H175860   4.590   4.176  16.355 -1.5765  0.9196  0.7802
18123TIP3    H275861   4.659   4.153  16.222  1.0911  0.3098  2.2392
18124TIP3   OH275862   1.481   4.605  13.110  0.2057 -0.3252 -0.1212
18124TIP3    H175863   1.386   4.600  13.116  0.3452 -2.5300  0.8127
18124TIP3    H275864   1.504   4.690  13.148 -1.3472  0.0499 -0.0165
18125TIP3   OH275865   3.174   2.098  11.682  0.3035 -0.5645 -0.0050
18125TIP3    H175866   3.128   2.045  11.616  0.1629  0.1867 -0.5120
18125TIP3    H275867   3.228   2.159  11.631 -0.0688  0.2494  0.5635
18126TIP3   OH275868   2.435   2.745  16.920  0.4135 -0.5747  0.4572
18126TIP3    H175869   2.409   2.798  16.995  0.2281 -0.2750  0.1858
18126TIP3    H275870   2.514   2.700  16.949  0.5192 -0.2185  0.7285
18127TIP3   OH275871   2.516   1.628  14.332  0.0826 -0.3360 -0.7120
18127TIP3    H175872   2.472   1.544  14.322  0.3017 -0.4553 -0.6578
18127TIP3    H275873   2.605   1.613  14.302 -0.1856  0.1652 -1.8098
18128TIP3   OH275874   3.091   5.324  16.636  0.0696 -0.2635 -0.3231
18128TIP3    H175875   3.136   5.363  16.561  1.5368  0.3878  0.8841
18128TIP3    H275876   3.025   5.266  16.596  0.4179  0.5261 -2.1052
18129TIP3   OH275877   4.660   5.829  13.589 -0.3000 -0.1658  0.3492
18129TIP3    H175878   4.638   5.890  13.519  0.1737  0.1980  0.5166
18129TIP3    H275879   4.598   5.756  13.578  0.2380 -0.4454 -0.8700
18130TIP3   OH275880   2.851   2.794  10.996 -0.2950 -0.0925 -0.4723
18130TIP3    H175881   2.897   2.878  10.989  3.2604 -1.7009  1.9786
18130TIP3    H275882   2.883   2.743  10.921 -0.6423 -0.1163 -0.6084
18131TIP3   OH275883   1.664   4.201   2.424 -0.0865  0.1846  0.0196
18131TIP3    H175884   1.708   4.277   2.462 -0.3189  0.0486  0.5570
18131TIP3    H275885   1.572   4.211   2.448 -0.2010 -0.0104 -0.3291
18132TIP3   OH275886   1.253   3.635   3.515 -0.2054 -0.0428 -0.4027
18132TIP3    H175887   1.172   3.669   3.553  0.3868  0.0720  0.7729
18132TIP3    H275888   1.281   3.566   3.576  1.0749  0.5543 -0.3004
18133TIP3   OH275889   4.261   5.041  15.366 -0.3021  0.2386 -0.2700
18133TIP3    H175890   4.241   4.980  15.437 -0.4024  1.0530  0.4074
18133TIP3    H275891   4.183   5.040  15.311 -0.3388 -0.1696 -0.2143
18134TIP3   OH275892   2.350   0.061   4.647 -0.0877  0.3827  0.1171
18134TIP3    H175893   2.419   0.118   4.682 -0.5432  1.8851 -1.3389
18134TIP3    H275894   2.269   0.096   4.686  0.0023 -1.9788  2.5943
18135TIP3   OH275895   0.935   0.959   6.313  0.1025 -0.4778  1.3955
18135TIP3    H175896   0.912   1.017   6.386 -1.1636  0.3403  0.3662
18135TIP3    H275897   1.030   0.970   6.304 -0.0143  0.9417  1.6511
18136TIP3   OH275898   5.033   4.936   4.121  0.1950 -0.1631  0.3274
18136TIP3    H175899   4.949   4.901   4.091 -0.3212 -0.6699  2.2357
18136TIP3    H275900   5.051   5.010   4.064  0.2080 -2.1975 -2.3861
18137TIP3   OH275901   5.503   1.673  16.643 -0.1662  0.0014 -0.2657
18137TIP3    H175902   5.578   1.719  16.606 -2.2783  2.6039 -1.4273
18137TIP3    H275903   5.490   1.597  16.585  0.6534  0.3554 -0.9137
18138TIP3   OH275904   5.683   1.601   1.913  0.1337  0.3395 -0.0445
18138TIP3    H175905   5.745   1.646   1.856 -0.1506  0.0876 -0.5566
18138TIP3    H275906   5.731   1.525   1.945  0.1931  0.3113 -0.2000
18139TIP3   OH275907   5.986   5.485  13.594 -0.2718 -0.1363 -0.4147
18139TIP3    H175908   6.046   5.412  13.579  0.8412  0.5874  0.3519
18139TIP3    H275909   5.917   5.449  13.649  1.0060 -0.2822  1.1292
18140TIP3   OH275910   6.075   2.057  15.380 -1.0514  0.9274  0.0663
18140TIP3    H175911   6.029   2.077  15.462 -1.6769 -1.8945  0.4603
18140TIP3    H275912   6.165   2.086  15.395 -1.1730  0.4677  1.7653
18141TIP3   OH275913   4.479   0.698   5.584 -0.2628  0.4760  0.0934
18141TIP3    H175914   4.428   0.655   5.515 -1.2984 -1.4944  2.0264
18141TIP3    H275915   4.415   0.748   5.634 -0.2952 -1.5365  2.1787
18142TIP3   OH275916   4.673   3.524   0.217 -0.1599 -0.1659 -0.0477
18142TIP3    H175917   4.728   3.546   0.141  0.6169  0.7662  0.7684
18142TIP3    H275918   4.717   3.449   0.257  1.4782  1.5794  1.5412
18143TIP3   OH275919   6.776   0.493  12.338 -0.7587  0.9094  0.1325
18143TIP3    H175920   6.767   0.573  12.389 -2.0921  1.2684 -0.6371
18143TIP3    H275921   6.774   0.523  12.247  0.2187  0.1440 -0.1478
18144TIP3   OH275922   5.999   1.199  15.187  0.1189  0.1665  0.1573
18144TIP3    H175923   6.032   1.115  15.154 -0.1651 -0.5711  1.6614
18144TIP3    H275924   6.064   1.263  15.159 -0.4467 -0.3276 -2.3186
18145TIP3   OH275925   6.783   1.533  17.159  0.3525 -0.3602 -0.6972
18145TIP3    H175926   6.742   1.611  17.123  2.8557  0.8436 -1.0917
18145TIP3    H275927   6.814   1.559  17.245  1.4866 -0.7975 -0.9532
18146TIP3   OH275928   4.489   6.472   0.151  0.7643  1.0094  0.4964
18146TIP3    H175929   4.502   6.502   0.241  1.1453  0.1399  0.7336
18146TIP3    H275930   4.564   6.507   0.103  2.2413 -1.1194  1.1637
18147TIP3   OH275931   1.270   1.395   5.046  0.3391 -0.2344  0.1726
18147TIP3    H175932   1.186   1.356   5.071 -0.1835  1.4283  1.0694
18147TIP3    H275933   1.263   1.486   5.074  1.3767  0.6304 -2.3133
18148TIP3   OH275934   6.576   0.356   6.726  0.3841  0.5532  0.8737
18148TIP3    H175935   6.481   0.344   6.734  0.2978  1.5631  1.3885
18148TIP3    H275936   6.591   0.370   6.633  0.0164  0.5196  0.8072
18149TIP3   OH275937   4.286   3.427  13.272 -0.1575 -0.1879  0.2247
18149TIP3    H175938   4.363   3.382  13.305 -0.5867 -1.3817 -0.3508
18149TIP3    H275939   4.214   3.366  13.288 -0.2254 -1.3188 -3.8590
18150TIP3   OH275940   6.516   0.220  13.063 -0.2698  0.1413 -0.1860
18150TIP3    H175941   6.516   0.302  13.012 -0.1287 -0.5657 -1.3408
18150TIP3    H275942   6.492   0.247  13.152  0.9385  1.6018 -0.2886
18151TIP3   OH275943   5.750   2.433   0.565 -0.1961  0.0733  0.2441
18151TIP3    H175944   5.703   2.424   0.482  1.1644 -0.8800 -0.4511
18151TIP3    H275945   5.815   2.363   0.562  0.3908  0.5469  1.7689
18152TIP3   OH275946   2.891   5.326   1.112 -0.2242  0.0050  0.1501
18152TIP3    H175947   2.941   5.314   1.031  0.9199  1.5068  0.6175
18152TIP3    H275948   2.849   5.242   1.126  1.0796 -0.8635 -0.9945
18153TIP3   OH275949   0.301   5.565   1.268 -0.3852 -0.1256 -0.3061
18153TIP3    H175950   0.370   5.501   1.281  0.6867  1.2649  1.1665
18153TIP3    H275951   0.276   5.592   1.357 -0.6356  1.6410 -0.8806
18154TIP3   OH275952   6.052   4.018  10.756 -1.0739 -0.3756 -0.3046
18154TIP3    H175953   5.958   4.001  10.746 -1.2404  0.7499 -0.6502
18154TIP3    H275954   6.057   4.085  10.824 -0.5695  0.1894 -0.8926
18155TIP3   OH275955   3.948   4.599  15.753 -0.0399 -0.3538 -0.2494
18155TIP3    H175956   4.016   4.623  15.689 -1.0693  0.0121 -1.2286
18155TIP3    H275957   3.930   4.681  15.800  1.1387 -0.7579  0.9395
18156TIP3   OH275958   6.349   3.906   1.591  0.6298  0.6732  0.3016
18156TIP3    H175959   6.393   3.991   1.583  0.8406  0.5962  0.6464
18156TIP3    H275960   6.372   3.875   1.679  0.1458  0.4843  0.3599
18157TIP3   OH275961   0.407   2.213   2.063  0.0680  0.4280  0.0990
18157TIP3    H175962   0.426   2.137   2.118 -0.5269  0.2054  0.0029
18157TIP3    H275963   0.389   2.283   2.125 -0.9447  0.0915  0.2033
18158TIP3   OH275964   0.802   2.687   6.016 -0.5157 -0.7761  0.2082
18158TIP3    H175965   0.896   2.670   6.022 -0.6714 -2.3206 -1.1502
18158TIP3    H275966   0.774   2.703   6.106  1.4029  1.8019  0.4022
18159TIP3   OH275967   0.937   4.594   0.883  0.1596 -0.0366 -0.2497
18159TIP3    H175968   0.937   4.677   0.835 -2.0037  0.3234  0.2993
18159TIP3    H275969   0.992   4.611   0.960 -0.5362  1.0151  0.0338
18160TIP3   OH275970   5.757   6.296   6.299  0.4994 -0.0346 -0.3365
18160TIP3    H175971   5.712   6.214   6.316  1.6296 -0.7182 -0.5660
18160TIP3    H275972   5.709   6.361   6.351 -0.9522 -0.6644 -0.8655
18161TIP3   OH275973   2.704   0.207   0.946  0.6522  0.5003  0.4865
18161TIP3    H175974   2.752   0.220   0.864 -1.5605  1.2591 -0.7268
18161TIP3    H275975   2.657   0.124   0.933  0.0799  0.7621  0.8968
18162TIP3   OH275976   3.573   4.050   6.558 -0.1189  0.3755  0.0714
18162TIP3    H175977   3.565   4.144   6.574 -1.1642  0.7327 -2.3781
18162TIP3    H275978   3.642   4.043   6.491  0.8599 -0.6948  1.1739
18163TIP3   OH275979   6.359   6.272  16.252 -1.0688 -0.0602 -0.3086
18163TIP3    H175980   6.289   6.307  16.306 -1.9784 -0.6679 -1.0739
18163TIP3    H275981   6.426   6.243  16.314 -0.2431  3.0315  0.3613
18164TIP3   OH275982   3.447   1.869   0.047  0.0391 -0.2583  0.5976
18164TIP3    H175983   3.401   1.789   0.071 -1.0078  0.1878  0.0832
18164TIP3    H275984   3.398   1.903  -0.028  0.5476  0.8028  0.7492
18165TIP3   OH275985   0.189   2.852   4.436  0.6580  0.0826 -0.2934
18165TIP3    H175986   0.179   2.756   4.441  0.6219  0.1564  1.3776
18165TIP3    H275987   0.122   2.879   4.373  0.1516 -0.9306 -0.2098
18166TIP3   OH275988   6.401   4.587  15.087 -0.1282 -0.5249 -0.0072
18166TIP3    H175989   6.369   4.535  15.161 -0.5725 -2.0089 -1.2305
18166TIP3    H275990   6.483   4.625  15.119 -0.7274 -0.4679  1.5237
18167TIP3   OH275991   2.631   0.248   0.213  0.1070 -0.4297  0.0976
18167TIP3    H175992   2.618   0.157   0.186 -1.7125 -0.0043 -0.5461
18167TIP3    H275993   2.624   0.299   0.132 -1.5906  0.5055  0.8066
18168TIP3   OH275994   5.379   1.518  12.673 -0.7317  0.0179 -0.4295
18168TIP3    H175995   5.404   1.555  12.588  2.6307 -0.0590  0.4498
18168TIP3    H275996   5.422   1.433  12.675 -0.4245  0.2101  1.4883
18169TIP3   OH275997   3.922   6.462  11.584 -0.1481 -0.2097  0.3828
18169TIP3    H175998   3.848   6.404  11.564 -1.0062  1.3046 -0.9434
18169TIP3    H275999   3.958   6.485  11.499 -0.3145  1.8309  0.8404
18170TIP3   OH276000   1.049   4.371  12.528 -0.1163  0.1232 -0.4181
18170TIP3    H176001   1.071   4.332  12.444 -0.0846 -1.1962  0.1776
18170TIP3    H276002   1.073   4.463  12.520 -0.7794  0.1527 -2.0746
18171TIP3   OH276003   3.572   5.694  13.098  0.3210  0.6661  0.6764
18171TIP3    H176004   3.666   5.710  13.098  0.5138 -0.4193  0.8693
18171TIP3    H276005   3.552   5.666  13.009  0.2464  0.5067  0.7441
18172TIP3   OH276006   3.187   5.728   0.766 -0.0740 -0.1546 -0.5599
18172TIP3    H176007   3.122   5.664   0.795 -1.5976  1.6195  0.0377
18172TIP3    H276008   3.201   5.707   0.674 -0.5534 -1.3498 -0.3706
18173TIP3   OH276009   2.581   3.198  11.695  0.6064  0.1548  0.2001
18173TIP3    H176010   2.558   3.169  11.783 -1.6053  1.5239  0.0957
18173TIP3    H276011   2.660   3.148  11.674  1.1256 -0.2577  2.9075
18174TIP3   OH276012   1.663   3.081   0.680 -0.1281  0.2417  0.0506
18174TIP3    H176013   1.714   3.008   0.643 -0.6568 -0.6225  0.9926
18174TIP3    H276014   1.595   3.038   0.732 -1.1680  1.4062 -0.3412
18175TIP3   OH276015   5.723   3.990  17.032  0.2985  0.0208  0.7132
18175TIP3    H176016   5.763   3.991  16.945 -0.8553 -0.0461  0.1780
18175TIP3    H276017   5.793   4.019  17.090  1.2078 -0.3469 -0.1815
18176TIP3   OH276018   3.583   6.781  12.063  0.3671 -0.5275 -0.2763
18176TIP3    H176019   3.569   6.784  11.969  1.5567 -0.0658 -0.4487
18176TIP3    H276020   3.620   6.695  12.080  0.4183 -0.5035 -0.2672
18177TIP3   OH276021   1.066   2.146   1.133  0.2560  0.2784 -0.1781
18177TIP3    H176022   1.127   2.124   1.062 -0.2852  0.1380 -0.6015
18177TIP3    H276023   1.118   2.200   1.194  0.5511  0.9046 -0.9784
18178TIP3   OH276024   6.460   5.423   2.955  0.4333  0.2057  0.4328
18178TIP3    H176025   6.514   5.488   3.001 -0.2859  1.8937 -1.0365
18178TIP3    H276026   6.510   5.402   2.876  0.0021  0.0510  0.1989
18179TIP3   OH276027   6.417   0.778   5.322 -0.0050  0.0234 -0.2312
18179TIP3    H176028   6.400   0.872   5.326 -2.2476 -0.3664  0.1829
18179TIP3    H276029   6.429   0.752   5.413  2.3081  0.1568 -0.4569
18180TIP3   OH276030   0.345   4.429   5.777  0.0108  0.4101  0.9182
18180TIP3    H176031   0.433   4.428   5.739 -0.7680  1.1347 -0.9646
18180TIP3    H276032   0.326   4.338   5.796  1.0701  0.2220  1.1278
18181TIP3   OH276033   1.112   1.832   2.421  0.0091 -0.1777 -0.7653
18181TIP3    H176034   1.120   1.759   2.360 -2.0764 -2.4348  1.5060
18181TIP3    H276035   1.038   1.883   2.388 -1.4640 -1.6968  0.1012
18182TIP3   OH276036   4.902   2.803  11.835 -0.5696  0.2139 -0.1785
18182TIP3    H176037   4.969   2.741  11.865 -0.8284 -1.0063 -2.0580
18182TIP3    H276038   4.910   2.877  11.895  0.4052 -1.2132  1.5003
18183TIP3   OH276039   0.054   5.692  16.592 -0.1672  0.3647  0.5609
18183TIP3    H176040   0.006   5.774  16.580  0.4398  0.8350  1.2785
18183TIP3    H276041   0.142   5.711  16.560 -0.3372 -0.3577 -0.3371
18184TIP3   OH276042   1.170   0.717   6.078 -0.7113  0.4002  0.2024
18184TIP3    H176043   1.081   0.686   6.096  0.2312 -1.6108  1.5122
18184TIP3    H276044   1.225   0.674   6.143  1.5199  0.0648 -1.8073
18185TIP3   OH276045   6.258   4.073   1.176  0.3717  0.1627 -0.1935
18185TIP3    H176046   6.183   4.015   1.167 -0.0372  0.1442  2.7923
18185TIP3    H276047   6.230   4.156   1.138  0.2508 -0.9702 -2.6507
18186TIP3   OH276048   0.373   5.672  17.041  0.2544  0.3813  0.1906
18186TIP3    H176049   0.447   5.640  17.093  0.4384  1.7021  0.7493
18186TIP3    H276050   0.312   5.598  17.040  1.3606 -0.5498  0.1381
18187TIP3   OH276051   2.068   5.680   1.511  0.5776 -0.2501  0.0171
18187TIP3    H176052   2.096   5.759   1.464 -1.1817 -0.0249 -0.6909
18187TIP3    H276053   1.984   5.704   1.551  0.6235 -1.3828  0.8119
18188TIP3   OH276054   6.435   0.463  15.673  0.2637 -0.4245 -0.1485
18188TIP3    H176055   6.364   0.495  15.617  1.0164 -0.3291 -1.0769
18188TIP3    H276056   6.502   0.531  15.667  0.5246 -0.6183  0.5507
18189TIP3   OH276057   3.369   5.108   3.344  0.1140 -0.1851 -0.1045
18189TIP3    H176058   3.300   5.113   3.278 -0.0041  0.6531  0.0675
18189TIP3    H276059   3.442   5.066   3.300 -0.7830 -1.8299 -0.0417
18190TIP3   OH276060   4.921   6.282   3.993  0.1044  0.0744  0.7962
18190TIP3    H176061   4.841   6.317   4.032  0.5695  0.3095  1.5352
18190TIP3    H276062   4.906   6.289   3.898 -0.6341  0.3855  0.9354
18191TIP3   OH276063   2.068   2.878   1.542  0.3859 -0.0611 -0.8344
18191TIP3    H176064   2.158   2.911   1.530  0.3774 -0.4768 -2.1178
18191TIP3    H276065   2.079   2.784   1.549  0.0660 -0.0931 -0.7921
18192TIP3   OH276066   6.112   4.006   4.313 -0.2542  0.2444  0.1973
18192TIP3    H176067   6.152   4.060   4.244 -1.8044  0.5152 -0.5054
18192TIP3    H276068   6.032   4.053   4.337  0.0206 -0.1030  1.8430
18193TIP3   OH276069   0.255   5.550   5.522  0.7930  0.5091  0.4231
18193TIP3    H176070   0.214   5.637   5.521 -0.0947  0.1095  1.0908
18193TIP3    H276071   0.308   5.547   5.443  2.4391  2.4190  1.4131
18194TIP3   OH276072   3.753   6.369  11.230  0.5361 -0.0353 -0.5603
18194TIP3    H176073   3.740   6.286  11.183  1.4018 -1.3666  1.4689
18194TIP3    H276074   3.697   6.361  11.308  0.5397  1.3428 -0.4124
18195TIP3   OH276075   4.762   5.070   3.070  0.3745 -0.4490  0.7513
18195TIP3    H176076   4.846   5.074   3.115  1.6926 -3.2953 -1.3014
18195TIP3    H276077   4.766   5.139   3.003  0.0300  1.0615  2.2468
18196TIP3   OH276078   1.562   1.481   5.652 -0.4041 -0.0801 -0.3964
18196TIP3    H176079   1.501   1.504   5.582  0.8180  0.9004 -1.1458
18196TIP3    H276080   1.565   1.559   5.708 -0.5952 -0.4922  0.1994
18197TIP3   OH276081   4.939   1.266   2.781  0.0961  0.2677  0.5126
18197TIP3    H176082   4.873   1.266   2.711 -0.2261  2.0157  0.7923
18197TIP3    H276083   4.995   1.191   2.761 -0.9016 -0.1548 -0.7659
18198TIP3   OH276084   0.250   6.349   5.547  0.8352  0.1197 -0.7007
18198TIP3    H176085   0.198   6.282   5.504 -1.5801  1.8322 -0.5759
18198TIP3    H276086   0.330   6.355   5.495 -0.2189 -0.7744 -2.4653
18199TIP3   OH276087   4.734   5.626  14.862 -0.1098 -0.0091  0.0597
18199TIP3    H176088   4.642   5.611  14.881 -0.0316 -0.6667 -0.0549
18199TIP3    H276089   4.753   5.568  14.788  0.5477 -0.3553  0.4912
18200TIP3   OH276090   1.151   6.003   3.721 -0.1783 -0.0667 -0.6480
18200TIP3    H176091   1.081   6.056   3.759  0.2905 -0.1210  0.2992
18200TIP3    H276092   1.219   6.066   3.696  0.2051 -0.1777  0.1030
18201TIP3   OH276093   2.584   1.337   3.422  0.4298  0.1299  1.3170
18201TIP3    H176094   2.635   1.416   3.442 -1.7785  2.3905 -1.6020
18201TIP3    H276095   2.633   1.294   3.352  1.6001 -1.1091  2.8647
18202TIP3   OH276096   6.402   3.881  12.900 -0.3947  0.5768  0.2312
18202TIP3    H176097   6.488   3.871  12.859 -0.5576 -0.1069  0.0462
18202TIP3    H276098   6.371   3.791  12.912 -0.0810  0.7433  2.4406
18203TIP3   OH276099   6.112   4.891   4.942 -0.4448 -0.2875 -0.4312
18203TIP3    H176100   6.169   4.900   5.019 -0.2048 -1.5491 -0.4606
18203TIP3    H276101   6.169   4.910   4.868  0.0868 -2.0525 -0.4967
18204TIP3   OH276102   3.672   6.715  15.177  0.0152  0.2868 -0.1540
18204TIP3    H176103   3.754   6.691  15.133 -0.9028 -0.7747 -1.3268
18204TIP3    H276104   3.648   6.799  15.138  0.7719  0.8170  0.5139
18205TIP3   OH276105   6.411   4.635  16.447  0.2024 -0.3058  0.1214
18205TIP3    H176106   6.359   4.651  16.368  0.7944  0.4031 -0.1314
18205TIP3    H276107   6.359   4.572  16.498 -0.9069  0.4127 -0.1129
18206TIP3   OH276108   1.316   4.812  14.365  0.6470  0.0112 -0.5741
18206TIP3    H176109   1.246   4.873  14.341 -0.1626 -0.3167  0.8842
18206TIP3    H276110   1.282   4.766  14.441  2.4627 -0.1654  0.1520
18207TIP3   OH276111   0.140   6.551   6.182 -0.2189 -0.1234 -0.0359
18207TIP3    H176112   0.194   6.493   6.128  0.7717  0.9400 -0.2198
18207TIP3    H276113   0.203   6.595   6.240 -1.0851 -0.0601  0.8788
18208TIP3   OH276114   1.359   4.896   4.316 -0.1887 -0.3925 -0.0864
18208TIP3    H176115   1.278   4.855   4.346  0.1448 -0.6950  0.4041
18208TIP3    H276116   1.403   4.925   4.396 -0.5969  1.2567 -0.4457
18209TIP3   OH276117   5.638   5.059  12.407 -0.1095 -0.0393 -0.1731
18209TIP3    H176118   5.580   5.010  12.349  0.3723  1.3075 -1.8078
18209TIP3    H276119   5.579   5.120  12.452 -0.3689 -0.5714  0.2171
18210TIP3   OH276120   3.972   2.970  16.596 -0.4502  0.2723 -0.0316
18210TIP3    H176121   3.960   3.065  16.584 -0.3400  0.1555 -1.1751
18210TIP3    H276122   3.943   2.932  16.513  0.4485 -0.6163  0.0524
18211TIP3   OH276123   2.647   2.374  15.431 -0.4250  0.7496  0.7523
18211TIP3    H176124   2.567   2.421  15.410 -2.1923 -1.0434  3.1753
18211TIP3    H276125   2.617   2.289  15.464  2.5187 -0.4315  0.5481
18212TIP3   OH276126   3.533   3.531   1.197 -0.1034 -0.1232  0.2921
18212TIP3    H176127   3.556   3.439   1.203 -2.2709 -0.6295  1.5665
18212TIP3    H276128   3.568   3.560   1.113  0.1598 -2.2443 -0.3446
18213TIP3   OH276129   1.367   4.446  11.369  0.0168 -0.1563 -0.2984
18213TIP3    H176130   1.302   4.384  11.336 -0.4131  0.0513  0.1574
18213TIP3    H276131   1.445   4.392  11.386  0.0073 -0.3798 -0.9630
18214TIP3   OH276132   5.484   0.920   0.162  0.5550  0.5409  0.1946
18214TIP3    H176133   5.429   0.986   0.118  1.2770 -0.3961 -2.1968
18214TIP3    H276134   5.548   0.895   0.096  0.4424 -2.3931  1.1460
18215TIP3   OH276135   5.148   0.544   5.201 -0.0606 -0.3190 -0.0826
18215TIP3    H176136   5.209   0.499   5.260  0.5553  0.1216 -0.3835
18215TIP3    H276137   5.100   0.473   5.159 -0.7699 -0.6335  1.2154
18216TIP3   OH276138   2.407   4.710  13.154  0.0476  0.2770  0.6348
18216TIP3    H176139   2.402   4.620  13.120  0.0769  0.5793 -0.1622
18216TIP3    H276140   2.437   4.699  13.244 -0.6949 -0.5718  0.7924
18217TIP3   OH276141   0.432   4.017   5.629 -0.0492  0.0739 -0.3315
18217TIP3    H176142   0.465   4.030   5.540  1.1618 -0.2230  0.0650
18217TIP3    H276143   0.508   4.033   5.685 -0.5687 -0.6689  0.6022
18218TIP3   OH276144   4.475   5.733  16.904 -0.1618 -0.1740  0.1966
18218TIP3    H176145   4.521   5.654  16.873  0.2049  0.6569 -1.4788
18218TIP3    H276146   4.392   5.732  16.857 -0.2557  0.3096  0.3507
18219TIP3   OH276147   2.696   5.444  10.583 -0.1817  0.1692  0.6804
18219TIP3    H176148   2.612   5.413  10.550 -0.5612  0.1663  1.6296
18219TIP3    H276149   2.702   5.534  10.553 -0.4075  0.0937  0.4020
18220TIP3   OH276150   6.517   5.514  12.141 -0.2816 -0.2219  0.5538
18220TIP3    H176151   6.550   5.456  12.073 -0.4492  1.0447 -0.6311
18220TIP3    H276152   6.581   5.586  12.144 -1.5837  0.9761 -0.0023
18221TIP3   OH276153   6.370   1.768  14.858 -0.2527  0.5748  0.9274
18221TIP3    H176154   6.398   1.857  14.834  0.5652  0.2864  0.7935
18221TIP3    H276155   6.326   1.735  14.780  1.6179 -0.0346  0.1179
18222TIP3   OH276156   1.021   0.413   0.500 -0.3058  0.1613 -0.1284
18222TIP3    H176157   0.989   0.467   0.428 -0.6352 -1.3687 -1.1567
18222TIP3    H276158   1.082   0.352   0.459  0.0836 -0.2314  1.0082
18223TIP3   OH276159   5.143   1.752  11.183 -0.0425  0.5627  0.3855
18223TIP3    H176160   5.174   1.672  11.225  0.0903  0.0821 -0.6165
18223TIP3    H276161   5.223   1.798  11.156 -0.1140  1.1297  1.1339
18224TIP3   OH276162   0.007   2.490   6.435 -0.5759  0.7111  0.6976
18224TIP3    H176163  -0.051   2.554   6.395 -1.5639 -1.5494 -1.6703
18224TIP3    H276164   0.094   2.513   6.402 -1.2076 -0.3512 -1.8562
18225TIP3   OH276165   3.522   0.331  14.757 -0.0122 -0.0029  0.4352
18225TIP3    H176166   3.556   0.296  14.675 -0.5483  0.9822 -0.2260
18225TIP3    H276167   3.591   0.314  14.821  0.4211 -0.7587 -0.2242
18226TIP3   OH276168   2.802   1.511  11.421  0.1621 -0.4667  0.0801
18226TIP3    H176169   2.876   1.487  11.477 -0.2800  1.7494  1.7206
18226TIP3    H276170   2.840   1.560  11.349  0.2866  1.3783  1.3486
18227TIP3   OH276171   3.368   5.633   1.474 -0.6497 -0.2396  0.2719
18227TIP3    H176172   3.415   5.551   1.455 -0.0631 -0.0910  1.0326
18227TIP3    H276173   3.387   5.650   1.566 -0.4279  0.9823  0.0044
18228TIP3   OH276174   2.772   6.575   3.425  0.2023  0.3979 -0.0695
18228TIP3    H176175   2.694   6.543   3.471 -0.4616  0.8005 -0.8970
18228TIP3    H276176   2.841   6.572   3.491 -0.6218  0.5060  0.8223
18229TIP3   OH276177   5.370   0.254   3.607  0.3359  0.0425  0.0866
18229TIP3    H176178   5.439   0.318   3.588  0.6134 -0.8145 -1.9088
18229TIP3    H276179   5.400   0.173   3.566 -0.0542 -1.3912  2.5132
18230TIP3   OH276180   2.167   5.477   4.309 -0.0261 -0.1472 -0.1351
18230TIP3    H176181   2.157   5.417   4.235  2.1864  1.3285 -1.6951
18230TIP3    H276182   2.251   5.451   4.348 -0.0965  0.5568  0.4823
18231TIP3   OH276183   6.303   3.031   2.652 -0.0231 -0.7451 -0.2848
18231TIP3    H176184   6.212   3.002   2.644  0.4482 -1.5923 -3.1418
18231TIP3    H276185   6.351   2.973   2.592  2.1337  0.7803 -0.0514
18232TIP3   OH276186   5.024   5.583   3.603 -0.0122 -0.2382 -0.2615
18232TIP3    H176187   4.969   5.659   3.585  0.6288  0.6879  1.5378
18232TIP3    H276188   5.098   5.619   3.652  0.0891 -2.0694  0.9828
18233TIP3   OH276189   4.211   1.635   1.537 -0.8363 -0.1542  0.1507
18233TIP3    H176190   4.245   1.627   1.448  1.4571  0.3896  0.9451
18233TIP3    H276191   4.222   1.547   1.574 -1.7358 -0.3660 -0.0827
18234TIP3   OH276192   6.539   5.483  11.694  0.1419  0.3816  0.4019
18234TIP3    H176193   6.583   5.421  11.636  1.3188  0.0893  1.5779
18234TIP3    H276194   6.519   5.558  11.638 -1.5356 -1.1085 -1.1132
18235TIP3   OH276195   0.490   4.662  13.850  0.5198  0.6016  0.4976
18235TIP3    H176196   0.449   4.589  13.803  0.1464  0.8651  0.4039
18235TIP3    H276197   0.522   4.624  13.931 -1.6198  0.7498  1.4588
18236TIP3   OH276198   1.990   4.922   0.229  0.6431  0.3081  0.2808
18236TIP3    H176199   1.934   4.997   0.250  0.3002 -0.1236  0.9209
18236TIP3    H276200   1.943   4.875   0.160  1.7113  1.6599 -1.3979
18237TIP3   OH276201   2.949   5.667   3.490  0.7538  0.0588  0.2234
18237TIP3    H176202   3.022   5.666   3.552  1.8221  0.8553 -0.9965
18237TIP3    H276203   2.911   5.754   3.501 -0.4326 -0.5921  1.3301
18238TIP3   OH276204   2.327   4.827  17.119 -0.3324  0.4871  0.2282
18238TIP3    H176205   2.414   4.792  17.104 -1.2949 -1.9729  0.0597
18238TIP3    H276206   2.332   4.868  17.206  0.3342 -1.9620  1.3871
18239TIP3   OH276207   2.386   3.872   3.847 -0.2545 -0.3610  0.7165
18239TIP3    H176208   2.309   3.891   3.900 -1.2460 -1.3886 -0.3212
18239TIP3    H276209   2.371   3.783   3.814  1.0486 -0.3104 -0.0543
18240TIP3   OH276210   1.757   2.804   3.796 -0.3012 -0.1061  0.0764
18240TIP3    H176211   1.772   2.844   3.711  1.1237 -2.3696 -0.7596
18240TIP3    H276212   1.843   2.771   3.823 -0.0818  3.0664  3.7370
18241TIP3   OH276213   2.225   0.135   0.769 -0.1260  0.8629  0.2872
18241TIP3    H176214   2.150   0.185   0.736  0.4183  2.1407  0.9417
18241TIP3    H276215   2.279   0.200   0.814  0.0107 -0.5361  2.1920
18242TIP3   OH276216   2.599   4.468  10.353 -0.1216 -0.4243 -0.2040
18242TIP3    H176217   2.538   4.427  10.292  0.8448 -0.6619 -1.0242
18242TIP3    H276218   2.569   4.442  10.439 -1.2990 -0.3734 -0.5947
18243TIP3   OH276219   3.759   5.148   5.842  0.3428 -0.3659  0.1055
18243TIP3    H176220   3.694   5.211   5.872  2.3003  1.2486  1.0841
18243TIP3    H276221   3.745   5.143   5.747 -0.7658  0.4611  0.2152
18244TIP3   OH276222   1.621   1.409  10.891  0.6245  0.5457  0.6834
18244TIP3    H176223   1.660   1.447  10.970  0.5609  1.8243  0.1290
18244TIP3    H276224   1.527   1.428  10.899  0.9186  2.9521 -0.8515
18245TIP3   OH276225   5.153   6.001  14.285  0.0555  0.2619  0.0495
18245TIP3    H176226   5.092   6.069  14.259 -0.6892  0.4502  2.1721
18245TIP3    H276227   5.107   5.951  14.353  1.1303 -1.4499 -0.4194
18246TIP3   OH276228   4.405   5.020   2.966  0.0697 -0.8303  0.0999
18246TIP3    H176229   4.478   4.977   2.921 -0.4128 -1.3931 -0.1496
18246TIP3    H276230   4.338   5.030   2.898  0.6049  1.3741 -0.1549
18247TIP3   OH276231   4.520   1.113  16.099  0.0226 -0.5311  0.6784
18247TIP3    H176232   4.540   1.093  16.190  0.9128 -0.9978  0.3855
18247TIP3    H276233   4.470   1.195  16.102  0.4954 -0.2728  1.5389
18248TIP3   OH276234   2.761   6.187  15.053  0.1124 -0.0176  0.7075
18248TIP3    H176235   2.715   6.211  14.972  1.2184 -0.9047 -0.1901
18248TIP3    H276236   2.795   6.100  15.037  1.4781  0.3219  1.6463
18249TIP3   OH276237   6.678   4.418   4.517 -0.4366  0.3461 -0.1289
18249TIP3    H176238   6.598   4.382   4.477  0.4555 -2.5286  0.6081
18249TIP3    H276239   6.646   4.481   4.581 -2.1648 -1.4306  0.8008
18250TIP3   OH276240   5.114   3.329  10.951  0.8418  0.1309  0.4620
18250TIP3    H176241   5.060   3.270  11.005 -0.4085  0.9070  0.0871
18250TIP3    H276242   5.200   3.326  10.992  0.0943  0.1437  2.0823
18251TIP3   OH276243   4.037   6.773   2.170 -0.3630 -0.3317  0.2475
18251TIP3    H176244   4.104   6.809   2.112 -0.0673 -2.5683 -0.8545
18251TIP3    H276245   4.083   6.752   2.251 -0.3322  0.8163  0.5256
18252TIP3   OH276246   4.878   5.174  11.532  0.4712 -0.2116 -0.3127
18252TIP3    H176247   4.939   5.227  11.583 -0.9744  1.4802 -0.3077
18252TIP3    H276248   4.886   5.086  11.569  1.2523  0.4639  1.1623
18253TIP3   OH276249   4.866   0.282  16.680  0.2747  0.9005 -0.7052
18253TIP3    H176250   4.939   0.336  16.648  0.3516  2.1797  1.5143
18253TIP3    H276251   4.788   0.335  16.665 -0.0881  0.0607 -1.9017
18254TIP3   OH276252   1.032   1.481   2.716  0.9833  0.2342 -0.5133
18254TIP3    H176253   1.094   1.409   2.706  0.8043 -0.0286  0.2237
18254TIP3    H276254   0.948   1.444   2.689  1.1362  0.5754 -1.4657
18255TIP3   OH276255   4.700   3.187   3.889  0.3569 -0.9612 -0.4655
18255TIP3    H176256   4.715   3.097   3.858 -0.5781 -0.9953 -0.8166
18255TIP3    H276257   4.767   3.239   3.845  0.7627 -1.4515 -0.4306
18256TIP3   OH276258   1.680   4.145  11.614  0.0007  0.0565 -0.1420
18256TIP3    H176259   1.646   4.194  11.689  1.7343 -0.6275  1.1271
18256TIP3    H276260   1.732   4.075  11.653  3.5762  1.5490 -1.9658
18257TIP3   OH276261   5.977   6.424   2.561  0.2532  0.1421 -0.3108
18257TIP3    H176262   6.039   6.371   2.510 -0.5799  0.4923 -1.7028
18257TIP3    H276263   6.023   6.507   2.574  1.3928 -0.7274  1.5165
18258TIP3   OH276264   1.552   1.387  13.189 -0.1453 -0.3505  0.5667
18258TIP3    H176265   1.550   1.428  13.276 -0.2071 -1.0178  0.8809
18258TIP3    H276266   1.645   1.370  13.173 -0.1643 -0.5428  0.6541
18259TIP3   OH276267   3.219   5.889   2.192  0.1956 -0.1963  0.1803
18259TIP3    H176268   3.131   5.866   2.224  0.3114 -2.9879 -1.3796
18259TIP3    H276269   3.253   5.808   2.155  2.4224  1.4967 -1.6127
18260TIP3   OH276270   5.800   0.791   3.037  1.0641  0.0060  0.0786
18260TIP3    H176271   5.849   0.732   3.094 -0.2683 -0.5221  0.6848
18260TIP3    H276272   5.740   0.734   2.989 -0.8298  0.9670  1.2907
18261TIP3   OH276273   6.270   3.669   2.986 -0.5683  0.4278  0.1212
18261TIP3    H176274   6.342   3.608   3.005 -1.2312 -0.5066 -0.2835
18261TIP3    H276275   6.193   3.626   3.024 -1.2257  0.4868 -1.1161
18262TIP3   OH276276   1.570   2.833   4.414 -0.9044 -0.2987  0.1657
18262TIP3    H176277   1.495   2.880   4.377 -0.8787  0.5975  1.2236
18262TIP3    H276278   1.540   2.804   4.500 -0.3633 -0.7926  0.1920
18263TIP3   OH276279   2.616   3.475  13.089 -0.5918  0.3534  0.4720
18263TIP3    H176280   2.540   3.525  13.118 -0.1629  0.1692  1.9271
18263TIP3    H276281   2.606   3.389  13.131 -0.3972 -0.2086 -0.6001
18264TIP3   OH276282   5.258   3.791  16.739 -0.2077  0.3127  0.2713
18264TIP3    H176283   5.259   3.886  16.752 -0.0445  0.1957  1.1807
18264TIP3    H276284   5.246   3.755  16.827 -2.0225 -0.4744 -0.2634
18265TIP3   OH276285   0.531   3.691   4.538  0.1272  0.3067  0.4200
18265TIP3    H176286   0.468   3.759   4.515  0.1726  0.0838 -0.3694
18265TIP3    H276287   0.480   3.610   4.539  0.5513  0.0035 -1.0424
18266TIP3   OH276288   6.314   3.770   6.603  0.6333 -0.3173 -0.5557
18266TIP3    H176289   6.371   3.828   6.552 -0.3430  0.6611 -0.5449
18266TIP3    H276290   6.366   3.690   6.615  1.6580  0.2241 -1.3101
18267TIP3   OH276291   2.292   3.414  15.602 -0.0536 -0.7910  0.4693
18267TIP3    H176292   2.364   3.443  15.658  1.0248 -1.6213 -0.4624
18267TIP3    H276293   2.321   3.433  15.513 -1.9620  0.9427  0.2001
18268TIP3   OH276294   1.638   0.529  11.207 -0.6765 -0.2140  0.3511
18268TIP3    H176295   1.642   0.526  11.111  0.7723 -1.4719  0.4292
18268TIP3    H276296   1.545   0.541  11.227 -0.6075  3.5079 -1.2763
18269TIP3   OH276297   4.652   5.085  13.355 -0.1262  0.0697  0.3161
18269TIP3    H176298   4.729   5.140  13.367 -0.3219 -0.2948  3.7104
18269TIP3    H276299   4.680   4.998  13.385 -0.2546 -1.4210 -3.5987
18270TIP3   OH276300   5.532   4.209   3.804  0.0131 -0.0265 -0.0476
18270TIP3    H176301   5.439   4.225   3.788  0.2989  1.7602 -0.1015
18270TIP3    H276302   5.568   4.189   3.718 -0.2723 -0.4836 -0.0632
18271TIP3   OH276303   6.648   3.134  17.024 -0.4891  0.2766  0.0261
18271TIP3    H176304   6.678   3.163  16.938 -1.3566  0.1203 -0.3361
18271TIP3    H276305   6.728   3.123  17.075  0.0018  0.8066 -0.6236
18272TIP3   OH276306   0.969   2.860  13.779 -0.2834 -0.3652  0.1156
18272TIP3    H176307   0.952   2.858  13.684  1.0395 -0.1071 -0.1287
18272TIP3    H276308   0.895   2.811  13.816 -0.9851 -0.2076 -1.0178
18273TIP3   OH276309   6.684   2.786  12.287  0.1459  0.4317 -0.1199
18273TIP3    H176310   6.759   2.743  12.245  0.5282 -0.4099  1.4050
18273TIP3    H276311   6.709   2.795  12.379 -1.5938  0.1786  0.4055
18274TIP3   OH276312   4.420   4.259  15.945 -0.1292 -0.4822 -0.9777
18274TIP3    H176313   4.393   4.310  16.021  0.3704 -1.2599 -0.2651
18274TIP3    H276314   4.349   4.270  15.882  1.4985  3.8735 -2.1892
18275TIP3   OH276315   1.177   6.436   3.282  0.1862 -0.4023  0.3002
18275TIP3    H176316   1.205   6.524   3.257 -1.0536 -0.0106  0.2875
18275TIP3    H276317   1.094   6.422   3.236 -0.3424 -1.0198  1.4188
18276TIP3   OH276318   6.216   0.002   5.409 -0.4680 -0.1745 -0.0073
18276TIP3    H176319   6.257   0.007   5.323  1.5854 -1.4036  0.8567
18276TIP3    H276320   6.127  -0.029   5.392 -0.8187  1.7416 -1.8562
18277TIP3   OH276321   0.811   4.645  15.115 -0.5454 -0.3625 -0.0173
18277TIP3    H176322   0.848   4.597  15.041 -2.4263 -0.9016 -0.6334
18277TIP3    H276323   0.867   4.622  15.189  1.5910  0.4890 -1.3344
18278TIP3   OH276324   5.851   1.969  13.890  0.5058  0.6356  0.2798
18278TIP3    H176325   5.798   2.049  13.898 -0.1559  0.2202  0.1375
18278TIP3    H276326   5.918   1.991  13.826  1.3949  1.6369  1.5415
18279TIP3   OH276327   0.739   6.240  12.335 -0.1827 -0.4513  0.1632
18279TIP3    H176328   0.693   6.176  12.389 -0.8387 -0.8804 -0.8927
18279TIP3    H276329   0.777   6.188  12.264 -2.2743  0.5387 -1.7384
18280TIP3   OH276330   4.012   2.679  11.953 -0.2511  0.4692 -0.2994
18280TIP3    H176331   4.055   2.764  11.940 -0.0720  0.2130 -1.4026
18280TIP3    H276332   4.084   2.616  11.954 -0.5102  0.1566 -1.0611
18281TIP3   OH276333   6.687   4.565  12.276  0.1900 -0.7386 -0.2188
18281TIP3    H176334   6.665   4.594  12.365  0.6275 -0.9899 -0.0249
18281TIP3    H276335   6.779   4.539  12.282  0.9547  1.5948 -1.3636
18282TIP3   OH276336   6.221   2.833   1.254 -0.4879  0.3791 -0.8169
18282TIP3    H176337   6.157   2.901   1.271  0.0477  0.6567  0.1241
18282TIP3    H276338   6.286   2.874   1.197 -0.4406  0.4937 -0.6789
18283TIP3   OH276339   3.568   0.453   4.031  0.2002 -0.1496 -0.2026
18283TIP3    H176340   3.590   0.543   4.055  3.7884 -0.8059 -0.8567
18283TIP3    H276341   3.556   0.456   3.936 -1.7105  0.0072  0.0265
18284TIP3   OH276342   3.907   5.890  13.482 -1.0154 -0.0363 -0.1546
18284TIP3    H176343   3.896   5.799  13.453  1.3347 -1.4273  3.0266
18284TIP3    H276344   3.819   5.918  13.506 -1.7517 -1.5019 -1.0383
18285TIP3   OH276345   1.149   3.933   4.650 -0.4925 -0.1383  0.3464
18285TIP3    H176346   1.126   3.897   4.736 -0.2110  1.0652  0.9406
18285TIP3    H276347   1.125   4.026   4.656 -1.8879 -0.3561 -1.4058
18286TIP3   OH276348   6.089   0.848   1.823 -0.1152 -0.0249  0.4521
18286TIP3    H176349   6.061   0.935   1.796  0.9188 -0.0823 -0.8547
18286TIP3    H276350   6.079   0.794   1.743  1.7706 -0.4961  0.5227
18287TIP3   OH276351   0.468   3.981   0.474  0.7704  0.0468 -0.3213
18287TIP3    H176352   0.491   4.064   0.431  0.5686 -0.1791 -0.8730
18287TIP3    H276353   0.516   3.983   0.557  2.0735 -0.0180 -1.0640
18288TIP3   OH276354   3.730   6.519   0.505  0.2505 -0.1499 -0.3822
18288TIP3    H176355   3.652   6.486   0.548  0.6227  0.1971  0.5770
18288TIP3    H276356   3.702   6.600   0.462  0.7076  1.5746  2.4114
18289TIP3   OH276357   4.841   3.795   0.117 -0.0561  0.0607 -0.3215
18289TIP3    H176358   4.927   3.833   0.098 -0.5879  0.7209 -1.4623
18289TIP3    H276359   4.801   3.857   0.178  0.5083 -0.5822  0.7417
18290TIP3   OH276360   0.837   6.589  12.792 -0.4988 -0.4413 -0.0652
18290TIP3    H176361   0.853   6.528  12.864  0.0294  0.0965  0.2798
18290TIP3    H276362   0.760   6.639  12.819 -2.1955 -2.3389 -1.2730
18291TIP3   OH276363   0.380   2.916   1.189  0.2483 -0.3479  0.3238
18291TIP3    H176364   0.474   2.923   1.203  0.4309 -3.1235  0.8037
18291TIP3    H276365   0.371   2.882   1.099 -0.3560  0.9924 -0.1427
18292TIP3   OH276366   1.863   5.804  16.590 -0.4445  0.0346  0.0652
18292TIP3    H176367   1.951   5.774  16.615 -0.6737 -2.9277 -2.4567
18292TIP3    H276368   1.806   5.770  16.659 -0.0679 -1.2993 -0.2611
18293TIP3   OH276369   5.600   5.993   3.207  0.2357 -0.4393 -0.6299
18293TIP3    H176370   5.590   5.911   3.158  2.9430 -0.1118 -1.8352
18293TIP3    H276371   5.557   5.976   3.291 -1.8386 -2.0493 -1.9615
18294TIP3   OH276372   6.479   3.278  15.082 -0.9442  0.0037  0.8470
18294TIP3    H176373   6.474   3.226  15.162  1.6648  1.1763  1.8146
18294TIP3    H276374   6.532   3.354  15.106 -0.4560  0.5669 -1.8845
18295TIP3   OH276375   4.481   6.186   1.652  0.6295 -0.0357 -0.6884
18295TIP3    H176376   4.560   6.238   1.640  1.1495 -0.5326  0.5643
18295TIP3    H276377   4.497   6.105   1.602  0.3964  0.3856 -1.4572
18296TIP3   OH276378   5.602   4.054   5.957  0.1095  0.1798  0.0967
18296TIP3    H176379   5.608   4.010   5.873 -1.7083  0.4903 -0.2255
18296TIP3    H276380   5.643   4.140   5.942  0.3724 -0.0124 -0.2865
18297TIP3   OH276381   2.338   0.358   5.304  0.0237  0.2530  0.4961
18297TIP3    H176382   2.272   0.293   5.328  0.4252  0.2872  1.7571
18297TIP3    H276383   2.419   0.309   5.299 -0.1220  0.1601 -1.3349
18298TIP3   OH276384   1.492   2.431   2.712  0.1924  0.6082  0.0016
18298TIP3    H176385   1.552   2.403   2.643  1.0397 -0.3692  1.0861
18298TIP3    H276386   1.546   2.486   2.769 -0.7241  2.1288 -0.5683
18299TIP3   OH276387   5.909   1.612  16.619 -0.0565 -0.3264 -0.2165
18299TIP3    H176388   5.942   1.551  16.685  0.2294  0.4340  0.3512
18299TIP3    H276389   5.957   1.589  16.540 -0.9752 -1.7671 -0.3736
18300TIP3   OH276390   1.988   5.136   5.726  0.2223  0.0117  0.5724
18300TIP3    H176391   2.040   5.175   5.795 -1.9134 -0.5177  2.5313
18300TIP3    H276392   1.941   5.064   5.768 -4.1247  2.0595 -0.4047
18301TIP3   OH276393   2.025   2.603  14.093  0.8220 -0.5201 -0.0544
18301TIP3    H176394   2.019   2.517  14.133  0.7002  0.2352  1.5667
18301TIP3    H276395   1.935   2.624  14.067  0.5083 -0.0344  1.3727
18302TIP3   OH276396   5.231   3.851   2.688 -0.2710 -0.3962 -0.0778
18302TIP3    H176397   5.241   3.821   2.598  1.2015  2.6547 -0.9690
18302TIP3    H276398   5.312   3.821   2.732 -0.0889 -0.1618 -0.2550
18303TIP3   OH276399   2.037   4.874   6.092  0.7278  0.1848 -0.3978
18303TIP3    H176400   1.997   4.893   6.008  0.2404 -0.2271 -0.2640
18303TIP3    H276401   1.984   4.923   6.156 -0.0489 -0.9526 -0.1392
18304TIP3   OH276402   6.647   1.282  14.075  0.4224 -0.0264  0.6979
18304TIP3    H176403   6.593   1.210  14.107  0.2585  0.0324  0.5502
18304TIP3    H276404   6.642   1.349  14.144  0.2699 -0.0017  0.6628
18305TIP3   OH276405   1.815   5.561   3.144  0.3485  0.0794 -0.5849
18305TIP3    H176406   1.812   5.644   3.095 -1.1469 -0.4708 -1.4667
18305TIP3    H276407   1.741   5.566   3.204  1.6408  0.3522  1.0232
18306TIP3   OH276408   0.684   4.513  16.306 -0.1268  0.1832  0.0588
18306TIP3    H176409   0.643   4.580  16.361  0.6524  0.3894  0.3964
18306TIP3    H276410   0.777   4.536  16.305  0.1405 -0.8527  0.1363
18307TIP3   OH276411   5.595   3.920   3.921  0.2719  0.1546  0.2379
18307TIP3    H176412   5.574   3.939   4.012 -1.8915  0.3642 -0.2763
18307TIP3    H276413   5.584   4.004   3.876 -0.4658 -0.3363 -0.5143
18308TIP3   OH276414   0.239   5.513   5.807 -0.0674 -0.0672 -0.1473
18308TIP3    H176415   0.186   5.589   5.828  0.6248  0.9799 -2.0599
18308TIP3    H276416   0.265   5.526   5.716  2.3671 -1.2054  0.3328
18309TIP3   OH276417   3.174   3.742  15.040 -0.5171  0.5114 -0.1592
18309TIP3    H176418   3.212   3.816  15.088  0.1162  0.3524 -0.4209
18309TIP3    H276419   3.165   3.774  14.950 -1.0496  0.5625 -0.0947
18310TIP3   OH276420   1.787   0.496   1.949 -0.1229 -0.1421 -0.3282
18310TIP3    H176421   1.784   0.497   1.854 -2.6268 -0.1046 -0.2963
18310TIP3    H276422   1.766   0.406   1.973 -1.7514  0.3650  0.2030
18311TIP3   OH276423   3.796   6.742  13.756  0.3134  0.1959 -0.1603
18311TIP3    H176424   3.870   6.748  13.695 -1.9812  1.2556 -3.0063
18311TIP3    H276425   3.772   6.649  13.755  0.5199  0.1434 -0.5968
18312TIP3   OH276426   2.931   0.993   2.520  0.2004 -0.3578 -0.3781
18312TIP3    H176427   2.849   0.964   2.478  0.1365  1.1296 -1.2807
18312TIP3    H276428   2.924   1.088   2.524  1.6142 -0.2668  0.1414
18313TIP3   OH276429   2.176   4.537  13.298  0.4242  0.0549 -0.1550
18313TIP3    H176430   2.219   4.555  13.381 -0.7922 -0.8947  0.7027
18313TIP3    H276431   2.242   4.495  13.244  0.6402 -1.1436  1.0482
18314TIP3   OH276432   0.108   5.778   5.856  0.2378 -0.6289 -0.2477
18314TIP3    H176433   0.131   5.845   5.792  0.5881  0.6904  1.2341
18314TIP3    H276434   0.033   5.814   5.903 -1.3211 -2.4669 -1.2508
18315TIP3   OH276435   1.769   2.766  16.701  0.5671  0.5465  0.8215
18315TIP3    H176436   1.710   2.754  16.776 -0.7635  1.3722 -0.0627
18315TIP3    H276437   1.803   2.855  16.711 -2.4686  2.0661 -1.4595
18316TIP3   OH276438   4.715   3.246  13.490 -0.3210  0.4416  0.1013
18316TIP3    H176439   4.807   3.271  13.502 -0.5094  1.2557 -0.0928
18316TIP3    H276440   4.691   3.286  13.407 -1.4644  2.0739  1.1893
18317TIP3   OH276441   1.547   0.454   2.451 -0.3382 -0.4221  0.1071
18317TIP3    H176442   1.605   0.529   2.438  0.8985 -1.0417  1.8321
18317TIP3    H276443   1.476   0.467   2.388  0.5673  1.4701 -0.5567
18318TIP3   OH276444   6.637   2.460  11.285 -0.2353  0.2224  0.1326
18318TIP3    H176445   6.661   2.423  11.201  1.8440  0.6028  0.5366
18318TIP3    H276446   6.686   2.409  11.349  0.5161  1.8538  0.8874
18319TIP3   OH276447   0.149   5.514  16.902 -0.2964 -0.1648  0.0515
18319TIP3    H176448   0.075   5.468  16.862  0.5867 -1.8587  0.3417
18319TIP3    H276449   0.190   5.561  16.830  0.0102 -1.4873 -0.6515
18320TIP3   OH276450   5.274   6.117   3.300  0.0407 -0.1767 -0.0354
18320TIP3    H176451   5.315   6.203   3.312 -0.8529  0.5324 -1.7975
18320TIP3    H276452   5.304   6.088   3.214  0.3520 -1.6535  0.5676
18321TIP3   OH276453   3.661   5.743   4.596 -0.0387 -0.2568  0.4471
18321TIP3    H176454   3.652   5.836   4.577 -1.2703 -0.2468  1.0312
18321TIP3    H276455   3.640   5.735   4.689 -0.3493 -1.1753  0.3092
18322TIP3   OH276456   1.699   5.729   0.062  0.1792  0.1535 -0.1406
18322TIP3    H176457   1.682   5.660  -0.002 -0.0517  0.5665 -0.5205
18322TIP3    H276458   1.629   5.792   0.049  0.2210  0.3192  0.4099
18323TIP3   OH276459   0.881   3.107  16.967 -0.6668 -0.0737 -0.1004
18323TIP3    H176460   0.885   3.057  17.048  2.6775  0.3158  0.0344
18323TIP3    H276461   0.898   3.043  16.898  1.5823  0.4757 -0.0812
18324TIP3   OH276462   5.493   3.787  14.253 -0.6851  0.6453  0.4561
18324TIP3    H176463   5.569   3.765  14.307  0.2160  1.6079 -0.3891
18324TIP3    H276464   5.501   3.730  14.176  0.4590  2.3127 -0.7080
18325TIP3   OH276465   0.892   5.835  16.178 -0.4604  0.4077 -0.6001
18325TIP3    H176466   0.860   5.750  16.208 -2.2881  0.6985 -1.6734
18325TIP3    H276467   0.970   5.851  16.231 -0.7618 -1.3943  0.4307
18326TIP3   OH276468   1.929   0.336   2.875 -0.0646 -0.1891 -0.2244
18326TIP3    H176469   1.899   0.425   2.893 -2.0754 -0.8721 -0.0185
18326TIP3    H276470   1.862   0.301   2.816  0.4693 -1.7100  0.0735
18327TIP3   OH276471   6.806   5.872   1.736 -0.6570 -0.2341 -0.1675
18327TIP3    H176472   6.769   5.785   1.725  0.4003 -0.9986  1.9968
18327TIP3    H276473   6.770   5.923   1.663 -2.2096 -2.1552 -0.7888
18328TIP3   OH276474   0.882   6.024   5.930 -0.1521 -0.8019  0.5374
18328TIP3    H176475   0.857   5.941   5.971  1.3098 -1.6632 -0.2881
18328TIP3    H276476   0.888   6.005   5.837  2.7342 -0.4435  0.6029
18329TIP3   OH276477   1.780   3.164  15.163  0.0801  0.2554  0.0696
18329TIP3    H176478   1.735   3.243  15.134  0.1877  0.6663  1.0051
18329TIP3    H276479   1.793   3.176  15.257  0.9830 -0.4344  0.0488
18330TIP3   OH276480   3.951   3.153  14.586 -0.3514 -0.2656 -0.3484
18330TIP3    H176481   3.897   3.212  14.532  0.7884  0.6055 -0.5372
18330TIP3    H276482   4.032   3.144  14.537 -0.4180 -1.7971 -0.1870
18331TIP3   OH276483   4.942   1.589  16.106 -0.4016  0.0164 -0.2897
18331TIP3    H176484   5.006   1.521  16.125  0.4025  0.6868 -0.5563
18331TIP3    H276485   4.877   1.546  16.051  0.2391 -0.4776 -0.6702
18332TIP3   OH276486   5.438   1.954   4.789 -0.2286  0.4249  0.3830
18332TIP3    H176487   5.447   2.049   4.796  0.0608  0.3761  0.6764
18332TIP3    H276488   5.494   1.930   4.715  0.3565  0.3829  0.8375
18333TIP3   OH276489   5.279   6.721   4.610  0.2391 -0.1806  0.2554
18333TIP3    H176490   5.207   6.747   4.553  0.6694 -0.5991 -0.4937
18333TIP3    H276491   5.294   6.629   4.590  1.9693  0.2823 -0.7152
18334TIP3   OH276492   0.594   1.539   4.303  0.3166  0.5464  0.3262
18334TIP3    H176493   0.623   1.454   4.272  1.7711  0.7498  1.0729
18334TIP3    H276494   0.527   1.519   4.369 -0.8703  0.0555 -1.0052
18335TIP3   OH276495   2.335   5.343  16.270  0.4361  0.3778  0.3971
18335TIP3    H176496   2.383   5.266  16.302 -0.3390 -0.0719  0.4764
18335TIP3    H276497   2.392   5.380  16.202  0.2694 -0.9375 -0.4604
18336TIP3   OH276498   2.167   2.420  13.513 -0.4604 -0.1129 -0.2249
18336TIP3    H176499   2.155   2.351  13.578  1.3542  0.7213  1.0341
18336TIP3    H276500   2.080   2.460  13.505 -0.6053  0.1377  2.1281
18337TIP3   OH276501   0.263   1.373   0.106 -0.3239  0.3342 -0.2211
18337TIP3    H176502   0.210   1.296   0.124  0.5103 -0.0890  0.4925
18337TIP3    H276503   0.204   1.448   0.119 -0.9120 -0.1479 -0.1171
18338TIP3   OH276504   0.223   0.474  15.278 -0.2793  0.4437  0.7946
18338TIP3    H176505   0.239   0.511  15.365  0.5283 -1.0333  1.2982
18338TIP3    H276506   0.296   0.414  15.263 -1.1754 -0.4261 -0.2765
18339TIP3   OH276507   2.116   4.454  11.737  0.1016 -0.8805 -0.4712
18339TIP3    H176508   2.129   4.364  11.710  0.9394 -2.0532  3.5528
18339TIP3    H276509   2.203   4.486  11.759 -0.3843  0.3869 -0.3288
18340TIP3   OH276510   4.685   3.338   2.859 -0.1982  0.4910 -0.4247
18340TIP3    H176511   4.622   3.395   2.816 -1.3247  0.0288  0.6054
18340TIP3    H276512   4.678   3.359   2.952  2.0300  1.2850 -0.4078
18341TIP3   OH276513   0.504   2.639   2.766  0.2451 -0.6911  0.2753
18341TIP3    H176514   0.444   2.576   2.726 -1.4783  1.4063 -0.4927
18341TIP3    H276515   0.481   2.723   2.727  2.4679  0.4696  1.3366
18342TIP3   OH276516   6.296   3.877  14.048  0.0080  0.1799  0.1307
18342TIP3    H176517   6.382   3.849  14.082  0.8381 -1.3082 -3.0158
18342TIP3    H276518   6.312   3.964  14.012  0.1027  0.0956 -0.0342
18343TIP3   OH276519   1.340   0.454  17.245  0.5712  0.1788 -0.6669
18343TIP3    H176520   1.346   0.462  17.340 -0.2140  1.1510 -0.6861
18343TIP3    H276521   1.331   0.360  17.229 -0.3748  0.0973  0.2903
18344TIP3   OH276522   2.813   0.972  11.924  0.0378 -0.3707  0.4184
18344TIP3    H176523   2.848   0.910  11.987  1.2508 -1.2978 -1.1355
18344TIP3    H276524   2.718   0.961  11.930  0.2155 -1.7250  0.8039
18345TIP3   OH276525   4.276   3.713   6.357 -0.7604 -0.2755  0.4452
18345TIP3    H176526   4.343   3.739   6.420 -3.1623  0.5059  2.7521
18345TIP3    H276527   4.271   3.786   6.296  0.6272 -0.4260  0.1382
18346TIP3   OH276528   6.635   6.354  12.202  0.3258  0.8373 -0.1295
18346TIP3    H176529   6.666   6.391  12.285 -0.2589  1.3549 -0.1356
18346TIP3    H276530   6.659   6.420  12.136 -0.4533  1.0765 -0.1816
18347TIP3   OH276531   6.224   4.218  13.227  0.3765  0.8390  0.3913
18347TIP3    H176532   6.178   4.134  13.239  0.4505  0.7407 -0.0111
18347TIP3    H276533   6.211   4.239  13.135  0.5989  1.1327  0.4287
18348TIP3   OH276534   1.712   6.216   3.711 -0.2442  0.1511  0.5172
18348TIP3    H176535   1.770   6.293   3.708  0.1178 -0.1461 -0.1466
18348TIP3    H276536   1.771   6.142   3.721 -0.5560 -0.0983  0.5050
18349TIP3   OH276537   1.994   2.677   3.906 -0.2796  0.3186 -0.6111
18349TIP3    H176538   2.052   2.726   3.848 -1.0253  0.6634 -1.0801
18349TIP3    H276539   2.037   2.593   3.919  0.5668  0.7539 -0.5459
18350TIP3   OH276540   2.745   0.177   1.407  0.7053 -0.1751 -0.2959
18350TIP3    H176541   2.766   0.208   1.319 -3.0357 -0.7190 -1.4766
18350TIP3    H276542   2.749   0.255   1.463 -0.1470  0.8161 -1.5971
18351TIP3   OH276543   5.349   1.415  14.193  0.3282 -0.2369 -0.2428
18351TIP3    H176544   5.337   1.388  14.102  0.3787 -0.9996 -0.0302
18351TIP3    H276545   5.350   1.333  14.242  0.6141  0.1512  0.4103
18352TIP3   OH276546   2.686   4.550   3.629  0.1778  0.3903  0.1108
18352TIP3    H176547   2.720   4.614   3.693 -1.3202 -1.0372  2.3916
18352TIP3    H276548   2.591   4.550   3.643 -0.2299  0.3374 -2.4362
18353TIP3   OH276549   6.340   0.751   4.980 -0.0467  0.5492  0.0508
18353TIP3    H176550   6.368   0.793   4.898  3.1525 -1.0004  0.2597
18353TIP3    H276551   6.350   0.658   4.963 -2.7326  0.0575  1.0832
18354TIP3   OH276552   0.294   5.914   0.729  0.3021  0.3527 -0.1946
18354TIP3    H176553   0.312   5.830   0.772 -0.2651  1.1325  1.6016
18354TIP3    H276554   0.234   5.959   0.788 -1.0229  1.1909 -2.1534
18355TIP3   OH276555   4.883   3.411  12.295 -0.2586 -0.0205 -0.1849
18355TIP3    H176556   4.827   3.480  12.329 -0.1961  0.2677 -0.6587
18355TIP3    H276557   4.903   3.438  12.205  2.2005  0.8715  0.5867
18356TIP3   OH276558   4.035   5.317   4.430  0.4244  0.6570 -0.0652
18356TIP3    H176559   4.008   5.291   4.518 -1.1602  2.2526 -0.0479
18356TIP3    H276560   4.090   5.245   4.399 -1.0458 -1.0770  1.2665
18357TIP3   OH276561   4.358   3.816   0.083 -0.0568  0.1202  0.2035
18357TIP3    H176562   4.384   3.808   0.175  2.1361  0.0296 -0.3892
18357TIP3    H276563   4.440   3.826   0.035 -1.1091 -0.4315 -1.8210
18358TIP3   OH276564   0.157   2.607  12.315 -0.2049 -0.4538  0.3707
18358TIP3    H176565   0.198   2.581  12.397  0.4629 -1.0615 -0.1449
18358TIP3    H276566   0.226   2.655  12.269 -0.6220  0.0115  0.2253
18359TIP3   OH276567   3.953   0.400  12.673 -0.1999  0.7530 -0.1811
18359TIP3    H176568   4.002   0.468  12.628 -1.9298  0.5826 -2.3665
18359TIP3    H276569   3.968   0.321  12.621 -2.8152  0.7090 -0.9432
18360TIP3   OH276570   3.903   4.509   3.955  0.5413 -0.7009  0.7426
18360TIP3    H176571   3.834   4.513   3.889 -0.6709  2.3221  2.1124
18360TIP3    H276572   3.864   4.460   4.027  0.2902 -0.2175  0.9429
18361TIP3   OH276573   2.299   6.182   6.579 -0.4770  0.2113 -0.4121
18361TIP3    H176574   2.331   6.128   6.507  1.2832  0.4534  0.1663
18361TIP3    H276575   2.348   6.263   6.572  0.0336  0.0738  1.3077
18362TIP3   OH276576   2.419   1.414   1.520 -0.0549 -0.3161 -0.3141
18362TIP3    H176577   2.400   1.507   1.509  0.5071 -0.0783  0.7386
18362TIP3    H276578   2.363   1.385   1.592  1.6224 -0.2039  1.0632
18363TIP3   OH276579   0.874   3.417   4.652 -0.3043  0.3278  0.6861
18363TIP3    H176580   0.939   3.418   4.582 -0.2129 -1.1772  0.7294
18363TIP3    H276581   0.793   3.387   4.609 -0.6167  0.8296  0.9215
18364TIP3   OH276582   0.675   6.711  15.747 -0.4225  0.0071  0.1071
18364TIP3    H176583   0.631   6.781  15.795 -0.7648 -0.1749  0.0601
18364TIP3    H276584   0.638   6.631  15.783  0.5282 -0.1722  0.7002
18365TIP3   OH276585   4.073   4.102   4.205  0.3232  0.4272  0.0040
18365TIP3    H176586   3.977   4.102   4.202  0.3267 -1.5091 -1.8664
18365TIP3    H276587   4.095   4.036   4.269  0.3908 -0.4880 -0.9475
18366TIP3   OH276588   0.918   1.540   6.548  0.2136  0.1774  0.5534
18366TIP3    H176589   0.841   1.587   6.516 -0.3787  0.4184  2.2860
18366TIP3    H276590   0.911   1.453   6.508 -0.5205  0.4499  0.0650
18367TIP3   OH276591   1.211   3.651  13.758  0.2350 -0.0956 -0.2573
18367TIP3    H176592   1.294   3.621  13.720  0.1687  1.7705 -1.9740
18367TIP3    H276593   1.235   3.684  13.845  0.7870 -2.2542  0.4320
18368TIP3   OH276594   4.515   5.458   3.888  0.3495  0.3621 -0.7302
18368TIP3    H176595   4.555   5.376   3.859 -0.5279 -0.2404 -0.2669
18368TIP3    H276596   4.588   5.520   3.892  1.4602 -1.0466  1.3442
18369TIP3   OH276597   2.274   4.443  17.128 -0.2917  0.0833  0.9200
18369TIP3    H176598   2.185   4.409  17.128 -0.2943  0.0839  0.1031
18369TIP3    H276599   2.324   4.378  17.078 -0.6500  2.1746 -2.2782
18370TIP3   OH276600   3.224   2.478   2.042 -0.1969 -0.6765  0.5079
18370TIP3    H176601   3.319   2.465   2.038  0.0911  0.7316  2.1639
18370TIP3    H276602   3.207   2.498   2.134 -1.9613  0.0779  0.0271
18371TIP3   OH276603   5.144   3.039  11.366  0.2480  0.5095 -0.8950
18371TIP3    H176604   5.207   3.110  11.352  1.0764 -0.1582 -0.5344
18371TIP3    H276605   5.135   2.997  11.281  1.0766 -0.0446 -0.7126
18372TIP3   OH276606   3.985   4.899  12.327 -0.5009 -0.6682 -0.6270
18372TIP3    H176607   4.062   4.953  12.310 -1.0644  0.0332 -0.9961
18372TIP3    H276608   3.915   4.963  12.343 -0.9436 -1.2998 -0.0319
18373TIP3   OH276609   5.635   0.907  17.248  0.1975 -0.0189 -0.0223
18373TIP3    H176610   5.667   0.965  17.179 -0.6716 -0.2790 -0.6424
18373TIP3    H276611   5.715   0.868  17.284  0.7170  0.7235 -0.3322
18374TIP3   OH276612   5.795   2.977   4.471  0.0803  0.4322 -0.6857
18374TIP3    H176613   5.758   2.921   4.539 -1.3006  0.6432 -1.2436
18374TIP3    H276614   5.770   2.935   4.388 -1.5411  2.1564 -1.1305
18375TIP3   OH276615   3.131   2.100  16.971 -0.4070  0.2987  0.4151
18375TIP3    H176616   3.158   2.173  16.916  0.8805 -0.2364  0.3181
18375TIP3    H276617   3.187   2.027  16.943 -0.6857 -0.3395  1.4906
18376TIP3   OH276618   0.718   0.892  11.947 -0.1582 -0.2199 -0.2100
18376TIP3    H176619   0.778   0.935  12.008 -1.4913  0.4677  0.6525
18376TIP3    H276620   0.672   0.964  11.904 -2.1761 -0.7406  1.0041
18377TIP3   OH276621   3.167   2.113   4.433  0.0572 -0.0187  0.0452
18377TIP3    H176622   3.154   2.019   4.415  0.8756  0.1829 -1.7622
18377TIP3    H276623   3.079   2.151   4.424  0.2404 -0.1245 -2.5237
18378TIP3   OH276624   5.834   6.711   1.780 -0.0759 -0.5472  0.9851
18378TIP3    H176625   5.783   6.636   1.750 -0.6876  0.7248 -1.3197
18378TIP3    H276626   5.824   6.712   1.875 -3.3599 -1.0188  0.6745
18379TIP3   OH276627   1.435   3.205  16.447  0.4116 -0.1411 -0.1212
18379TIP3    H176628   1.439   3.301  16.451 -0.5194 -0.1498  1.0595
18379TIP3    H276629   1.374   3.180  16.515  0.2625 -1.5684 -0.7559
18380TIP3   OH276630   6.127   1.739   5.465 -0.3524 -0.3868 -0.3473
18380TIP3    H176631   6.092   1.817   5.422  0.4067  0.3882  0.3963
18380TIP3    H276632   6.132   1.673   5.396  0.4014  0.6888 -1.3383
18381TIP3   OH276633   1.085   4.668   3.366 -0.0715  0.0715 -0.2518
18381TIP3    H176634   1.026   4.643   3.437 -0.7615 -1.0696 -1.2065
18381TIP3    H276635   1.094   4.589   3.313 -0.4194  1.1776 -2.0188
18382TIP3   OH276636   1.403   4.482   3.229 -0.0973 -0.0720 -0.7240
18382TIP3    H176637   1.371   4.515   3.313 -0.1602 -0.2355 -0.6836
18382TIP3    H276638   1.474   4.423   3.252  1.3819  1.6165 -0.8981
18383TIP3   OH276639   3.020   6.597   2.644  0.2612  0.0391 -0.0857
18383TIP3    H176640   3.019   6.670   2.581  0.5769  1.2094  1.2369
18383TIP3    H276641   3.086   6.623   2.708  0.4737 -1.4966  0.3227
18384TIP3   OH276642   5.642   1.872   5.733  0.2168 -0.7712 -0.6661
18384TIP3    H176643   5.725   1.902   5.770  0.7924 -0.4893 -2.1271
18384TIP3    H276644   5.584   1.862   5.808  1.0556  0.6705  0.1976
18385TIP3   OH276645   3.198   2.884  11.533  0.4166 -0.5142  0.3260
18385TIP3    H176646   3.268   2.940  11.564  0.0773 -0.6744  1.4054
18385TIP3    H276647   3.124   2.903  11.591 -0.5570 -0.0584 -1.0354
18386TIP3   OH276648   2.055   2.887   3.163 -0.1215 -0.1907 -0.0341
18386TIP3    H176649   2.091   2.975   3.155  0.0544 -0.1114  1.4383
18386TIP3    H276650   1.963   2.896   3.139 -0.0439  0.3388 -0.1332
18387TIP3   OH276651   5.493   5.008  10.965 -0.2342 -0.6471  0.2516
18387TIP3    H176652   5.420   4.949  10.945  1.2797 -2.3538 -0.3247
18387TIP3    H276653   5.535   5.024  10.881  0.1153  0.2861  0.5928
18388TIP3   OH276654   3.248   4.297   1.645  0.1208 -0.0798  0.0145
18388TIP3    H176655   3.224   4.299   1.552 -1.5517  0.4176  0.4389
18388TIP3    H276656   3.313   4.227   1.651  2.4993  1.8382 -2.0345
18389TIP3   OH276657   5.298   3.575   5.372 -0.3013 -0.2129 -0.0851
18389TIP3    H176658   5.259   3.587   5.458  1.4225  0.2633  0.6358
18389TIP3    H276659   5.318   3.482   5.367 -0.0174 -0.1659  0.1925
18390TIP3   OH276660   3.916   3.686   3.215 -0.4266  0.7414 -0.3878
18390TIP3    H176661   3.986   3.728   3.165 -0.1207 -0.3825 -0.9178
18390TIP3    H276662   3.961   3.631   3.279 -0.8132  0.1880 -0.5799
18391TIP3   OH276663   0.567   0.194  13.703 -0.1789 -0.7169 -0.2087
18391TIP3    H176664   0.537   0.284  13.714  2.3882  0.1082  0.3008
18391TIP3    H276665   0.586   0.186  13.610  1.3437 -0.1687  0.0570
18392TIP3   OH276666   1.535   4.587   5.769 -0.1559 -0.0589 -1.0135
18392TIP3    H176667   1.536   4.505   5.720 -1.4806  0.4759 -1.9817
18392TIP3    H276668   1.591   4.571   5.845  0.2909 -1.5664 -1.6459
18393TIP3   OH276669   5.448   5.052  12.791  0.7720  0.6199  0.1925
18393TIP3    H176670   5.430   5.009  12.875 -0.7596  1.1660  0.1542
18393TIP3    H276671   5.362   5.079  12.759  1.4533  1.3247 -1.0702
18394TIP3   OH276672   6.117   0.470   1.779 -0.4414 -0.1668  0.7951
18394TIP3    H176673   6.097   0.405   1.845  1.2990 -2.3131 -0.7284
18394TIP3    H276674   6.076   0.436   1.699  0.7904  0.4230 -0.0942
18395TIP3   OH276675   0.560   3.843  14.491 -0.3531  0.4129  0.6091
18395TIP3    H176676   0.601   3.898  14.424  1.6158 -2.5407 -0.7142
18395TIP3    H276677   0.487   3.800  14.446  1.3702 -2.0817  0.0731
18396TIP3   OH276678   0.778   6.297  15.034  0.2152 -0.3909 -0.3108
18396TIP3    H176679   0.686   6.326  15.037 -0.5204 -2.6543  0.1360
18396TIP3    H276680   0.805   6.315  14.944 -1.1174 -1.0023 -0.8493
18397TIP3   OH276681   2.200   4.356   1.767 -0.3201  0.3482  0.2298
18397TIP3    H176682   2.184   4.447   1.745  0.6735  0.7219  1.0413
18397TIP3    H276683   2.144   4.307   1.706 -3.5323  1.5421  2.1114
18398TIP3   OH276684   2.215   1.537   0.969 -0.4222 -0.2640  0.6892
18398TIP3    H176685   2.259   1.468   0.920  1.0889 -1.0647  3.0421
18398TIP3    H276686   2.240   1.521   1.060 -0.7466  2.8811  1.3969
18399TIP3   OH276687   2.156   4.581   0.823 -0.3761 -0.0906 -0.1534
18399TIP3    H176688   2.110   4.587   0.907 -0.8783 -0.4102 -0.4056
18399TIP3    H276689   2.154   4.670   0.788  1.1145  0.3606  0.8437
18400TIP3   OH276690   2.664   4.182   1.027 -0.2198 -0.4500 -0.2786
18400TIP3    H176691   2.671   4.237   0.949 -2.2463 -1.7955 -1.4549
18400TIP3    H276692   2.585   4.214   1.071  0.7252  0.0815  1.0914
18401TIP3   OH276693   3.442   6.323  13.598  0.4548  0.5967 -0.6141
18401TIP3    H176694   3.429   6.296  13.507  1.6844 -0.7187 -0.4163
18401TIP3    H276695   3.367   6.379  13.617 -0.3046  0.1365 -2.1452
18402TIP3   OH276696   5.181   0.513   5.691  0.7040 -0.4938  0.1832
18402TIP3    H176697   5.223   0.565   5.759 -0.8314  1.2462 -0.1652
18402TIP3    H276698   5.134   0.444   5.739  0.0232  0.4377  0.8722
18403TIP3   OH276699   2.630   4.214  13.063 -0.0266  0.7409  0.9933
18403TIP3    H176700   2.544   4.181  13.035  1.0376 -0.4701 -0.9215
18403TIP3    H276701   2.660   4.151  13.129 -0.1135  0.5484  0.8475
18404TIP3   OH276702   0.026   5.652   3.829  0.3999 -0.1548  0.0642
18404TIP3    H176703   0.032   5.638   3.923 -3.2550 -2.3740  0.0508
18404TIP3    H276704   0.040   5.566   3.790  0.3599  0.4555 -1.3432
18405TIP3   OH276705   6.175   1.325   3.232 -0.4557  0.5671  0.4922
18405TIP3    H176706   6.109   1.256   3.224 -0.8494  0.9267  0.5896
18405TIP3    H276707   6.209   1.315   3.321 -1.6448  1.4922  1.0707
18406TIP3   OH276708   4.642   2.776  15.604 -0.2739  0.9368  0.6042
18406TIP3    H176709   4.612   2.785  15.694 -1.2195 -0.3475  0.4241
18406TIP3    H276710   4.571   2.730  15.559  0.9618 -0.0555 -0.3790
18407TIP3   OH276711   5.047   5.521  12.045 -0.1039  0.4127  0.3154
18407TIP3    H176712   5.045   5.453  12.113  0.2389  1.3688  1.3077
18407TIP3    H276713   5.140   5.540  12.033 -0.1997  0.7638  0.1206
18408TIP3   OH276714   4.766   4.932  17.252  0.2946  0.4463 -0.0832
18408TIP3    H176715   4.681   4.972  17.270 -0.7638 -1.0363 -1.6681
18408TIP3    H276716   4.828   4.983  17.305 -1.3461  2.5123 -0.0944
18409TIP3   OH276717   1.077   6.084  12.805  0.1165  0.5269 -0.0541
18409TIP3    H176718   1.004   6.038  12.844 -0.3224  0.4820 -0.9112
18409TIP3    H276719   1.106   6.146  12.872 -1.0775  0.9522  0.0721
18410TIP3   OH276720   2.291   2.427   0.633  0.1645  0.0867  0.3681
18410TIP3    H176721   2.359   2.449   0.696 -0.4216  1.2207  0.6245
18410TIP3    H276722   2.248   2.349   0.669  0.0197  0.5579  1.2262
18411TIP3   OH276723   4.654   6.552   6.550  0.2313 -0.1902  0.9110
18411TIP3    H176724   4.633   6.611   6.478  2.0769  0.0606  0.5447
18411TIP3    H276725   4.606   6.586   6.625 -0.8297  0.1919  0.0607
18412TIP3   OH276726   3.371   3.996   3.658 -0.3415 -0.0157 -0.2282
18412TIP3    H176727   3.453   3.958   3.690 -0.1630 -0.7293 -1.4853
18412TIP3    H276728   3.390   4.089   3.648  0.0165 -0.0160  0.4169
18413TIP3   OH276729   4.088   4.797  13.319 -0.2922  0.4955  0.0436
18413TIP3    H176730   4.002   4.754  13.317 -0.0840  0.1526 -3.2402
18413TIP3    H276731   4.079   4.875  13.265  1.5441  0.2878 -0.6176
18414TIP3   OH276732   4.449   2.126  12.844 -0.0503  0.8154  0.0815
18414TIP3    H176733   4.525   2.080  12.880 -0.8494  0.0344  0.7986
18414TIP3    H276734   4.470   2.138  12.752  1.0511  0.8306  0.3252
18415TIP3   OH276735   5.027   0.791   5.063  0.1309 -1.1553 -0.8221
18415TIP3    H176736   5.059   0.706   5.095  1.1498 -0.4471  0.0555
18415TIP3    H276737   5.106   0.842   5.047 -0.3515 -1.3949 -4.3101
18416TIP3   OH276738   0.344   3.786   3.128  0.0846 -0.1967 -0.4324
18416TIP3    H176739   0.439   3.789   3.120  0.2193 -2.5949 -0.2100
18416TIP3    H276740   0.322   3.693   3.114 -2.1616  0.2333  0.0759
18417TIP3   OH276741   5.093   3.777   2.960  0.7356  0.3408  0.1634
18417TIP3    H176742   5.016   3.751   2.910  0.0551  0.6196  1.0404
18417TIP3    H276743   5.140   3.838   2.903 -1.1811  2.3692  0.6938
18418TIP3   OH276744   5.718   5.163   4.250  0.2521 -0.0906 -0.6264
18418TIP3    H176745   5.631   5.159   4.211 -0.4127 -0.1427  0.8262
18418TIP3    H276746   5.716   5.099   4.320  0.9255  1.0550  0.4582
18419TIP3   OH276747   1.558   0.037   0.913 -0.0268  0.3382 -0.2041
18419TIP3    H176748   1.594  -0.032   0.969 -0.7914  0.1013  0.0004
18419TIP3    H276749   1.582   0.012   0.824 -1.8110 -1.1252 -0.2959
18420TIP3   OH276750   4.166   5.949  11.595 -0.1807 -0.2594 -0.2255
18420TIP3    H176751   4.093   5.973  11.652  0.8507 -0.7754  1.3435
18420TIP3    H276752   4.130   5.882  11.537 -0.8676 -0.7598  0.7650
18421TIP3   OH276753   6.092   3.619  12.545  0.2791 -0.2581  0.5698
18421TIP3    H176754   6.033   3.694  12.530  1.5134  0.6545  0.1658
18421TIP3    H276755   6.034   3.544  12.551 -0.9528  0.6558  0.3823
18422TIP3   OH276756   4.799   3.382   3.723  0.4265 -0.0045 -0.3953
18422TIP3    H176757   4.750   3.367   3.642 -0.5389  1.2784 -0.0588
18422TIP3    H276758   4.795   3.476   3.737 -0.7762 -0.3749  2.0023
18423TIP3   OH276759   0.358   3.766   3.470 -0.4367  0.6163  1.0013
18423TIP3    H176760   0.298   3.791   3.400 -0.3503  0.4806  0.8801
18423TIP3    H276761   0.404   3.847   3.491 -0.2545  0.5911  0.7008
18424TIP3   OH276762   0.580   1.019  15.802 -0.0555  0.0369  0.5570
18424TIP3    H176763   0.625   1.056  15.877  0.4285 -0.4510  0.5169
18424TIP3    H276764   0.487   1.039  15.816  0.2826  1.9191  0.1369
18425TIP3   OH276765   1.248   3.947   3.989  0.4974  0.5081  0.3636
18425TIP3    H176766   1.296   3.885   3.935 -1.0696 -0.2823 -0.1581
18425TIP3    H276767   1.197   3.999   3.926 -0.1874  0.5783  0.9701
18426TIP3   OH276768   6.757   5.044   6.295 -0.2063 -0.4771 -0.0342
18426TIP3    H176769   6.827   5.079   6.241 -1.0828 -0.3609 -1.1069
18426TIP3    H276770   6.677   5.080   6.258 -0.7137  1.1919  2.5399
18427TIP3   OH276771   3.718   0.336   3.071 -0.1135  0.4436  0.2719
18427TIP3    H176772   3.629   0.320   3.041  0.8560 -1.2718 -1.8028
18427TIP3    H276773   3.760   0.380   2.997  1.0223  0.4662  0.9225
18428TIP3   OH276774   5.369   3.239  14.654  0.7310 -0.4275  0.9476
18428TIP3    H176775   5.296   3.287  14.614  0.7682  0.2920  1.7195
18428TIP3    H276776   5.438   3.240  14.587  0.6312  0.3713  0.8459
18429TIP3   OH276777   5.036   2.182   0.085 -0.4762 -0.1743 -0.0216
18429TIP3    H176778   4.985   2.146   0.012  1.0354 -2.4607 -0.0004
18429TIP3    H276779   4.992   2.149   0.163 -1.1222  0.9135  0.0829
18430TIP3   OH276780   5.888   5.461  14.407  0.0593  0.1900 -0.1177
18430TIP3    H176781   5.979   5.433  14.418  0.0776  0.4155  0.2852
18430TIP3    H276782   5.890   5.556  14.413 -0.1757  0.2088 -0.3098
18431TIP3   OH276783   2.410   0.902   1.432  0.2793 -0.1074  0.0727
18431TIP3    H176784   2.478   0.951   1.480 -0.6098 -0.8445  2.1279
18431TIP3    H276785   2.455   0.871   1.353  1.8734  0.8240  0.5746
18432TIP3   OH276786   2.185   4.633  12.197  0.1218  0.0306  0.5829
18432TIP3    H176787   2.131   4.711  12.209 -0.9149 -0.5512 -0.2311
18432TIP3    H276788   2.272   4.667  12.176 -0.8677  0.9872 -2.1869
18433TIP3   OH276789   3.231   5.166  13.414 -0.1506 -0.5911  0.2968
18433TIP3    H176790   3.313   5.190  13.372 -0.1215  0.0465  0.7066
18433TIP3    H276791   3.246   5.184  13.507 -1.6636  2.1197  0.0532
18434TIP3   OH276792   1.479   1.836   5.519  0.4817  0.1458 -0.3755
18434TIP3    H176793   1.430   1.836   5.601  1.1026  0.7763  0.0130
18434TIP3    H276794   1.526   1.920   5.520  0.7087  0.0331 -1.2452
18435TIP3   OH276795   2.460   1.467   5.769 -0.1820  0.5616  0.0732
18435TIP3    H176796   2.365   1.470   5.755 -0.1817  2.7990  0.2995
18435TIP3    H276797   2.497   1.453   5.682 -0.7218 -0.4347  0.0002
18436TIP3   OH276798   3.137   3.045   5.522  0.1109  0.1873  0.0474
18436TIP3    H176799   3.105   3.057   5.611 -0.4919  0.7280 -0.2382
18436TIP3    H276800   3.218   3.096   5.519 -0.0337  0.4281  0.1974
18437TIP3   OH276801   3.195   2.480  14.156  0.3913  0.4691  0.0110
18437TIP3    H176802   3.208   2.498  14.250 -0.2591  1.7123 -0.1192
18437TIP3    H276803   3.236   2.395  14.142 -0.4314 -0.2404  1.6578
18438TIP3   OH276804   5.810   2.010  15.711 -0.1205  0.2502 -0.5127
18438TIP3    H176805   5.790   2.086  15.766 -0.5622  0.5826 -1.1226
18438TIP3    H276806   5.904   2.018  15.694  0.4741 -1.0688  1.9852
18439TIP3   OH276807   3.143   0.914   5.846 -0.4053 -0.1850  0.3441
18439TIP3    H176808   3.173   0.826   5.823 -1.2190 -0.9185  2.0408
18439TIP3    H276809   3.101   0.904   5.931  0.3453  2.0181  1.0126
18440TIP3   OH276810   1.952   2.083  12.446  0.4924  0.1149 -0.2551
18440TIP3    H176811   1.871   2.123  12.478  0.5569  0.3180 -0.3449
18440TIP3    H276812   1.923   2.018  12.382  0.3388 -0.6307  0.5745
18441TIP3   OH276813   4.173   6.535   1.216 -0.3520 -0.3103  0.6013
18441TIP3    H176814   4.081   6.519   1.193 -0.2679 -1.1329  0.8447
18441TIP3    H276815   4.199   6.459   1.267  0.6474 -0.3693  0.0234
18442TIP3   OH276816   4.904   3.183   5.699  0.5786 -0.2990  0.2397
18442TIP3    H176817   4.820   3.228   5.688  0.4018 -1.1145 -2.0645
18442TIP3    H276818   4.881   3.097   5.734  0.3139 -0.9167 -1.3839
18443TIP3   OH276819   5.589   1.734  12.918  0.7137  0.0075  0.0234
18443TIP3    H176820   5.658   1.676  12.951  1.6586  2.0749  1.8248
18443TIP3    H276821   5.608   1.742  12.825  0.4650 -2.6740 -0.2953
18444TIP3   OH276822   4.163   2.958   2.902 -0.4364 -0.0069 -0.5115
18444TIP3    H176823   4.178   3.005   2.983  0.1596 -0.6832 -0.2208
18444TIP3    H276824   4.102   3.013   2.852  0.4093  1.1525 -0.2692
18445TIP3   OH276825   0.632   4.167  10.750 -0.3987  0.4106  0.2794
18445TIP3    H176826   0.560   4.147  10.810 -0.8303  3.4051  0.8532
18445TIP3    H276827   0.592   4.225  10.685  1.1411  0.8214 -0.3096
18446TIP3   OH276828   4.406   0.947  13.720  0.0071 -0.2883  0.0090
18446TIP3    H176829   4.454   0.971  13.799 -0.6803  1.4654 -0.0866
18446TIP3    H276830   4.423   0.853  13.709 -0.1582 -0.6093  2.3969
18447TIP3   OH276831   2.136   0.615  14.387  0.0031 -0.1287 -0.5722
18447TIP3    H176832   2.056   0.655  14.351 -0.5717  0.0789  0.8865
18447TIP3    H276833   2.145   0.532  14.339  0.0956  0.8026 -2.2244
18448TIP3   OH276834   3.533   0.895  15.959 -0.1999 -0.1860 -0.0605
18448TIP3    H176835   3.608   0.869  15.907  0.0018 -0.4932  0.3773
18448TIP3    H276836   3.544   0.989  15.973 -0.4904 -0.0223 -0.9464
18449TIP3   OH276837   6.560   5.852  11.897  0.4715  0.2191 -0.5735
18449TIP3    H176838   6.605   5.907  11.832  1.0884 -0.0282 -0.3648
18449TIP3    H276839   6.470   5.848  11.866  0.7441  0.1438 -1.4012
18450TIP3   OH276840   2.353   1.678   1.366 -0.1797 -0.1911  0.1556
18450TIP3    H176841   2.344   1.631   1.283  0.6809  0.6474 -0.4161
18450TIP3    H276842   2.306   1.759   1.353 -0.7661 -0.4305  0.7841
18451TIP3   OH276843   6.160   5.418  14.015  0.1895  0.1737 -0.0073
18451TIP3    H176844   6.180   5.508  14.038 -2.0473  1.1161 -1.6406
18451TIP3    H276845   6.161   5.371  14.098 -0.0481  1.9794  1.0292
18452TIP3   OH276846   6.131   5.271   3.025  0.1971  0.2179 -0.0413
18452TIP3    H176847   6.162   5.316   3.104  0.7406  0.3874 -0.3473
18452TIP3    H276848   6.210   5.257   2.973 -0.4267  1.9219 -1.4945
18453TIP3   OH276849   3.819   0.377   1.405  0.3974  0.1569 -0.3130
18453TIP3    H176850   3.774   0.411   1.327 -0.5125  1.5962  0.8153
18453TIP3    H276851   3.773   0.295   1.424  1.9370 -1.2612 -2.4436
18454TIP3   OH276852   2.739   4.933   0.549  0.2910  0.4609 -0.1260
18454TIP3    H176853   2.757   4.872   0.478  0.9189 -1.0508  1.2973
18454TIP3    H276854   2.645   4.924   0.566  0.3779 -0.1261  0.0689
18455TIP3   OH276855   0.589   1.858   1.906 -0.8839  0.3807 -0.2955
18455TIP3    H176856   0.518   1.922   1.898 -0.5259  0.4403 -3.6596
18455TIP3    H276857   0.544   1.773   1.905 -1.0754  0.4682  0.3246
18456TIP3   OH276858   0.550   3.696   5.066  0.2441 -0.0098 -0.0883
18456TIP3    H176859   0.505   3.640   5.004 -1.9646  2.3803 -0.7270
18456TIP3    H276860   0.563   3.641   5.143 -0.5765 -1.7813 -1.1788
18457TIP3   OH276861   0.001   1.685  13.983 -0.5964  0.1354  0.0885
18457TIP3    H176862   0.072   1.637  13.940 -0.2496  0.2401  0.5430
18457TIP3    H276863  -0.047   1.726  13.911 -0.4743 -0.3211 -0.2506
18458TIP3   OH276864   3.649   4.318   2.243 -0.2435 -0.2947 -0.4760
18458TIP3    H176865   3.735   4.279   2.229  0.3097  0.6482  0.2237
18458TIP3    H276866   3.632   4.367   2.162  0.4732  0.5979 -0.0949
18459TIP3   OH276867   4.687   3.268   3.498  0.0546 -0.2978 -0.4823
18459TIP3    H176868   4.644   3.343   3.456 -1.5996 -0.8130  0.2345
18459TIP3    H276869   4.666   3.193   3.442  2.2906 -0.1418 -1.5751
18460TIP3   OH276870   0.634   2.474  12.206 -0.2120  0.0516 -0.5379
18460TIP3    H176871   0.620   2.520  12.289 -2.5509  1.3814 -1.6200
18460TIP3    H276872   0.569   2.404  12.205  1.7946 -1.8798  0.0412
18461TIP3   OH276873   1.701   2.206  14.454 -0.2425  0.1582  0.6698
18461TIP3    H176874   1.784   2.223  14.409 -1.7882  0.0505 -2.3874
18461TIP3    H276875   1.677   2.290  14.492  0.3711  0.6441 -0.0059
18462TIP3   OH276876   2.388   1.979   1.098  0.3087  0.3401  0.4363
18462TIP3    H176877   2.439   1.930   1.034 -0.1435 -3.3893  2.7799
18462TIP3    H276878   2.454   2.024   1.152  0.7269  2.3877 -1.6824
18463TIP3   OH276879   0.308   5.883   4.278 -0.6439 -0.6370 -0.3168
18463TIP3    H176880   0.353   5.965   4.300 -0.3434 -1.5753  2.7491
18463TIP3    H276881   0.352   5.852   4.199  1.9357  0.1030  0.7812
18464TIP3   OH276882   1.791   2.633   4.371  0.4306  0.4208  0.6872
18464TIP3    H176883   1.867   2.680   4.405  0.0951 -0.2799  2.4501
18464TIP3    H276884   1.725   2.701   4.359  1.2471  1.0012 -0.6645
18465TIP3   OH276885   1.745   2.182  15.786 -0.8397 -0.0218  0.3081
18465TIP3    H176886   1.711   2.234  15.713  0.3003  2.9731  1.8205
18465TIP3    H276887   1.702   2.097  15.777 -2.5715  1.0759 -2.4214
18466TIP3   OH276888   4.130   1.011   3.770 -0.5274 -0.1057 -0.3210
18466TIP3    H176889   4.199   0.951   3.797  0.3494  0.4134 -1.3790
18466TIP3    H276890   4.050   0.976   3.811  0.4243 -0.4520  1.2811
18467TIP3   OH276891   0.329   3.642  17.043  0.2550  0.3793 -0.0883
18467TIP3    H176892   0.294   3.574  16.986  0.1743  0.8471 -0.6088
18467TIP3    H276893   0.269   3.645  17.117 -0.7081  1.0602 -0.8936
18468TIP3   OH276894   5.521   5.230  13.911 -0.2471 -0.1124  0.1964
18468TIP3    H176895   5.506   5.141  13.880  0.6264 -0.2172  0.0740
18468TIP3    H276896   5.603   5.226  13.959 -0.7702  0.4003  1.1543
18469TIP3   OH276897   0.427   5.716   2.493  0.3585 -0.2957 -0.1965
18469TIP3    H176898   0.359   5.662   2.454  0.9952 -0.9050 -0.4674
18469TIP3    H276899   0.464   5.663   2.564 -0.9360  0.8862  1.4153
18470TIP3   OH276900   0.517   5.314  14.452 -0.5520 -0.2417 -0.0936
18470TIP3    H176901   0.518   5.301  14.547 -1.0539 -3.4159 -0.4659
18470TIP3    H276902   0.439   5.268  14.423 -0.6348  1.0896 -2.0135
18471TIP3   OH276903   2.502   2.424   3.268  0.2095 -0.1716  0.2667
18471TIP3    H176904   2.576   2.364   3.258 -0.3113 -0.7860  0.0833
18471TIP3    H276905   2.425   2.368   3.269 -0.1762  0.3663  1.7721
18472TIP3   OH276906   0.644   4.837   4.807 -0.0226  0.0616 -0.1658
18472TIP3    H176907   0.613   4.880   4.727 -0.7077 -0.1262 -0.0018
18472TIP3    H276908   0.597   4.881   4.878 -1.2326 -1.3877 -0.0398
18473TIP3   OH276909   4.268   0.640   1.225 -1.0265  0.3727 -0.0866
18473TIP3    H176910   4.198   0.588   1.264  0.2116 -0.1526  1.4745
18473TIP3    H276911   4.349   0.603   1.260 -0.0456  2.2952 -0.2159
18474TIP3   OH276912   2.747   2.956  11.391 -0.2203 -0.2595  0.0458
18474TIP3    H176913   2.780   2.980  11.477  1.5279 -0.9585 -0.4227
18474TIP3    H276914   2.799   2.881  11.364 -0.0803  0.5275 -2.0389
18475TIP3   OH276915   1.289   2.214  17.163  0.4129  0.6401 -0.1525
18475TIP3    H176916   1.270   2.130  17.121 -0.1092  0.3635  0.6185
18475TIP3    H276917   1.381   2.231  17.142  0.7226 -0.4702  0.2513
18476TIP3   OH276918   6.014   2.301   0.769 -0.1044 -0.2256  0.5125
18476TIP3    H176919   5.968   2.282   0.850  0.3450 -0.7940  0.6346
18476TIP3    H276920   5.983   2.235   0.707 -1.5706  1.0993 -0.2236
18477TIP3   OH276921   5.239   1.093   5.791 -0.2316  0.0761  0.0042
18477TIP3    H176922   5.171   1.037   5.753 -2.1818  1.5999  1.1648
18477TIP3    H276923   5.263   1.153   5.720 -1.5909  0.8664  0.2023
18478TIP3   OH276924   1.079   3.445  16.559  0.4428  0.1180  0.3954
18478TIP3    H176925   1.139   3.487  16.621  0.0833  1.7530 -0.3296
18478TIP3    H276926   1.116   3.464  16.473 -1.2726  1.4382 -0.0784
18479TIP3   OH276927   4.936   1.998  10.898 -0.7948  0.2591 -0.2106
18479TIP3    H176928   4.986   2.073  10.868 -0.3250  0.4325  0.9723
18479TIP3    H276929   4.845   2.022  10.884 -0.5967  0.5016 -1.0920
18480TIP3   OH276930   0.912   6.006   5.299 -0.3329 -0.1689 -0.4299
18480TIP3    H176931   0.982   6.053   5.254 -1.1196 -0.0549 -1.5464
18480TIP3    H276932   0.838   6.011   5.239 -1.0371 -1.0383  0.3680
18481TIP3   OH276933   2.653   3.546   3.245  0.0437 -0.0967 -0.1181
18481TIP3    H176934   2.710   3.545   3.168 -1.2381 -0.6857 -1.0836
18481TIP3    H276935   2.565   3.553   3.209 -0.4087  3.2376  1.4157
18482TIP3   OH276936   2.344   1.207  11.357 -0.1657 -0.2205 -0.5282
18482TIP3    H176937   2.435   1.227  11.376 -0.0252 -0.5721 -0.8264
18482TIP3    H276938   2.294   1.253  11.425  0.3144 -1.1943  0.4920
18483TIP3   OH276939   0.170   1.030  15.314  0.1099  0.2493 -0.4751
18483TIP3    H176940   0.119   1.067  15.243 -1.5346 -0.5907  0.2286
18483TIP3    H276941   0.105   0.984  15.368  1.7487 -1.6949 -0.1026
18484TIP3   OH276942   2.584   4.951  15.076 -0.7687  0.2361  0.0173
18484TIP3    H176943   2.507   4.908  15.113  0.3124 -0.0458  2.0093
18484TIP3    H276944   2.639   4.972  15.152  1.3925 -0.0843 -1.4060
18485TIP3   OH276945   2.798   2.608  11.863 -0.3604 -0.1578  0.4375
18485TIP3    H176946   2.880   2.572  11.898 -0.5355  1.5362  2.6536
18485TIP3    H276947   2.730   2.551  11.900 -0.3806  0.2234  0.9952
18486TIP3   OH276948   1.485   5.188   5.856  0.0413  0.3359 -0.5439
18486TIP3    H176949   1.499   5.282   5.864 -2.0763  0.6661 -0.4054
18486TIP3    H276950   1.390   5.178   5.853  0.2270 -1.8263 -0.2343
18487TIP3   OH276951   6.255   5.725   5.529 -0.0675  0.3597 -0.1535
18487TIP3    H176952   6.207   5.668   5.589 -0.7324 -1.2362 -2.1191
18487TIP3    H276953   6.191   5.791   5.503 -0.1142  0.3942  0.0480
18488TIP3   OH276954   3.127   0.907  17.087 -0.1085 -0.3788 -0.1412
18488TIP3    H176955   3.171   0.868  17.163  1.1541  0.3548 -0.4694
18488TIP3    H276956   3.114   0.999  17.112 -1.4892 -0.5885 -0.0462
18489TIP3   OH276957   3.922   1.766   6.488 -0.2404 -0.3080  0.8148
18489TIP3    H176958   3.955   1.676   6.491  0.4861 -0.0521  0.5190
18489TIP3    H276959   3.898   1.780   6.396  0.7401  0.1871  0.6277
18490TIP3   OH276960   2.264   4.119   6.465 -0.0031  0.2820  0.2063
18490TIP3    H176961   2.255   4.116   6.560  1.3711 -0.9736  0.3061
18490TIP3    H276962   2.214   4.043   6.434  0.0756  0.3287 -0.0332
18491TIP3   OH276963   0.053   3.360  15.732  0.4805  0.0611  0.0098
18491TIP3    H176964   0.113   3.394  15.799  1.3492 -1.1868 -0.1180
18491TIP3    H276965  -0.020   3.324  15.782  1.1096 -0.8357  0.2991
18492TIP3   OH276966   5.488   5.370   5.403  0.4294 -0.3497  0.4176
18492TIP3    H176967   5.574   5.329   5.408  0.5163 -0.3920 -1.0994
18492TIP3    H276968   5.502   5.460   5.434  1.1968 -0.1127 -0.6093
18493TIP3   OH276969   0.842   4.958  16.282  0.0350 -0.0655  0.1640
18493TIP3    H176970   0.805   4.988  16.199  1.6249 -1.6358 -1.1652
18493TIP3    H276971   0.770   4.962  16.344 -1.4070  0.2968 -1.5023
18494TIP3   OH276972   3.828   5.574  13.503 -0.2522 -0.5697  0.7183
18494TIP3    H176973   3.768   5.648  13.489  0.0743 -0.0447  1.9655
18494TIP3    H276974   3.825   5.559  13.597  0.0270 -1.8830  0.5231
18495TIP3   OH276975   5.835   1.659   2.599 -0.2238  0.2331 -0.3300
18495TIP3    H176976   5.861   1.733   2.654 -0.4958  0.9242 -1.1296
18495TIP3    H276977   5.748   1.635   2.631  1.1209 -1.8293  2.0845
18496TIP3   OH276978   3.008   0.406  15.490 -0.3840  0.0090  0.0884
18496TIP3    H176979   3.078   0.346  15.516 -0.2919  0.5857  1.1955
18496TIP3    H276980   3.022   0.420  15.397  1.1554  0.3554  0.3618
18497TIP3   OH276981   2.717   6.761   6.368 -0.3717 -0.4450  0.2539
18497TIP3    H176982   2.692   6.717   6.287  0.1320 -1.6760  0.7623
18497TIP3    H276983   2.635   6.799   6.401 -0.5847  0.0260 -0.7985
18498TIP3   OH276984   5.654   5.118   5.616  0.4759 -0.8053  0.3155
18498TIP3    H176985   5.695   5.041   5.655 -0.2954 -0.9130  0.9231
18498TIP3    H276986   5.644   5.095   5.523  1.9692 -0.6930  0.1212
18499TIP3   OH276987   2.760   3.506   2.986  0.3427 -0.1947 -0.5242
18499TIP3    H176988   2.684   3.511   2.928 -1.0444 -0.0588  1.2640
18499TIP3    H276989   2.785   3.414   2.986 -2.1130 -0.8812  1.7487
18500TIP3   OH276990   5.760   5.735  11.886  0.3621  0.2164 -0.0082
18500TIP3    H176991   5.792   5.717  11.798  1.3956 -0.3246  0.4567
18500TIP3    H276992   5.836   5.716  11.942 -0.5344 -0.2181  1.0581
18501TIP3   OH276993   2.021   5.946   1.674  0.0565 -0.2669 -0.3689
18501TIP3    H176994   1.996   5.905   1.757  0.9423  2.7074  1.4259
18501TIP3    H276995   1.938   5.959   1.628 -0.5395 -0.9322  0.5069
18502TIP3   OH276996   6.220   3.696   2.708  0.0658 -0.0489 -0.4435
18502TIP3    H176997   6.237   3.784   2.675  2.6817 -1.1949 -2.2501
18502TIP3    H276998   6.259   3.695   2.795 -1.7603  1.1584  0.4322
18503TIP3   OH276999   4.055   3.265   1.582  0.0037 -0.1457 -0.2571
18503TIP3    H177000   4.088   3.180   1.609  1.9985  0.3035 -1.2478
18503TIP3    H277001   3.967   3.269   1.620  0.1758 -2.3137  0.4341
18504TIP3   OH277002   0.645   4.231   1.106 -0.1589  0.5271  0.0175
18504TIP3    H177003   0.573   4.194   1.055  0.4822 -0.8630  0.0805
18504TIP3    H277004   0.661   4.316   1.067 -0.9838  0.2956 -0.8358
18505TIP3   OH277005   5.873   5.323  16.876  0.6243 -0.3162 -0.6212
18505TIP3    H177006   5.883   5.288  16.787  0.7188  0.5491 -0.9575
18505TIP3    H277007   5.888   5.248  16.933 -1.4640 -1.3225 -1.3721
18506TIP3   OH277008   2.236   2.463   2.426  0.0276  0.2168 -0.5641
18506TIP3    H177009   2.309   2.431   2.373  0.2864 -1.3525  0.6983
18506TIP3    H277010   2.159   2.422   2.386 -0.1342  1.5268 -1.6283
18507TIP3   OH277011   4.451   5.530  15.187  0.2373  0.2662 -0.4166
18507TIP3    H177012   4.433   5.591  15.115  2.5670  1.4223 -0.0665
18507TIP3    H277013   4.529   5.482  15.159 -0.1169 -0.8031  0.3952
18508TIP3   OH277014   1.643   3.136   1.228 -0.8253 -0.4233 -0.1539
18508TIP3    H177015   1.653   3.073   1.300 -0.7055 -0.5855 -0.3114
18508TIP3    H277016   1.705   3.206   1.248 -1.1842 -0.2004  0.1861
18509TIP3   OH277017   6.340   4.740  16.925  0.4964  0.2713 -0.4708
18509TIP3    H177018   6.287   4.730  16.846  0.4111  1.2080 -0.5363
18509TIP3    H277019   6.396   4.815  16.907  1.1778 -0.1305 -0.0247
18510TIP3   OH277020   1.482   2.692  11.850  0.1982 -0.4573 -0.2871
18510TIP3    H177021   1.399   2.737  11.863 -0.9376 -2.3987 -0.5337
18510TIP3    H277022   1.516   2.727  11.768 -0.4107  0.2996 -0.2254
18511TIP3   OH277023   0.486   1.947   0.324  0.5112 -0.3321 -0.6260
18511TIP3    H177024   0.501   1.955   0.230  0.1405 -2.1042 -0.8384
18511TIP3    H277025   0.522   1.862   0.348 -0.9747 -0.6715  0.4994
18512TIP3   OH277026   5.564   2.262  13.840  0.3143  0.0726 -0.3052
18512TIP3    H177027   5.523   2.191  13.791  1.4519 -1.3863  0.8211
18512TIP3    H277028   5.658   2.251  13.825  0.4441  1.9963 -0.9955
18513TIP3   OH277029   6.372   4.470  13.042  0.1193 -0.1272  0.2957
18513TIP3    H177030   6.292   4.427  13.074 -0.3206  0.8043  0.4691
18513TIP3    H277031   6.352   4.493  12.952  0.0544  0.4484  0.4588
18514TIP3   OH277032   4.943   0.533  12.047  1.0018 -0.3366 -0.0299
18514TIP3    H177033   4.943   0.616  12.094  1.1832 -0.7804  0.7639
18514TIP3    H277034   4.860   0.492  12.069  0.3345  0.2062 -1.4685
18515TIP3   OH277035   4.692   4.473  14.254 -0.1390  0.1192  0.7596
18515TIP3    H177036   4.728   4.524  14.327 -0.6652  2.0299 -0.2962
18515TIP3    H277037   4.769   4.440  14.208  0.2844  2.3180 -0.1715
18516TIP3   OH277038   3.938   6.709  14.721 -0.0663  0.1245  0.6283
18516TIP3    H177039   4.014   6.659  14.751  0.5444  0.6350 -0.0593
18516TIP3    H277040   3.888   6.647  14.668 -0.4080 -0.3664  1.5165
18517TIP3   OH277041   2.713   1.576   3.637  0.4646 -0.7537  0.2639
18517TIP3    H177042   2.727   1.644   3.703  0.4404 -0.4628 -0.0261
18517TIP3    H277043   2.626   1.594   3.603  1.1111  0.0913 -0.9863
18518TIP3   OH277044   1.431   1.717  14.252 -0.6607  0.2582 -0.2598
18518TIP3    H177045   1.460   1.756  14.170 -2.0745  1.3323 -0.2656
18518TIP3    H277046   1.470   1.630  14.252  0.3054  0.6812 -1.5222
18519TIP3   OH277047   0.537   2.628  17.240 -0.1197 -0.0908 -0.1318
18519TIP3    H177048   0.555   2.558  17.303  0.9018 -0.6062 -0.9802
18519TIP3    H277049   0.597   2.611  17.168 -0.8823  0.8265 -0.9947
18520TIP3   OH277050   5.414   2.386   3.468 -0.5135  0.3132 -0.7674
18520TIP3    H177051   5.401   2.412   3.377  0.3184 -1.2935 -1.3659
18520TIP3    H277052   5.437   2.293   3.464  0.9528  0.5542  0.9664
18521TIP3   OH277053   2.185   2.715   4.555 -0.0752  0.5188  0.2152
18521TIP3    H177054   2.208   2.741   4.644 -2.4407  0.5293  0.8517
18521TIP3    H277055   2.108   2.769   4.534 -3.2404 -3.6606  0.4139
18522TIP3   OH277056   4.737   6.325  16.935  0.6415  0.2466 -0.5522
18522TIP3    H177057   4.817   6.366  16.904  0.5982  0.9956  0.3152
18522TIP3    H277058   4.744   6.326  17.030 -0.1940 -0.0944 -0.4765
18523TIP3   OH277059   5.468   0.458  13.850  0.5832 -0.4318 -0.4587
18523TIP3    H177060   5.396   0.435  13.909 -0.0779  0.8885 -0.7326
18523TIP3    H277061   5.452   0.405  13.771  0.8304 -1.3465  0.0935
18524TIP3   OH277062   3.752   4.968   6.076 -0.1829 -0.1931 -0.1965
18524TIP3    H177063   3.793   5.016   6.004 -0.0854  1.4787  0.9514
18524TIP3    H277064   3.820   4.961   6.143 -1.1892  1.0077  0.9812
18525TIP3   OH277065   0.306   2.557   1.850 -0.5607 -0.8555  0.1649
18525TIP3    H177066   0.338   2.504   1.778 -1.4037 -0.3272 -0.6161
18525TIP3    H277067   0.353   2.640   1.841 -0.3530 -0.9389  0.4797
18526TIP3   OH277068   6.006   4.147   0.721 -0.0595  0.0090 -0.3732
18526TIP3    H177069   5.935   4.082   0.717  0.3922 -0.5192  0.0849
18526TIP3    H277070   5.975   4.219   0.666 -0.9057 -0.2623 -0.2647
18527TIP3   OH277071   6.258   1.024   2.251 -0.1884 -0.1829 -0.2742
18527TIP3    H177072   6.180   1.021   2.195 -0.0997 -0.1872 -0.3989
18527TIP3    H277073   6.249   0.949   2.309 -0.9639  0.5999  0.6314
18528TIP3   OH277074   6.328   2.556   5.769  0.4630 -0.4645  0.6027
18528TIP3    H177075   6.408   2.536   5.817  0.5335 -1.6655  0.0109
18528TIP3    H277076   6.358   2.608   5.694  0.6191 -0.3798  0.7249
18529TIP3   OH277077   5.188   2.100  11.551  0.0033  0.0991  0.4267
18529TIP3    H177078   5.275   2.061  11.560  0.2247 -0.2579 -2.5519
18529TIP3    H277079   5.130   2.026  11.535 -0.4874  0.4927  0.3901
18530TIP3   OH277080   2.719   0.202   1.730  0.2191 -0.2837  0.6048
18530TIP3    H177081   2.733   0.285   1.685 -0.3130 -0.0158  0.9288
18530TIP3    H277082   2.628   0.204   1.757  0.4196 -0.6250  1.3272
18531TIP3   OH277083   0.640   6.466   2.903 -0.0525  0.2592  0.6758
18531TIP3    H177084   0.662   6.373   2.899 -0.4479  0.1803  0.2361
18531TIP3    H277085   0.555   6.468   2.949  0.6123  0.5180  1.9184
18532TIP3   OH277086   1.131   1.948  14.648 -0.5564 -0.5296 -0.1066
18532TIP3    H177087   1.189   1.932  14.573  0.3957 -0.4075  0.5896
18532TIP3    H277088   1.125   1.863  14.692 -1.0008 -0.5679 -0.2432
18533TIP3   OH277089   1.044   3.244  14.685 -0.0756  0.2100 -0.2866
18533TIP3    H177090   1.049   3.310  14.617  0.2049 -0.8892 -1.3567
18533TIP3    H277091   0.973   3.186  14.658  1.0510 -1.1144 -0.4593
18534TIP3   OH277092   1.096   6.040   5.065 -0.0752 -0.3996  0.5419
18534TIP3    H177093   1.064   6.002   4.983 -0.6206 -0.4229  0.7611
18534TIP3    H277094   1.118   6.131   5.043 -4.1533  0.8678  1.2717
18535TIP3   OH277095   5.635   1.308   2.857  0.4793 -0.6755 -0.1284
18535TIP3    H177096   5.665   1.398   2.846  1.3804 -0.7844  1.3929
18535TIP3    H277097   5.713   1.254   2.847  0.3747 -1.1248  1.3135
18536TIP3   OH277098   5.927   6.053   3.927 -0.0052  0.0943  0.8814
18536TIP3    H177099   5.917   5.974   3.873 -0.9856  0.6159  0.2735
18536TIP3    H277100   5.921   6.021   4.017  1.0122 -0.7058  0.6777
18537TIP3   OH277101   1.078   3.093  16.643 -0.0302 -0.5902 -0.5278
18537TIP3    H177102   1.151   3.146  16.676  0.1578 -0.5930 -0.9348
18537TIP3    H277103   1.001   3.147  16.660 -0.1396 -1.3549  1.5571
18538TIP3   OH277104   1.836   2.835  14.308 -0.2942 -0.4075  0.4460
18538TIP3    H177105   1.851   2.816  14.400 -1.9944  1.4161  1.1502
18538TIP3    H277106   1.876   2.922  14.295 -2.1745  0.4299  0.1064
18539TIP3   OH277107   1.105   3.880  13.661  0.0318 -0.8845  0.6039
18539TIP3    H177108   1.164   3.805  13.665  0.6425 -0.3612  1.4300
18539TIP3    H277109   1.128   3.934  13.737  0.9415  1.1278 -1.0363
18540TIP3   OH277110   0.895   2.820  13.498 -0.3861  0.8575  0.4808
18540TIP3    H177111   0.987   2.830  13.474  0.4961  0.6089  3.6536
18540TIP3    H277112   0.874   2.730  13.471 -0.1818  1.4185 -1.6599
18541TIP3   OH277113   0.030   3.857   3.234  0.3171  0.3193  0.8999
18541TIP3    H177114   0.053   3.901   3.152  3.7786 -1.5441  0.7810
18541TIP3    H277115  -0.022   3.781   3.207  1.2273 -0.1467  0.4470
18542TIP3   OH277116   1.594   1.435  15.715 -0.0560  0.3244  0.0325
18542TIP3    H177117   1.592   1.515  15.662  0.2635 -0.5220 -1.2783
18542TIP3    H277118   1.523   1.447  15.779 -0.6472  1.2214 -0.7735
18543TIP3   OH277119   5.529   2.384  15.896 -0.1996  0.6256 -0.4871
18543TIP3    H177120   5.464   2.453  15.910 -0.5343  0.1816  0.1610
18543TIP3    H277121   5.478   2.303  15.893  0.4399  0.1553  1.1773
18544TIP3   OH277122   5.935   3.028   2.332 -0.1055 -0.3094 -0.1294
18544TIP3    H177123   5.982   2.994   2.256  0.3765 -0.4662  0.2417
18544TIP3    H277124   5.846   2.995   2.321  0.4301 -1.9825  0.4033
18545TIP3   OH277125   6.431   1.461   6.262 -0.1192 -0.9096 -0.0911
18545TIP3    H177126   6.407   1.452   6.170  0.2449 -0.7432 -0.2003
18545TIP3    H277127   6.502   1.398   6.275 -0.5420 -1.3286  0.2079
18546TIP3   OH277128   1.687   6.756  12.663  0.2413 -0.2074 -0.2416
18546TIP3    H177129   1.735   6.839  12.665 -0.0193 -0.0210 -1.3074
18546TIP3    H277130   1.622   6.768  12.594 -0.3762 -0.9875  0.2001
18547TIP3   OH277131   5.566   0.302   6.030  0.0198  0.2206  0.5250
18547TIP3    H177132   5.591   0.211   6.012 -0.7200  0.2728 -0.8725
18547TIP3    H277133   5.505   0.324   5.960 -1.6611  1.0383  2.2209
18548TIP3   OH277134   6.128   1.240  11.350  0.1565 -0.5602  0.2618
18548TIP3    H177135   6.044   1.195  11.353  0.2591 -0.7809 -0.1098
18548TIP3    H277136   6.177   1.195  11.280 -0.2075  0.9166 -0.9764
18549TIP3   OH277137   5.273   4.278  16.251 -0.0147  0.4047  0.5717
18549TIP3    H177138   5.274   4.277  16.346 -1.3896 -0.1225  0.6043
18549TIP3    H277139   5.186   4.245  16.228 -0.1684  1.7503 -0.8485
18550TIP3   OH277140   1.568   4.881  15.792  0.5541  0.0913  0.1022
18550TIP3    H177141   1.567   4.785  15.785  0.6209  0.1540 -0.7782
18550TIP3    H277142   1.490   4.901  15.844  0.3199 -0.4116 -0.0485
18551TIP3   OH277143   3.979   5.772  11.145  0.0145  0.8239 -0.6165
18551TIP3    H177144   4.045   5.710  11.114 -0.1406  0.4094 -0.1169
18551TIP3    H277145   3.907   5.717  11.174 -0.1119  1.2432 -0.1398
18552TIP3   OH277146   0.177   0.615   1.460  0.0610 -0.9383  1.0272
18552TIP3    H177147   0.151   0.523   1.465  0.2589 -1.0664 -0.1742
18552TIP3    H277148   0.202   0.638   1.550  0.8944 -2.3217  1.1686
18553TIP3   OH277149   1.738   4.219   0.191  0.3561  0.2871  0.0727
18553TIP3    H177150   1.817   4.271   0.205  0.4844  0.5011 -1.3400
18553TIP3    H277151   1.685   4.271   0.130 -0.0331 -0.7008 -0.4531
18554TIP3   OH277152   1.807   3.784   4.224 -0.4012 -0.1809  0.7692
18554TIP3    H177153   1.781   3.742   4.142  1.7406 -0.9806  0.4744
18554TIP3    H277154   1.747   3.748   4.290 -1.7370  0.0161 -0.3226
18555TIP3   OH277155   4.831   5.183   3.624  0.4669 -0.5321 -0.4516
18555TIP3    H177156   4.899   5.217   3.565 -0.7480 -1.5218 -2.4724
18555TIP3    H277157   4.751   5.185   3.572 -1.1992  1.1452  2.0866
18556TIP3   OH277158   5.186   5.237  15.188 -0.0135  0.1043 -0.3893
18556TIP3    H177159   5.120   5.172  15.214 -0.8445 -0.0144 -2.6362
18556TIP3    H277160   5.264   5.211  15.236 -0.8115 -1.5307  0.0968
18557TIP3   OH277161   2.141   5.826   1.936  0.0544 -0.0454 -0.0532
18557TIP3    H177162   2.081   5.854   2.005  0.2394 -0.2078  0.1750
18557TIP3    H277163   2.205   5.897   1.930 -0.4982  0.4036 -0.7070
18558TIP3   OH277164   0.276   3.172   4.120 -0.6715 -0.1478  0.8609
18558TIP3    H177165   0.277   3.255   4.168  1.4225 -0.3543  1.1929
18558TIP3    H277166   0.282   3.105   4.189 -1.8603 -0.5901  0.5595
18559TIP3   OH277167   2.326   2.946   4.353 -0.1620 -0.0836  0.0148
18559TIP3    H177168   2.259   3.010   4.379  0.1014 -0.4053  1.5613
18559TIP3    H277169   2.279   2.863   4.349 -0.2130 -0.0246 -0.6118
18560TIP3   OH277170   0.400   6.576  14.866  0.3584  0.2439 -0.3295
18560TIP3    H177171   0.461   6.519  14.912  0.4095  0.9549  0.5100
18560TIP3    H277172   0.420   6.664  14.900 -0.9593  0.5150 -0.2367
18561TIP3   OH277173   3.881   2.033  14.522  0.8210 -0.3318 -0.0006
18561TIP3    H177174   3.904   2.116  14.564  0.7286 -0.2721 -0.0715
18561TIP3    H277175   3.820   2.057  14.453  2.0515 -0.2631 -1.0881
18562TIP3   OH277176   4.323   3.968  12.350 -0.3097  0.1000 -0.3346
18562TIP3    H177177   4.407   3.941  12.312  1.2425  2.7398  1.0762
18562TIP3    H277178   4.288   3.887  12.388  0.7716 -1.3888 -2.3750
18563TIP3   OH277179   5.316   1.757   2.616  0.0002 -0.9883 -0.5856
18563TIP3    H177180   5.331   1.823   2.548  0.0876 -0.3303  0.0580
18563TIP3    H277181   5.403   1.727   2.640  0.2901  1.6252  1.9760
18564TIP3   OH277182   0.442   1.126   2.391 -0.0979 -0.2119  0.5818
18564TIP3    H177183   0.426   1.063   2.460  0.4132 -0.7214  0.2418
18564TIP3    H277184   0.461   1.073   2.313  0.9685  0.3511  0.4461
18565TIP3   OH277185   1.516   0.491   6.019  0.4539  0.2393 -0.0388
18565TIP3    H177186   1.512   0.574   6.066 -0.2919  0.2606 -0.1285
18565TIP3    H277187   1.425   0.461   6.016  0.7575 -0.7222  0.2421
18566TIP3   OH277188   3.048   6.756   5.703  0.0348 -0.5966 -0.2073
18566TIP3    H177189   3.090   6.672   5.687 -0.9069 -1.6830  2.7668
18566TIP3    H277190   3.078   6.783   5.789  1.2363  2.7503 -1.5538
18567TIP3   OH277191   6.263   1.513  12.259 -0.0303  0.0321  0.6924
18567TIP3    H177192   6.198   1.521  12.328 -0.6029  2.5120 -0.0822
18567TIP3    H277193   6.241   1.582  12.197  2.1739 -0.3371 -0.5657
18568TIP3   OH277194   4.482   3.463  15.941  0.6912  0.0184 -0.0820
18568TIP3    H177195   4.480   3.502  15.854  0.6531  0.9360  0.3315
18568TIP3    H277196   4.575   3.452  15.961  0.7662  1.8062  0.6476
18569TIP3   OH277197   0.998   0.162  11.820  0.0430  0.2655  0.2149
18569TIP3    H177198   0.935   0.227  11.849 -0.0973  0.7817 -1.2121
18569TIP3    H277199   0.951   0.111  11.754  0.4403 -0.7261  0.6758
18570TIP3   OH277200   5.322   3.926   4.499  0.2421 -0.0668 -0.0919
18570TIP3    H177201   5.271   3.879   4.565 -0.5126  0.3298 -0.3862
18570TIP3    H277202   5.411   3.891   4.508 -0.0976 -0.8250  0.3693
18571TIP3   OH277203   6.697   3.276   2.610  0.1212 -0.1308  0.4266
18571TIP3    H177204   6.754   3.205   2.637  0.3038  0.2225  0.9946
18571TIP3    H277205   6.647   3.241   2.536  2.7701  0.3251 -1.6580
18572TIP3   OH277206   1.526   1.793  16.267 -0.6402  0.5568 -0.0172
18572TIP3    H177207   1.527   1.819  16.175 -3.0412  0.9436  0.0382
18572TIP3    H277208   1.458   1.726  16.273 -0.4591  0.4823  1.4581
18573TIP3   OH277209   1.678   0.981   2.509  0.0745  0.0248  0.3410
18573TIP3    H177210   1.638   1.051   2.457  0.4836 -0.9213 -1.2725
18573TIP3    H277211   1.758   0.959   2.461  0.0778 -1.3654  0.9880
18574TIP3   OH277212   6.302   4.959   0.407 -0.6352 -0.5494  0.1129
18574TIP3    H177213   6.391   4.925   0.395 -0.8724 -1.7253  1.4781
18574TIP3    H277214   6.314   5.038   0.459 -0.1712  0.9268 -2.1584
18575TIP3   OH277215   5.869   2.140  11.197  0.2352  0.0938  0.7109
18575TIP3    H177216   5.918   2.096  11.128  0.7730 -1.8118  2.2757
18575TIP3    H277217   5.779   2.143  11.164  0.7945  0.7763 -0.8090
18576TIP3   OH277218   3.215   0.862   0.553 -0.1642  0.1260  0.7798
18576TIP3    H177219   3.291   0.893   0.602  0.3745  1.3479 -0.7858
18576TIP3    H277220   3.249   0.788   0.502  0.7222  2.3435 -1.9943
18577TIP3   OH277221   4.449   3.739  17.084  0.1163 -0.0635 -0.1729
18577TIP3    H177222   4.357   3.724  17.060 -0.1612 -1.8264  1.8615
18577TIP3    H277223   4.453   3.831  17.109 -0.4514  0.7698 -3.0060
18578TIP3   OH277224   5.757   2.253   5.784  0.7885  0.1330 -0.3579
18578TIP3    H177225   5.745   2.329   5.727  2.2064  1.1824  0.7372
18578TIP3    H277226   5.741   2.286   5.872 -0.7366 -1.3407 -0.0473
18579TIP3   OH277227   3.356   3.274   2.339  0.6097 -0.2183 -1.1979
18579TIP3    H177228   3.449   3.294   2.340  0.5518  0.0679  1.2034
18579TIP3    H277229   3.349   3.186   2.378 -0.2961  0.7833  1.0039
18580TIP3   OH277230   2.034   3.760   0.301  0.1012  0.2847  0.8308
18580TIP3    H177231   2.055   3.673   0.337 -1.1753 -0.5485 -0.3827
18580TIP3    H277232   1.984   3.803   0.371 -1.0447 -0.7479  0.6654
18581TIP3   OH277233   5.449   1.880   0.626 -0.3394 -0.0953 -0.0004
18581TIP3    H177234   5.394   1.826   0.682  0.6589 -1.1828 -0.0532
18581TIP3    H277235   5.388   1.945   0.589 -0.9709  0.8156  2.4960
18582TIP3   OH277236   1.765   5.632  10.574 -0.5486  0.2253  0.3083
18582TIP3    H177237   1.702   5.663  10.509  1.1893  0.0339 -1.5165
18582TIP3    H277238   1.761   5.536  10.568 -0.7297  0.1927  0.8584
18583TIP3   OH277239   4.937   4.047   0.751  0.2351 -0.2555 -0.1676
18583TIP3    H177240   4.935   3.964   0.703 -0.1649  0.4319 -1.3705
18583TIP3    H277241   4.848   4.057   0.786  0.1821 -0.1534 -0.3328
18584TIP3   OH277242   2.196   6.779  14.533 -0.2707  0.0573  0.0888
18584TIP3    H177243   2.129   6.804  14.469 -0.5569  0.5472  0.5748
18584TIP3    H277244   2.154   6.716  14.590 -0.3898  0.5352  0.5323
18585TIP3   OH277245   0.194   5.467  14.536  0.0174 -0.2366  0.2874
18585TIP3    H177246   0.143   5.505  14.463  0.6878  1.6053  0.7425
18585TIP3    H277247   0.143   5.489  14.614  0.1541 -0.7492  0.5222
18586TIP3   OH277248   5.488   1.436   1.706  0.1805  0.4323  0.0630
18586TIP3    H177249   5.397   1.463   1.690 -0.4144 -0.8547  1.2162
18586TIP3    H277250   5.484   1.383   1.785  1.9451  0.3040  0.0848
18587TIP3   OH277251   2.247   6.188   0.222  0.2833 -0.5866 -0.2521
18587TIP3    H177252   2.286   6.191   0.135 -1.7488  1.6074 -1.1233
18587TIP3    H277253   2.287   6.261   0.269 -1.1442  0.3387 -0.4556
18588TIP3   OH277254   5.741   6.027  12.447  0.0893  0.0922  0.2007
18588TIP3    H177255   5.719   5.937  12.467  1.5985 -0.6314 -1.2098
18588TIP3    H277256   5.735   6.073  12.531  0.2218 -1.5173  1.1161
18589TIP3   OH277257   2.855   6.719   4.977 -0.0507  0.0560  0.1606
18589TIP3    H177258   2.831   6.694   5.067 -1.4130  1.8011  0.3070
18589TIP3    H277259   2.773   6.713   4.928  0.0797  1.8672 -0.3104
18590TIP3   OH277260   5.416   0.812  16.808 -0.6294 -0.2311  0.1577
18590TIP3    H177261   5.489   0.874  16.801  0.5730 -1.6151  0.0903
18590TIP3    H277262   5.401   0.803  16.902  1.3246 -2.2034  0.3424
18591TIP3   OH277263   3.985   2.639  13.228  0.2882 -0.7085  0.1970
18591TIP3    H177264   4.050   2.626  13.297 -1.0824 -0.1547  1.6272
18591TIP3    H277265   3.937   2.556  13.225 -0.3968 -0.3374  0.7182
18592TIP3   OH277266   6.011   0.435   2.409 -0.3067  0.1758  0.2653
18592TIP3    H177267   6.058   0.427   2.491 -0.8885  2.7995  0.9163
18592TIP3    H277268   6.022   0.527   2.384 -1.4813 -0.1912 -1.7543
18593TIP3   OH277269   5.039   4.648  12.541 -0.0670 -0.4162  0.1844
18593TIP3    H177270   5.067   4.628  12.631  0.0511 -1.8957 -0.1665
18593TIP3    H277271   4.943   4.646  12.545 -0.0974  1.1945  0.6306
18594TIP3   OH277272   1.376   1.669  17.149 -0.4946  0.8522 -0.5419
18594TIP3    H177273   1.297   1.681  17.096 -0.0430  0.1227 -1.3999
18594TIP3    H277274   1.444   1.718  17.103  0.7083 -2.5234 -2.5720
18595TIP3   OH277275   6.139   2.131  16.052 -0.4548  0.3454  0.4271
18595TIP3    H177276   6.056   2.160  16.090 -1.4720  0.7601 -2.0010
18595TIP3    H277277   6.120   2.043  16.019  0.1072  0.4134 -0.0747
18596TIP3   OH277278   1.330   0.253  15.528 -0.2757 -0.2982  0.1734
18596TIP3    H177279   1.360   0.219  15.612 -0.7399  1.0007  0.8817
18596TIP3    H277280   1.265   0.319  15.551  0.8845  1.3372 -1.1506
18597TIP3   OH277281   0.772   3.695  13.578 -0.3164 -0.3158  0.5539
18597TIP3    H177282   0.777   3.634  13.504 -1.2796  0.2704 -0.0155
18597TIP3    H277283   0.805   3.646  13.653  0.5989 -0.9498 -0.2504
18598TIP3   OH277284   3.163   2.901  13.854 -0.2033 -0.7425 -0.3340
18598TIP3    H177285   3.080   2.871  13.817 -0.0891  0.2557 -1.4615
18598TIP3    H277286   3.150   2.994  13.870 -0.2647 -1.1571  2.2846
18599TIP3   OH277287   0.155   4.212   2.897 -0.0173  0.5367  0.0094
18599TIP3    H177288   0.181   4.138   2.952 -1.9478 -1.3993 -1.5379
18599TIP3    H277289   0.234   4.233   2.847  0.1807 -1.5348 -0.6275
18600TIP3   OH277290   5.008   1.781   2.178  0.0845 -0.2414  0.3161
18600TIP3    H177291   5.037   1.772   2.087  1.8591 -1.2218  0.9685
18600TIP3    H277292   5.076   1.738   2.230 -0.5127  0.9930  2.1726
18601TIP3   OH277293   0.923   4.538   1.313 -0.2964 -0.4413 -0.0234
18601TIP3    H177294   0.949   4.605   1.249 -0.2301  0.5291  1.0035
18601TIP3    H277295   0.943   4.455   1.269 -1.8553  0.1466 -1.9454
18602TIP3   OH277296   6.734   2.273  16.281  0.9068 -0.0243  0.3220
18602TIP3    H177297   6.751   2.361  16.249  1.5146 -0.0809  0.4915
18602TIP3    H277298   6.776   2.270  16.367 -0.3260 -0.0201  0.9419
18603TIP3   OH277299   6.786   2.183   1.407  0.2370  0.2069 -0.0280
18603TIP3    H177300   6.754   2.254   1.463 -0.3210 -0.3049  0.3072
18603TIP3    H277301   6.748   2.201   1.321  1.6962  1.4075 -0.4440
18604TIP3   OH277302   5.021   5.011  12.023  0.2470 -0.3243 -0.0140
18604TIP3    H177303   5.091   5.070  11.994 -0.6864  0.9593  0.2905
18604TIP3    H277304   5.054   4.924  12.004  1.8924  0.2710  0.0277
18605TIP3   OH277305   5.466   4.010  15.380 -0.2929  0.1537 -0.1082
18605TIP3    H177306   5.373   3.988  15.385 -0.1387 -0.5413 -0.1607
18605TIP3    H277307   5.469   4.105  15.381 -0.9641  0.1705  0.5783
18606TIP3   OH277308   3.356   2.278  14.849  0.2001  0.0322  0.4401
18606TIP3    H177309   3.339   2.370  14.871 -0.2104  0.3678 -1.1610
18606TIP3    H277310   3.270   2.244  14.824  0.3355 -0.8197  1.1423
18607TIP3   OH277311   2.499   3.549   3.964  0.1742  0.2215 -0.6862
18607TIP3    H177312   2.543   3.577   4.044  1.0714 -1.3982 -0.5856
18607TIP3    H277313   2.566   3.555   3.896 -0.5834  1.5883 -1.3346
18608TIP3   OH277314   3.238   0.271   3.374  0.2842  0.0066  0.8491
18608TIP3    H177315   3.321   0.226   3.393  0.4655 -0.2701 -0.5053
18608TIP3    H277316   3.171   0.206   3.394  0.4439 -0.1216  0.9755
18609TIP3   OH277317   3.342   3.685   3.814  0.0568  0.2094 -0.2275
18609TIP3    H177318   3.433   3.673   3.787  0.4129  2.9895 -0.4897
18609TIP3    H277319   3.291   3.660   3.737  0.6580 -0.3984 -0.4307
18610TIP3   OH277320   0.603   3.995   0.735  0.1063  0.2745 -0.1889
18610TIP3    H177321   0.680   4.038   0.772 -0.5796  1.5716 -0.2193
18610TIP3    H277322   0.559   3.957   0.811  0.6041 -0.1800 -0.1284
18611TIP3   OH277323   6.608   3.707   4.492 -0.1065 -0.2152  0.7705
18611TIP3    H177324   6.545   3.692   4.563 -0.9360  0.3707  0.1712
18611TIP3    H277325   6.558   3.690   4.412  0.3375  0.8075  0.2659
18612TIP3   OH277326   0.640   3.477   0.577 -0.1008  0.6055 -0.3023
18612TIP3    H177327   0.599   3.514   0.499  1.5785  2.4754 -0.3325
18612TIP3    H277328   0.572   3.479   0.644 -1.5190 -0.8908 -1.6437
18613TIP3   OH277329   1.028   2.892   2.254 -0.3682  0.1237 -0.4628
18613TIP3    H177330   0.970   2.884   2.179 -0.9255 -0.6121  0.0398
18613TIP3    H277331   0.975   2.935   2.321  0.0804  0.6446 -0.4387
18614TIP3   OH277332   6.361   3.835   0.383  0.3290  0.4067  0.4445
18614TIP3    H177333   6.445   3.881   0.371  1.0841 -0.7752  1.0931
18614TIP3    H277334   6.376   3.748   0.346 -1.1755  0.7463 -1.0041
18615TIP3   OH277335   2.854   1.055  12.879 -0.6146  0.0959 -0.3432
18615TIP3    H177336   2.847   1.047  12.975 -1.3676  4.3453  0.0638
18615TIP3    H277337   2.937   1.012  12.858  0.3069  0.3653  2.4215
18616TIP3   OH277338   0.737   0.051  12.440  0.0560 -0.5072 -0.2950
18616TIP3    H177339   0.652   0.007  12.431  0.0449 -0.6888  0.6627
18616TIP3    H277340   0.744   0.071  12.533  0.4942  0.6776 -0.5821
18617TIP3   OH277341   2.985   1.631  13.590  0.3288  0.7176 -0.0413
18617TIP3    H177342   3.037   1.663  13.664 -0.5441 -0.7641  1.2203
18617TIP3    H277343   2.964   1.711  13.540  1.2309  1.6804  1.0818
18618TIP3   OH277344   4.929   0.599  15.144 -0.1108 -0.6104 -0.0377
18618TIP3    H177345   5.019   0.573  15.164  0.0952  0.8288  0.9430
18618TIP3    H277346   4.935   0.692  15.124 -1.1380 -0.8721 -1.6843
18619TIP3   OH277347   1.747   1.265   0.995 -0.9593 -0.0114 -0.2871
18619TIP3    H177348   1.706   1.344   0.962 -0.5218  0.3727  0.0880
18619TIP3    H277349   1.699   1.194   0.952 -0.7647  0.4656 -1.3074
18620TIP3   OH277350   2.136   2.649  16.068  0.0561 -0.3327  0.5226
18620TIP3    H177351   2.184   2.621  16.146  0.0986 -1.0557  0.2297
18620TIP3    H277352   2.044   2.645  16.094  0.0704 -0.5742  0.5321
18621TIP3   OH277353   5.420   0.918   5.881 -0.3196 -0.3157  0.2199
18621TIP3    H177354   5.368   0.990   5.845 -0.0180 -0.0364  0.3431
18621TIP3    H277355   5.438   0.944   5.971  0.3376 -0.2416  0.0690
18622TIP3   OH277356   2.866   6.013  16.942 -0.1075 -0.4209  0.7417
18622TIP3    H177357   2.901   6.095  16.976 -1.8379  0.2717  0.9246
18622TIP3    H277358   2.910   5.945  16.992  0.3900  0.4428  1.4904
18623TIP3   OH277359   4.652   0.634  12.151 -0.0821  0.0400 -0.5227
18623TIP3    H177360   4.563   0.661  12.169 -0.1413  0.0133 -0.7671
18623TIP3    H277361   4.673   0.675  12.067 -0.1382 -0.5736 -0.8454
18624TIP3   OH277362   3.962   4.055   2.960  0.0864 -0.7090 -0.3369
18624TIP3    H177363   3.958   4.082   2.868  0.3472  0.1875 -0.0932
18624TIP3    H277364   4.053   4.073   2.985  0.0621 -1.1273  0.0423
18625TIP3   OH277365   1.463   4.532   2.963 -0.1400  0.2682  0.1253
18625TIP3    H177366   1.398   4.476   2.919  0.8539 -1.8520  1.3033
18625TIP3    H277367   1.429   4.542   3.052 -0.2184  1.4011 -0.0306
18626TIP3   OH277368   3.829   5.241   3.121  0.4781  0.0079  0.4306
18626TIP3    H177369   3.884   5.162   3.125 -3.0552 -2.5015  1.7596
18626TIP3    H277370   3.842   5.283   3.206  2.7203  1.1718 -0.4476
18627TIP3   OH277371   3.748   6.125  16.159 -0.1669  0.1442 -0.0234
18627TIP3    H177372   3.790   6.112  16.073  0.1096  0.0192  0.1289
18627TIP3    H277373   3.683   6.194  16.143 -1.6584 -1.4277 -0.8543
18628TIP3   OH277374   0.672   5.761  13.606  0.0214  0.4987 -0.2666
18628TIP3    H177375   0.616   5.829  13.642 -3.2042 -1.8194 -0.7237
18628TIP3    H277376   0.737   5.745  13.674 -1.0355  1.8919  1.0975
18629TIP3   OH277377   2.991   0.436   5.841  0.0589 -0.1571 -0.5418
18629TIP3    H177378   3.021   0.372   5.905 -1.9029 -0.8110 -0.2401
18629TIP3    H277379   3.013   0.520   5.879  1.3958 -0.6150 -0.2896
18630TIP3   OH277380   5.046   0.166   0.842 -0.4970 -0.0405 -0.6975
18630TIP3    H177381   5.072   0.081   0.806 -1.5151  0.1347 -1.8910
18630TIP3    H277382   5.053   0.226   0.767 -0.4786  0.7846 -0.0387
18631TIP3   OH277383   1.108   1.078   4.570  0.4834  0.4414 -0.6337
18631TIP3    H177384   1.047   1.147   4.594  0.9983  0.2277  1.4412
18631TIP3    H277385   1.054   1.012   4.527 -1.0290 -0.3396  2.3436
18632TIP3   OH277386   0.085   4.716   0.982 -0.4820  0.3471 -0.0007
18632TIP3    H177387   0.096   4.634   0.934  1.7071 -0.2002  1.3432
18632TIP3    H277388   0.167   4.726   1.031 -2.0620  1.6308  2.4609
18633TIP3   OH277389   5.113   1.152  13.359  0.9637  0.2631 -0.1584
18633TIP3    H177390   5.098   1.063  13.329  2.6863  0.4142 -1.5817
18633TIP3    H277391   5.103   1.206  13.280  1.8813  1.0868  0.2717
18634TIP3   OH277392   3.898   1.474  12.980 -0.3907 -0.1235 -0.3381
18634TIP3    H177393   3.965   1.419  13.022 -2.0986 -1.1402  1.1442
18634TIP3    H277394   3.913   1.462  12.886  1.6810 -0.0885 -0.0513
18635TIP3   OH277395   3.054   0.584   1.773 -0.6624  0.0581  0.5035
18635TIP3    H177396   3.088   0.541   1.695 -2.1404  0.5145 -0.4137
18635TIP3    H277397   3.063   0.677   1.755  0.0865  0.1701  1.3899
18636TIP3   OH277398   0.705   4.082  16.548  0.2022 -0.0235  0.5130
18636TIP3    H177399   0.623   4.071  16.597 -0.8641  1.8370 -0.7722
18636TIP3    H277400   0.739   3.993  16.538 -1.6461 -0.8276  1.1236
18637TIP3   OH277401   1.990   1.641  12.315  0.2652 -0.1321 -0.2006
18637TIP3    H177402   2.000   1.586  12.393  2.6795 -2.6679 -2.1884
18637TIP3    H277403   2.034   1.723  12.338 -2.0818  0.4985  2.2788
18638TIP3   OH277404   4.782   4.795  17.013 -0.0948  0.1557  0.0413
18638TIP3    H177405   4.750   4.837  17.092 -0.3365  1.3517 -0.6828
18638TIP3    H277406   4.847   4.856  16.978  0.0861 -0.4164 -0.6254
18639TIP3   OH277407   4.520   1.274  17.082 -0.2316 -0.5053  0.4065
18639TIP3    H177408   4.495   1.349  17.028  2.1370  0.2921  0.3239
18639TIP3    H277409   4.438   1.232  17.105 -1.5544  1.6219 -0.2668
18640TIP3   OH277410   6.091   0.377  11.368 -0.0566  0.2666  0.0666
18640TIP3    H177411   6.046   0.306  11.323  0.7704 -0.0907 -0.2189
18640TIP3    H277412   6.079   0.454  11.312 -0.0296  0.0940 -0.1739
18641TIP3   OH277413   0.170   2.687  16.518 -0.0956  0.3899 -0.4069
18641TIP3    H177414   0.176   2.621  16.587  0.1698  0.7314 -0.1010
18641TIP3    H277415   0.259   2.722  16.509 -0.3264  1.0372 -0.2385
18642TIP3   OH277416   2.066   5.101   2.802 -0.1477  0.4987 -0.2216
18642TIP3    H177417   2.104   5.184   2.771  1.0126 -0.6154 -1.8761
18642TIP3    H277418   1.978   5.100   2.766 -0.5660  1.5243  0.7509
18643TIP3   OH277419   1.770   6.564  16.410  0.3079  0.7729  0.8647
18643TIP3    H177420   1.803   6.654  16.411 -0.4156  1.0573  0.0419
18643TIP3    H277421   1.840   6.512  16.449  0.4257  1.7972  2.0447
18644TIP3   OH277422   2.652   4.943   2.434 -0.0456  0.0330  0.7343
18644TIP3    H177423   2.696   4.870   2.391  0.9326 -0.1705  2.0639
18644TIP3    H277424   2.570   4.906   2.468  0.4053 -0.4338  1.3226
18645TIP3   OH277425   0.856   2.570  15.054  0.4352 -0.3720 -0.1301
18645TIP3    H177426   0.915   2.577  15.129 -0.1229  0.4736  0.2476
18645TIP3    H277427   0.771   2.546  15.093 -0.0565  0.9051 -0.3855
18646TIP3   OH277428   2.388   0.061  14.702  0.0875 -0.2965 -0.5878
18646TIP3    H177429   2.429  -0.009  14.753 -0.2760 -0.9449 -1.1796
18646TIP3    H277430   2.330   0.015  14.641 -1.4181  0.6071  0.1438
18647TIP3   OH277431   6.575   4.450   3.463 -0.5286 -0.2837  0.2789
18647TIP3    H177432   6.517   4.524   3.450 -1.1894 -0.3280  2.7934
18647TIP3    H277433   6.562   4.424   3.554  1.8349 -1.6630  0.2740
18648TIP3   OH277434   4.804   1.392  10.716 -0.0852  0.5729  0.8073
18648TIP3    H177435   4.781   1.484  10.728  0.1085  0.6717  0.4616
18648TIP3    H277436   4.721   1.345  10.717 -0.0978  0.6115  2.1345
18649TIP3   OH277437   6.562   4.389   2.887 -0.3751  0.0762 -0.1870
18649TIP3    H177438   6.621   4.343   2.947 -0.1543 -0.3615 -0.7317
18649TIP3    H277439   6.611   4.396   2.805 -1.1816 -0.5575 -0.7355
18650TIP3   OH277440   1.674   4.790   5.314 -0.1716  0.0216 -0.5152
18650TIP3    H177441   1.763   4.819   5.294  0.5510 -0.4095  1.8769
18650TIP3    H277442   1.685   4.704   5.355 -1.6127  0.4171  0.7538
18651TIP3   OH277443   6.784   4.637   2.690  0.4073 -0.3292 -0.1688
18651TIP3    H177444   6.689   4.638   2.703  0.0913  0.6484 -2.3263
18651TIP3    H277445   6.811   4.547   2.708 -0.8976 -0.5694  0.6145
18652TIP3   OH277446   2.918   3.285   2.379  0.1777 -0.0674  0.3134
18652TIP3    H177447   2.853   3.344   2.341 -0.4428 -0.6103  0.5253
18652TIP3    H277448   2.898   3.285   2.472  0.4497 -0.2883  0.3716
18653TIP3   OH277449   0.863   2.458  16.286 -0.6328  0.3197 -0.3748
18653TIP3    H177450   0.837   2.378  16.333 -0.1638  1.9085  2.6779
18653TIP3    H277451   0.949   2.437  16.250 -1.2839 -1.1541 -1.1415
18654TIP3   OH277452   5.825   2.448   2.549 -0.2030  0.1195  0.1825
18654TIP3    H177453   5.822   2.412   2.637  0.0744  2.8130  1.3131
18654TIP3    H277454   5.798   2.375   2.493 -0.1343 -1.6887  2.4473
18655TIP3   OH277455   4.870   0.144   2.665  0.7539  0.4143  0.5829
18655TIP3    H177456   4.881   0.239   2.657 -0.1753  0.4186 -0.7897
18655TIP3    H277457   4.785   0.133   2.707 -0.4936  0.1597 -1.9398
18656TIP3   OH277458   0.719   3.038  13.235  0.3416  0.0536  0.2641
18656TIP3    H177459   0.795   3.093  13.217  1.8354 -2.2539 -0.6995
18656TIP3    H277460   0.699   3.054  13.328  2.5728  0.0247  0.7835
18657TIP3   OH277461   0.577   5.972   1.463  0.1085 -0.1629 -0.9736
18657TIP3    H177462   0.608   5.896   1.511 -1.6514  0.7062  1.6804
18657TIP3    H277463   0.483   5.977   1.485  0.3887  3.3009 -0.2566
18658TIP3   OH277464   5.556   3.006  16.215  0.1773 -0.1451  0.3167
18658TIP3    H177465   5.507   3.088  16.222  0.8940  0.3547 -0.4293
18658TIP3    H277466   5.526   2.967  16.133 -0.5464 -0.9000  0.9209
18659TIP3   OH277467   1.889   1.980  10.607 -0.4886 -0.2523 -0.1913
18659TIP3    H177468   1.883   1.886  10.625 -1.4641 -0.0863  0.4026
18659TIP3    H277469   1.800   2.006  10.584 -0.4500  0.7199  0.6736
18660TIP3   OH277470   0.755   3.899   4.174 -0.4046 -0.5429  0.2144
18660TIP3    H177471   0.778   3.806   4.184 -1.6374 -0.8619  0.1860
18660TIP3    H277472   0.677   3.910   4.228 -0.2489  0.4908  0.2311
18661TIP3   OH277473   1.541   1.768   4.187  0.2267 -0.2028 -0.2486
18661TIP3    H177474   1.556   1.828   4.114  2.8068  1.0844  1.2618
18661TIP3    H277475   1.491   1.819   4.250  0.5900 -0.3106  0.1311
18662TIP3   OH277476   4.030   5.126   3.863 -0.7018  0.4026  0.2473
18662TIP3    H177477   4.109   5.179   3.868 -0.1249 -0.5151  1.0732
18662TIP3    H277478   4.035   5.068   3.939 -2.7737  1.1651  1.0141
18663TIP3   OH277479   5.201   0.597  14.919  0.3005 -0.3597  0.2638
18663TIP3    H177480   5.228   0.678  14.961  2.1660 -0.3830 -0.8041
18663TIP3    H277481   5.132   0.623  14.858 -0.2353  0.1730  1.1071
18664TIP3   OH277482   6.616   0.440   5.255 -0.1058  0.4054  0.1003
18664TIP3    H177483   6.571   0.475   5.331 -0.5772  1.1753 -0.5281
18664TIP3    H277484   6.618   0.345   5.270  1.7314  0.7418  2.0898
18665TIP3   OH277485   2.682   0.680   5.823  0.3100 -0.2623 -0.1543
18665TIP3    H177486   2.596   0.704   5.858 -0.9086 -1.5176 -2.1869
18665TIP3    H277487   2.713   0.759   5.779 -1.1284 -0.6224 -1.8960
18666TIP3   OH277488   4.283   6.494   2.848  0.1631 -0.1581  0.0541
18666TIP3    H177489   4.282   6.425   2.781  0.7610 -0.2484  0.1375
18666TIP3    H277490   4.210   6.551   2.824  0.0142 -0.5131 -0.3427
18667TIP3   OH277491   5.437   6.274   4.970  0.5766 -0.5283 -0.3164
18667TIP3    H177492   5.369   6.208   4.987 -0.6916  0.7326 -0.3844
18667TIP3    H277493   5.462   6.305   5.057 -0.4526  0.4951 -0.3716
18668TIP3   OH277494   0.922   3.723  13.130 -0.0282 -0.0592 -0.2782
18668TIP3    H177495   0.934   3.729  13.225  0.3502 -1.7234 -0.2049
18668TIP3    H277496   0.830   3.700  13.119  0.0431 -0.3241 -0.3051
18669TIP3   OH277497   1.284   1.926   1.629  0.2003  0.2706 -0.1684
18669TIP3    H177498   1.203   1.941   1.580  0.1047  1.3969  0.3223
18669TIP3    H277499   1.272   1.840   1.669 -0.0347 -0.3242 -1.4959
18670TIP3   OH277500   1.426   3.219  15.236 -0.1144  0.2626 -0.0503
18670TIP3    H177501   1.475   3.280  15.293 -0.3419  1.9095 -1.5850
18670TIP3    H277502   1.366   3.174  15.295  0.9336  0.6229  1.3199
18671TIP3   OH277503   2.468   4.928   1.653 -0.5134 -0.6663  0.3922
18671TIP3    H177504   2.423   4.910   1.570  0.6204 -0.7105 -0.2232
18671TIP3    H277505   2.561   4.918   1.632 -0.1023  1.2783  1.1887
18672TIP3   OH277506   3.397   6.813   5.903 -0.0187  0.1256  0.3807
18672TIP3    H177507   3.481   6.776   5.930 -1.1974 -1.3194  2.1824
18672TIP3    H277508   3.357   6.745   5.849 -0.8071  0.0950  1.0088
18673TIP3   OH277509   0.378   3.294  15.162 -0.4945 -0.4353  0.2469
18673TIP3    H177510   0.331   3.270  15.242  0.0826  1.5631  1.2132
18673TIP3    H277511   0.342   3.380  15.139 -0.0433 -0.6189 -1.1799
18674TIP3   OH277512   3.153   4.674  11.021 -0.8145  0.1644 -0.0964
18674TIP3    H177513   3.222   4.680  11.087 -1.2269 -1.7383  0.5327
18674TIP3    H277514   3.159   4.585  10.987 -0.3077  1.2720 -3.0142
18675TIP3   OH277515   2.170   0.388   3.417 -0.1880  0.4322 -0.0292
18675TIP3    H177516   2.140   0.479   3.412 -0.7017  0.1504 -3.7538
18675TIP3    H277517   2.089   0.336   3.422  0.0588  0.0985  0.5685
18676TIP3   OH277518   0.525   1.049   0.472  0.1761  1.0280  0.1346
18676TIP3    H177519   0.539   1.049   0.377 -1.4087  1.0736 -0.1195
18676TIP3    H277520   0.544   1.139   0.499  1.3950  0.8231 -0.0050
18677TIP3   OH277521   6.355   1.274  16.515 -0.1803 -0.1336  0.3003
18677TIP3    H177522   6.265   1.302  16.530 -0.1787  0.2270 -0.3133
18677TIP3    H277523   6.372   1.208  16.582 -1.6512 -1.8792 -0.9962
18678TIP3   OH277524   2.518   1.004   4.444  0.0462 -0.6091  0.7743
18678TIP3    H177525   2.478   0.981   4.528 -0.5444  0.9015  0.9218
18678TIP3    H277526   2.444   1.031   4.389  0.7518  1.6714  0.8649
18679TIP3   OH277527   1.146   3.101  16.367  0.2838  0.2830 -0.5676
18679TIP3    H177528   1.167   3.011  16.342  0.0794 -0.0231  0.3248
18679TIP3    H277529   1.134   3.096  16.462 -0.6380  1.0711 -0.6421
18680TIP3   OH277530   0.418   1.610  14.824  0.1453 -0.3327  0.1112
18680TIP3    H177531   0.468   1.560  14.759  1.3232  0.6119  0.2796
18680TIP3    H277532   0.464   1.595  14.906  1.0827  1.8254 -0.0094
18681TIP3   OH277533   2.728   3.544  16.934 -0.3293  0.3291  0.2293
18681TIP3    H177534   2.727   3.526  16.840 -0.6933 -0.3910  0.3733
18681TIP3    H277535   2.638   3.531  16.962 -0.0904 -0.0900  0.8037
18682TIP3   OH277536   0.818   1.565  16.304 -0.1089  0.1962  0.8629
18682TIP3    H177537   0.769   1.485  16.283  0.7513 -0.3723  0.9833
18682TIP3    H277538   0.847   1.598  16.218  1.3258 -0.7888  0.9447
18683TIP3   OH277539   1.439   1.000  13.092 -0.3692 -0.1526  0.0020
18683TIP3    H177540   1.428   0.985  12.998  0.3260 -1.4393  0.1143
18683TIP3    H277541   1.532   0.983  13.108 -0.3443  0.7233  0.8086
18684TIP3   OH277542   5.731   1.249  13.557 -0.2182  0.2656  0.2818
18684TIP3    H177543   5.637   1.264  13.571 -0.0716  0.0527  1.5593
18684TIP3    H277544   5.766   1.335  13.534 -0.9209  0.1243 -1.3648
18685TIP3   OH277545   2.256   3.551   0.640  0.3264 -0.2912 -0.0647
18685TIP3    H177546   2.286   3.622   0.583  0.1658  0.4328  0.7416
18685TIP3    H277547   2.311   3.557   0.718  0.2445 -0.9882  0.0476
18686TIP3   OH277548   6.239   5.085   0.817  0.0487 -0.4574  1.0161
18686TIP3    H177549   6.302   5.135   0.870  0.0301  0.6967 -0.0196
18686TIP3    H277550   6.292   5.043   0.750 -0.3112  0.8503 -0.1099
18687TIP3   OH277551   2.731   4.012   3.420 -0.0640 -0.4651  0.1838
18687TIP3    H177552   2.655   4.009   3.361 -0.8956  1.1179  1.1501
18687TIP3    H277553   2.791   3.945   3.385 -1.2166 -0.6418 -1.5143
18688TIP3   OH277554   3.093   5.114   3.983 -0.0612 -0.1344 -0.0417
18688TIP3    H177555   3.076   5.024   3.957  0.4486 -0.8438  2.0263
18688TIP3    H277556   3.174   5.138   3.938  0.0945 -0.8857 -0.1571
18689TIP3   OH277557   5.263   2.319   0.411 -0.5822 -0.4582  0.2220
18689TIP3    H177558   5.184   2.265   0.405 -1.8642  1.3927 -0.0935
18689TIP3    H277559   5.240   2.387   0.474  2.1535 -2.1087  3.1447
18690TIP3   OH277560   2.085   1.426  13.775  0.2568 -0.0342 -0.3945
18690TIP3    H177561   2.029   1.416  13.852  0.5801  0.3842 -0.1026
18690TIP3    H277562   2.119   1.338  13.758 -0.3964 -0.2645 -0.5030
18691TIP3   OH277563   6.495   1.768   5.661 -0.3110  0.1070  0.1638
18691TIP3    H177564   6.489   1.864   5.663  2.6173  0.3352  0.0749
18691TIP3    H277565   6.481   1.746   5.569  0.4606  0.5887 -0.0791
18692TIP3   OH277566   3.752   1.209   4.859 -0.0935 -0.4965 -0.4566
18692TIP3    H177567   3.818   1.144   4.885  0.0202 -0.7578 -1.4002
18692TIP3    H277568   3.689   1.159   4.806 -2.1405 -0.7096  2.0360
18693TIP3   OH277569   2.972   4.298  10.416  0.4587 -0.2039  0.6159
18693TIP3    H177570   2.923   4.236  10.470 -0.9385 -0.0564 -0.4584
18693TIP3    H277571   3.055   4.308  10.462  0.1136 -1.6859  1.6200
18694TIP3   OH277572   0.863   1.424  17.088  0.2787 -0.2211  0.1431
18694TIP3    H177573   0.780   1.450  17.049 -1.2992 -3.0524  1.5018
18694TIP3    H277574   0.856   1.451  17.180  1.5251  0.8874 -0.0509
18695TIP3   OH277575   2.181   1.767   3.100  0.1497 -0.5830 -0.7249
18695TIP3    H177576   2.232   1.774   3.019 -0.5730 -1.0258 -1.2192
18695TIP3    H277577   2.091   1.754   3.071 -0.0094 -1.4790  0.1620
18696TIP3   OH277578   0.083   6.356   3.352  0.1954 -0.2531  0.5403
18696TIP3    H177579   0.007   6.388   3.399 -0.7269 -1.7586  0.1163
18696TIP3    H277580   0.117   6.432   3.305 -1.4780  0.2676  0.1564
18697TIP3   OH277581   4.828   0.601   3.627 -0.3245  0.6182  0.0669
18697TIP3    H177582   4.920   0.575   3.621 -0.1984  0.7746  1.2124
18697TIP3    H277583   4.795   0.556   3.705 -1.0613  1.0297 -0.0021
18698TIP3   OH277584   3.116   1.624  10.336  0.0697 -0.3470  0.3612
18698TIP3    H177585   3.102   1.535  10.367 -0.8947  0.0889  1.1892
18698TIP3    H277586   3.210   1.640  10.350  0.5690 -1.7319 -1.1539
18699TIP3   OH277587   0.087   2.828  12.081  0.5711  0.2793 -0.3554
18699TIP3    H177588   0.058   2.891  12.015  0.2999  0.0862 -0.4217
18699TIP3    H277589   0.178   2.851  12.098  0.5458  0.5332 -0.5607
18700TIP3   OH277590   1.051   5.516   5.610  0.0041 -0.3003  0.3470
18700TIP3    H177591   1.139   5.491   5.636  0.2720  2.3696  2.1383
18700TIP3    H277592   1.055   5.525   5.515  0.7086 -3.6171 -0.0052
18701TIP3   OH277593   0.126   1.778  15.380  0.5484 -0.0468 -0.0576
18701TIP3    H177594   0.200   1.776  15.319  0.9504  0.1241  0.4135
18701TIP3    H277595   0.124   1.690  15.417  0.1878 -0.2048 -0.4544
18702TIP3   OH277596   2.924   5.690  11.732 -0.3118 -0.5494  0.2208
18702TIP3    H177597   2.906   5.638  11.654 -2.3370 -0.5768  0.6897
18702TIP3    H277598   2.924   5.781  11.700  0.7168 -0.6683 -0.1366
18703TIP3   OH277599   1.839   4.229  17.034 -0.6499  0.6451  0.3215
18703TIP3    H177600   1.747   4.205  17.028 -0.3151 -0.7696  0.6757
18703TIP3    H277601   1.840   4.305  17.092 -1.6109  0.8445  0.0897
18704TIP3   OH277602   6.413   6.099  12.356  0.1247  0.1515  0.1438
18704TIP3    H177603   6.508   6.097  12.345  0.0066 -0.2469 -0.8727
18704TIP3    H277604   6.393   6.020  12.406  0.3096  0.1870  0.2766
18705TIP3   OH277605   5.591   6.215  15.349  0.5201 -0.2149  0.3182
18705TIP3    H177606   5.541   6.260  15.280  0.9813 -0.4533 -0.1737
18705TIP3    H277607   5.663   6.275  15.369 -0.5601  0.6313  1.8046
18706TIP3   OH277608   4.440   1.343   2.428 -0.2826 -0.1827  0.9345
18706TIP3    H177609   4.462   1.377   2.341  0.9023 -1.3832  0.7441
18706TIP3    H277610   4.395   1.415   2.472 -0.8584  0.4461 -0.6646
18707TIP3   OH277611   1.464   5.017   0.161 -0.0123  0.4732 -0.0876
18707TIP3    H177612   1.518   4.938   0.151 -2.6856 -1.4599  0.3465
18707TIP3    H277613   1.449   5.024   0.255 -0.8964  0.7322 -0.2451
18708TIP3   OH277614   0.299   3.588  13.616 -0.0557  0.3477 -0.1989
18708TIP3    H177615   0.377   3.571  13.669  0.2734  0.0001 -0.7867
18708TIP3    H277616   0.237   3.629  13.676  0.8157  1.2176  0.1144
18709TIP3   OH277617   4.686   5.233   3.869 -0.3620  0.0419  0.3290
18709TIP3    H177618   4.755   5.251   3.806 -0.7897 -0.4255 -0.2755
18709TIP3    H277619   4.660   5.142   3.851 -3.0352  1.0829 -1.3176
18710TIP3   OH277620   1.334   1.979   1.003  0.4378 -0.1807 -0.3330
18710TIP3    H177621   1.256   1.939   0.965 -0.0893  0.2333  0.3238
18710TIP3    H277622   1.384   1.905   1.037 -1.0058 -0.2135  1.7697
18711TIP3   OH277623   5.159   4.717  16.889 -0.4167  0.1658 -0.1747
18711TIP3    H177624   5.147   4.622  16.898 -0.1506  0.1334 -0.1452
18711TIP3    H277625   5.239   4.735  16.937  0.4868  0.1363 -1.6240
18712TIP3   OH277626   6.795   4.013  16.975  0.6202 -0.0743  0.7560
18712TIP3    H177627   6.831   3.934  16.934  0.5238  0.8713 -1.2104
18712TIP3    H277628   6.701   3.999  16.975  0.4062  1.0908 -1.9282
18713TIP3   OH277629   3.733   5.960  15.711  0.0213  0.1752 -0.0249
18713TIP3    H177630   3.741   5.865  15.719 -0.0906  0.1527 -0.1793
18713TIP3    H277631   3.676   5.985  15.783  1.8386  0.3946  1.3508
18714TIP3   OH277632   1.046   1.722   0.561  0.3685  0.1209 -0.1742
18714TIP3    H177633   1.106   1.762   0.498  0.9909 -0.3021  0.1396
18714TIP3    H277634   0.995   1.795   0.595  0.3973  0.4266 -0.7800
18715TIP3   OH277635   1.220   0.964   1.843  0.6063  0.2986 -0.1601
18715TIP3    H177636   1.257   0.948   1.929 -2.0995 -1.1741  0.7686
18715TIP3    H277637   1.158   1.036   1.856 -1.8542 -1.7582 -0.2755
18716TIP3   OH277638   6.081   5.122  16.226 -0.9015 -0.5305  0.2083
18716TIP3    H177639   6.057   5.202  16.273 -0.6164  0.0425 -0.6177
18716TIP3    H277640   6.006   5.104  16.169  0.1865  0.6878 -1.6226
18717TIP3   OH277641   4.146   6.370   0.008 -0.6403  0.1706  0.0731
18717TIP3    H177642   4.232   6.376  -0.034 -0.7550 -1.8899 -0.4966
18717TIP3    H277643   4.095   6.440  -0.033 -0.0855 -0.4200 -1.6821
18718TIP3   OH277644   2.320   5.903  12.649 -0.5830 -0.2618 -0.2001
18718TIP3    H177645   2.317   5.831  12.585  2.9615 -0.5382 -0.1130
18718TIP3    H277646   2.288   5.863  12.730  1.9508 -1.9905  0.0116
18719TIP3   OH277647   4.600   0.962  11.504  0.0146 -0.6366  0.0570
18719TIP3    H177648   4.529   0.984  11.564  0.7060  0.3812  0.5198
18719TIP3    H277649   4.557   0.947  11.420 -0.7714 -0.2285  0.3830
18720TIP3   OH277650   0.015   4.794  16.679 -0.0548  0.1413  0.3423
18720TIP3    H177651  -0.065   4.801  16.627  0.1953  0.7276  0.0240
18720TIP3    H277652   0.030   4.700  16.688  0.2060  0.0162 -1.1343
18721TIP3   OH277653   2.784   3.184   5.916  0.3584  0.2283 -0.0751
18721TIP3    H177654   2.697   3.179   5.876  0.1917 -0.1972  0.3299
18721TIP3    H277655   2.796   3.098   5.956  0.3885  0.7691  1.0776
18722TIP3   OH277656   0.295   6.515  14.350  0.2954 -0.2908 -0.0424
18722TIP3    H177657   0.306   6.420  14.343  1.2623 -0.1014 -1.3255
18722TIP3    H277658   0.328   6.536  14.437  0.6036 -1.0630  0.0337
18723TIP3   OH277659   1.156   0.446   1.215  0.1542 -0.5636 -0.2552
18723TIP3    H177660   1.141   0.391   1.138 -1.5503 -1.5040  0.7227
18723TIP3    H277661   1.195   0.386   1.279 -1.1536 -0.5042  0.6080
18724TIP3   OH277662   0.514   0.561   0.946  0.0731  0.0099 -0.0867
18724TIP3    H177663   0.558   0.640   0.976  0.6570  0.0085 -0.9252
18724TIP3    H277664   0.579   0.516   0.892  0.2710 -1.8343  1.6485
18725TIP3   OH277665   3.063   1.745  15.870 -0.4521  0.0023 -0.3705
18725TIP3    H177666   3.117   1.781  15.799  0.7563  0.2627  0.6672
18725TIP3    H277667   3.125   1.729  15.941 -1.7081  0.0371  0.7413
18726TIP3   OH277668   2.454   6.367   5.402 -0.4909  0.0229  0.3780
18726TIP3    H177669   2.468   6.460   5.383  0.4177 -0.1199  0.3282
18726TIP3    H277670   2.424   6.364   5.492  0.5968  0.2832  0.7548
18727TIP3   OH277671   0.663   5.897  17.003  0.0317 -0.2821  0.1093
18727TIP3    H177672   0.720   5.958  17.050 -0.0115 -0.0936 -0.0811
18727TIP3    H277673   0.595   5.875  17.066 -0.6241  0.7985 -0.1965
18728TIP3   OH277674   6.047   3.682  16.336  0.2312 -0.5026  0.0967
18728TIP3    H177675   6.021   3.722  16.419  0.2364 -1.7050  0.6845
18728TIP3    H277676   6.080   3.595  16.360 -0.0938 -1.0007 -1.2004
18729TIP3   OH277677   6.240   6.807  13.601 -0.4612  0.1407  0.7638
18729TIP3    H177678   6.260   6.777  13.689  0.6339 -0.2091  0.3986
18729TIP3    H277679   6.144   6.815  13.600 -0.5356 -0.5485  1.7560
18730TIP3   OH277680   3.957   0.964  11.908  0.4865 -0.7227  0.4895
18730TIP3    H177681   3.969   0.875  11.876  0.6795 -0.2559 -0.7651
18730TIP3    H277682   3.871   0.963  11.951 -0.8826 -0.7752 -2.1769
18731TIP3   OH277683   5.563   2.346   1.983  0.4911  0.2443  0.3090
18731TIP3    H177684   5.603   2.274   2.032  0.5597  0.5483  0.7060
18731TIP3    H277685   5.524   2.305   1.906 -0.6243 -0.4044  1.2046
18732TIP3   OH277686   0.025   2.375   4.346  0.1654  0.3977  0.2864
18732TIP3    H177687   0.107   2.342   4.308 -0.5478 -0.2422 -0.7020
18732TIP3    H277688   0.013   2.461   4.305 -0.5515 -0.2495 -0.8882
18733TIP3   OH277689   6.379   1.832  11.222  0.0676  0.3689  0.4584
18733TIP3    H177690   6.396   1.812  11.129  0.7807 -0.9695  0.8602
18733TIP3    H277691   6.291   1.797  11.237 -0.4686  1.4957  0.0456
18734TIP3   OH277692   0.021   3.269   4.479  0.6501 -0.3216  0.2808
18734TIP3    H177693   0.015   3.286   4.386  0.8842 -0.0624  0.3114
18734TIP3    H277694   0.073   3.341   4.514  0.4303 -0.3307  0.6359
18735TIP3   OH277695   0.868   0.108  15.096 -0.6145 -0.3482 -0.2310
18735TIP3    H177696   0.940   0.156  15.055 -1.1788  1.0639  0.4070
18735TIP3    H277697   0.817   0.175  15.141 -0.7414 -1.7114  1.7082
18736TIP3   OH277698   1.896   1.031   1.178  0.8921  0.0984  0.3133
18736TIP3    H177699   1.924   0.988   1.098 -0.2873  0.8909 -0.5455
18736TIP3    H277700   1.908   0.965   1.246  0.6421 -1.0295 -0.7218
18737TIP3   OH277701   0.121   6.279  16.260  0.1780  0.0892 -0.0130
18737TIP3    H177702   0.171   6.201  16.236  1.2584  0.3007  1.4897
18737TIP3    H277703   0.153   6.346  16.200  0.1786 -0.3003 -0.4524
18738TIP3   OH277704   2.279   2.764   2.181 -0.0242  0.5455 -0.0546
18738TIP3    H177705   2.356   2.714   2.153  0.9554  1.8491  0.2581
18738TIP3    H277706   2.205   2.719   2.141  1.0061 -0.0866 -1.2698
18739TIP3   OH277707   4.907   0.850   4.620  0.2240 -0.3532 -0.7757
18739TIP3    H177708   4.952   0.875   4.540  1.8330  0.4928  0.3489
18739TIP3    H277709   4.968   0.791   4.665  0.8976  1.9296  1.4399
18740TIP3   OH277710   6.373   1.549  13.398  0.2259  0.1951  0.1256
18740TIP3    H177711   6.420   1.512  13.473 -3.1348 -0.1957  2.1160
18740TIP3    H277712   6.353   1.638  13.424  0.5208  0.6008 -1.0256
18741TIP3   OH277713   3.514   3.967   0.510  0.2521  0.2961  0.1769
18741TIP3    H177714   3.443   4.012   0.556 -0.3090  0.5736 -0.9374
18741TIP3    H277715   3.553   3.910   0.577 -1.5145 -0.4316  0.6320
18742TIP3   OH277716   6.109   1.778   2.419 -0.1192 -0.0087 -0.1857
18742TIP3    H177717   6.173   1.733   2.364 -0.7614 -1.3752  0.1687
18742TIP3    H277718   6.049   1.821   2.357 -0.7491 -1.4082 -0.5650
18743TIP3   OH277719   2.548   2.076   1.293 -0.0394  0.0683 -0.0417
18743TIP3    H177720   2.516   2.166   1.288  0.2065  0.1647  0.1068
18743TIP3    H277721   2.634   2.083   1.335  0.0521 -0.2188 -0.1791
18744TIP3   OH277722   5.535   2.471  16.219  0.0584  0.7179  0.3831
18744TIP3    H177723   5.496   2.556  16.240 -0.0394  0.7354  0.1387
18744TIP3    H277724   5.619   2.493  16.180  0.2195  0.6875  0.7131
18745TIP3   OH277725   6.313   2.644  15.279  0.2385  0.0412  0.0104
18745TIP3    H177726   6.381   2.679  15.336 -2.5308  1.8703  2.3087
18745TIP3    H277727   6.347   2.657  15.190  2.7595  1.0922  1.0831
18746TIP3   OH277728   1.293   3.452   3.144  0.5230  0.6866 -0.9709
18746TIP3    H177729   1.344   3.371   3.145 -0.1953  0.2276 -0.0046
18746TIP3    H277730   1.207   3.426   3.111  0.0601  0.9064  0.0506
18747TIP3   OH277731   4.418   1.765   5.687 -0.2567 -0.2858 -0.5607
18747TIP3    H177732   4.417   1.857   5.659 -0.8498  0.7845  2.8018
18747TIP3    H277733   4.508   1.749   5.714 -0.0894 -0.8243 -1.3873
18748TIP3   OH277734   0.153   2.405  14.002  0.5712 -0.1170  0.6288
18748TIP3    H177735   0.247   2.399  14.021  0.8816 -0.8088 -1.0506
18748TIP3    H277736   0.147   2.387  13.908 -1.2018  0.3825  0.6439
18749TIP3   OH277737   2.303   2.963   0.425 -0.3141  0.1422 -0.0158
18749TIP3    H177738   2.264   3.050   0.412 -0.1472  0.3673  0.9737
18749TIP3    H277739   2.287   2.918   0.342 -0.4991  1.0764 -0.5010
18750TIP3   OH277740   0.831   5.814  14.990 -0.0566 -0.0448 -0.1918
18750TIP3    H177741   0.853   5.871  15.064  0.1501 -0.5193  0.1095
18750TIP3    H277742   0.802   5.732  15.030 -1.4470  0.2294 -0.6031
18751TIP3   OH277743   5.801   3.085   3.624 -0.4658 -0.4316 -0.1019
18751TIP3    H177744   5.719   3.135   3.621 -0.9451 -1.2376 -0.5850
18751TIP3    H277745   5.861   3.133   3.566 -0.6846 -0.0078  0.0200
18752TIP3   OH277746   2.036   3.231  16.832  0.1866  0.1997 -0.7061
18752TIP3    H177747   2.058   3.249  16.924  0.3559 -2.5666 -0.1699
18752TIP3    H277748   2.072   3.306  16.784  0.1815  1.6312  1.4604
18753TIP3   OH277749   6.245   1.606   3.629 -0.2970 -0.6903  0.0852
18753TIP3    H177750   6.301   1.646   3.696 -1.0059 -1.3772  1.0945
18753TIP3    H277751   6.287   1.523   3.608 -0.8424 -1.1290  0.7200
18754TIP3   OH277752   2.860   3.886  11.765  0.2675 -0.4897  0.0545
18754TIP3    H177753   2.814   3.821  11.818 -1.2664 -0.7118 -1.4859
18754TIP3    H277754   2.831   3.971  11.801 -0.4242 -0.6398 -0.1369
18755TIP3   OH277755   2.482   2.070   3.459  0.6434  0.1439 -0.7961
18755TIP3    H177756   2.541   2.029   3.523 -0.0248 -1.0681 -0.9386
18755TIP3    H277757   2.445   2.145   3.505  0.6513 -0.3479  0.0200
18756TIP3   OH277758   4.016   0.312  15.877 -0.7175 -0.5816 -0.5325
18756TIP3    H177759   3.958   0.286  15.806 -1.3172  0.6493 -0.4981
18756TIP3    H277760   3.975   0.389  15.915 -0.9596 -1.7907  1.7999
18757TIP3   OH277761   5.564   5.774  16.981 -0.0259 -0.1843  0.0505
18757TIP3    H177762   5.530   5.756  16.893 -2.1404  1.1225  0.5720
18757TIP3    H277763   5.606   5.859  16.973  0.0741 -0.2179  0.2289
18758TIP3   OH277764   6.773   3.312   5.814  0.3248  0.1056  0.7345
18758TIP3    H177765   6.761   3.271   5.728  1.3425 -1.6070  1.3778
18758TIP3    H277766   6.791   3.404   5.795 -1.8728  0.2550 -0.7586
18759TIP3   OH277767   5.403   6.134  16.833 -0.1159 -0.0739 -0.3557
18759TIP3    H177768   5.330   6.072  16.837 -0.4084  0.3594  1.1176
18759TIP3    H277769   5.360   6.220  16.824  0.2282  0.1250 -0.1037
18760TIP3   OH277770   5.534   1.884  10.484 -0.6422 -0.7554  0.5130
18760TIP3    H177771   5.579   1.802  10.463  0.3834 -0.1100  0.1786
18760TIP3    H277772   5.441   1.863  10.475 -0.3779 -1.8178  0.2061
18761TIP3   OH277773   5.668   4.869  16.558  0.0361 -0.1057  0.0762
18761TIP3    H177774   5.707   4.910  16.635  1.0711  0.4802 -0.7513
18761TIP3    H277775   5.731   4.803  16.530 -0.0479  0.1173 -0.6529
18762TIP3   OH277776   5.820   1.008   2.887  0.1311  0.2607 -0.1943
18762TIP3    H177777   5.817   0.921   2.926  1.3284 -0.6823 -2.1338
18762TIP3    H277778   5.913   1.032   2.890 -0.2126  1.5334  0.4524
18763TIP3   OH277779   0.653   2.323  11.423  0.0815  0.1612 -0.3006
18763TIP3    H177780   0.640   2.417  11.409 -0.6366  0.2191  0.7198
18763TIP3    H277781   0.649   2.285  11.335  0.6491  1.1106 -0.7478
18764TIP3   OH277782   1.706   5.525   2.124  0.4720  0.1191  0.3838
18764TIP3    H177783   1.646   5.451   2.113  0.6100  0.0853 -0.1354
18764TIP3    H277784   1.660   5.600   2.086  1.1591 -0.1014 -0.9171
18765TIP3   OH277785   4.011   5.582   4.337 -0.0626 -0.3725  0.9313
18765TIP3    H177786   4.044   5.508   4.388 -0.4567  1.6989  4.2871
18765TIP3    H277787   3.916   5.581   4.351 -0.1269  0.4543  0.5726
18766TIP3   OH277788   5.692   6.683   2.013 -0.4167 -0.1710  1.2619
18766TIP3    H177789   5.732   6.764   2.045  1.1805  0.4283 -2.0409
18766TIP3    H277790   5.746   6.613   2.049  0.8032  0.4346  0.6301
18767TIP3   OH277791   3.678   0.509   0.776  0.0098 -0.3647 -0.0939
18767TIP3    H177792   3.733   0.430   0.783  0.3561 -0.2114 -1.0133
18767TIP3    H277793   3.727   0.576   0.824 -1.7255 -1.4373  3.3187
18768TIP3   OH277794   5.766   1.058  13.740  0.4070  0.0500 -0.1916
18768TIP3    H177795   5.766   1.119  13.666 -0.3327  1.3455  0.8385
18768TIP3    H277796   5.696   0.996  13.719  0.4776  0.1585 -0.7703
18769TIP3   OH277797   1.640   5.662   4.476 -0.4408 -0.2576  0.4467
18769TIP3    H177798   1.725   5.651   4.433  0.2493 -2.1965  2.2008
18769TIP3    H277799   1.595   5.728   4.424  0.9841 -1.3393 -2.2628
18770TIP3   OH277800   3.632   2.545   2.341  0.0614  0.6826  0.3155
18770TIP3    H177801   3.677   2.507   2.266 -2.0116  0.6366 -0.9326
18770TIP3    H277802   3.702   2.565   2.403  1.7053 -0.1797 -1.2153
18771TIP3   OH277803   6.077   2.075   5.628  0.1439  0.3879 -0.5741
18771TIP3    H177804   6.044   2.047   5.543  0.1593  2.8092 -1.4364
18771TIP3    H277805   6.085   2.170   5.620  2.1681  0.4390  1.4196
18772TIP3   OH277806   2.756   3.716  13.084 -0.3356  0.0036 -0.6738
18772TIP3    H177807   2.697   3.791  13.097  0.2036  0.4336 -0.6672
18772TIP3    H277808   2.698   3.641  13.073 -0.8658  0.2670  0.2963
18773TIP3   OH277809   0.005   0.732  13.453  0.1631 -0.8346 -0.4531
18773TIP3    H177810   0.090   0.773  13.437  0.0225 -0.4820 -0.2964
18773TIP3    H277811  -0.032   0.718  13.366 -0.5184  0.9083 -0.4623
18774TIP3   OH277812   1.932   5.962   1.219  0.0887 -0.3894  0.1170
18774TIP3    H177813   1.920   5.898   1.148 -0.1279 -1.8096  1.4186
18774TIP3    H277814   1.955   6.043   1.174  1.2021 -1.5812 -1.5369
18775TIP3   OH277815   4.281   3.082   1.171 -0.4493  0.5670  0.1740
18775TIP3    H177816   4.234   3.135   1.107  0.6929  1.9350  0.4561
18775TIP3    H277817   4.369   3.119   1.174  0.0697 -0.6873  1.1417
18776TIP3   OH277818   2.842   3.995   1.154  0.2755 -0.3241  0.1955
18776TIP3    H177819   2.768   4.022   1.100  1.3614  1.0442 -0.6220
18776TIP3    H277820   2.857   3.904   1.129 -0.7717 -0.4425 -0.0349
18777TIP3   OH277821   1.650   4.598   6.034  0.4818 -0.6433  0.1125
18777TIP3    H177822   1.638   4.634   6.122 -3.2894  2.4725 -1.5148
18777TIP3    H277823   1.745   4.602   6.019  0.8691  2.0683  2.7502
18778TIP3   OH277824   4.201   1.969   5.412 -0.1118  0.6000  0.0077
18778TIP3    H177825   4.253   1.940   5.487 -2.6292  0.0208  1.5729
18778TIP3    H277826   4.216   2.064   5.409  1.1410  0.4197  0.3560
18779TIP3   OH277827   4.921   0.014  15.692  0.8334 -0.6183  0.1221
18779TIP3    H177828   4.862   0.023  15.618  1.1813 -1.3500 -0.2515
18779TIP3    H277829   4.963  -0.071  15.679 -0.8503 -1.8384  2.4147
18780TIP3   OH277830   1.297   3.998   5.576 -0.1544  0.0489  0.3855
18780TIP3    H177831   1.371   3.941   5.599 -1.2708 -1.7777 -0.4764
18780TIP3    H277832   1.295   4.063   5.647  2.7434  0.6074  0.0270
18781TIP3   OH277833   5.857   5.799   0.784 -0.3490 -0.1994  0.3158
18781TIP3    H177834   5.771   5.761   0.801 -1.2913  1.5990 -0.3162
18781TIP3    H277835   5.918   5.738   0.825 -1.8578 -1.9476  0.0346
18782TIP3   OH277836   6.361   5.025  17.188 -0.3183  0.4398 -0.0379
18782TIP3    H177837   6.308   5.021  17.267 -0.3122 -0.8900 -0.0858
18782TIP3    H277838   6.437   5.077  17.212 -0.9655  1.1814  0.4303
18783TIP3   OH277839   3.262   5.601  15.168 -0.3799  0.4633 -0.1726
18783TIP3    H177840   3.321   5.527  15.184 -0.7977  0.1509 -0.0706
18783TIP3    H277841   3.288   5.634  15.082  1.5147  1.8059  0.8527
18784TIP3   OH277842   5.797   1.520   5.901  0.3625  0.0963  0.2452
18784TIP3    H177843   5.809   1.426   5.887 -0.2197  0.3707 -2.3527
18784TIP3    H277844   5.886   1.556   5.900  0.5739 -0.4098  1.0439
18785TIP3   OH277845   2.359   6.569   5.684  0.1276  0.2393 -0.2959
18785TIP3    H177846   2.368   6.474   5.689 -0.2341  0.2609  0.8602
18785TIP3    H277847   2.264   6.583   5.676  0.2787  0.4500 -1.8485
18786TIP3   OH277848   0.363   3.046   2.099  0.1347 -0.3775  0.4739
18786TIP3    H177849   0.419   3.099   2.156 -2.3525  1.8702  0.9140
18786TIP3    H277850   0.419   3.022   2.025  2.0039  0.7648  1.4991
18787TIP3   OH277851   6.303   5.134   1.431 -0.3438  0.1372  0.1923
18787TIP3    H177852   6.327   5.053   1.476 -0.3718 -0.7121 -1.2730
18787TIP3    H277853   6.245   5.180   1.492  1.4551  0.1252  1.9584
18788TIP3   OH277854   1.573   5.280  11.845 -0.5415  0.0800  0.5661
18788TIP3    H177855   1.501   5.323  11.891 -1.3428 -0.7153  0.0812
18788TIP3    H277856   1.537   5.195  11.820  0.1984  0.1398 -0.7151
18789TIP3   OH277857   4.501   4.499  13.171 -0.1966 -0.3517 -0.0724
18789TIP3    H177858   4.550   4.511  13.253 -0.8269  1.4233  0.0570
18789TIP3    H277859   4.499   4.586  13.131 -0.3886 -1.0959 -1.7115
18790TIP3   OH277860   0.895   5.149  13.516  0.3472 -0.0470 -0.4603
18790TIP3    H177861   0.977   5.118  13.553  0.1792 -0.2028 -0.2202
18790TIP3    H277862   0.857   5.071  13.474  0.6814  0.1934 -1.2275
18791TIP3   OH277863   4.910   5.822   3.566  0.3457  0.5038  0.4372
18791TIP3    H177864   4.954   5.876   3.501  1.0939  0.6383  1.0560
18791TIP3    H277865   4.818   5.823   3.538  0.4888  1.3842 -0.0499
18792TIP3   OH277866   3.062   5.226   4.788  0.3587  0.2103 -0.4493
18792TIP3    H177867   3.010   5.152   4.757  0.9780 -0.0901 -0.7808
18792TIP3    H277868   3.041   5.234   4.881  0.2543 -0.3468 -0.4271
18793TIP3   OH277869   1.104   5.967   1.578 -0.3062 -0.1751 -0.0911
18793TIP3    H177870   1.140   5.998   1.494 -3.2701  0.7512 -1.0963
18793TIP3    H277871   1.067   5.881   1.558 -0.2081 -0.3564  0.4975
18794TIP3   OH277872   6.069   4.127   3.072 -0.5989  0.1677  0.3373
18794TIP3    H177873   6.068   4.079   3.154  0.1990 -1.6104 -0.6543
18794TIP3    H277874   6.144   4.092   3.025  0.0556  2.4596 -0.4066
18795TIP3   OH277875   2.052   4.882  12.360  0.1364 -0.1247  0.2111
18795TIP3    H177876   2.144   4.894  12.383  0.9412 -2.0392 -1.8048
18795TIP3    H277877   2.026   4.966  12.323  0.3329  1.2248  3.0111
18796TIP3   OH277878   1.710   3.171  12.868  0.5464 -0.1580 -0.8378
18796TIP3    H177879   1.737   3.174  12.960  1.3007  1.3655 -1.0946
18796TIP3    H277880   1.713   3.262  12.839 -2.6603 -0.2290 -1.5447
18797TIP3   OH277881   4.767   4.780  12.580 -0.1969  0.3431 -0.3629
18797TIP3    H177882   4.812   4.817  12.656  2.1543 -0.9253 -1.0862
18797TIP3    H277883   4.708   4.714  12.616  2.4148 -1.7281  0.2429
18798TIP3   OH277884   6.618   4.799  16.500 -0.1509  0.1094 -0.3962
18798TIP3    H177885   6.599   4.877  16.448  0.1195 -0.7145 -1.7445
18798TIP3    H277886   6.541   4.744  16.488 -0.4482  0.2480  0.7515
18799TIP3   OH277887   3.752   0.067  13.403  0.1508  0.2056 -0.1879
18799TIP3    H177888   3.741   0.014  13.324  2.8009 -1.2225  0.3401
18799TIP3    H277889   3.821   0.130  13.381  0.7643 -0.0653  0.8896
18800TIP3   OH277890   3.924   6.713  14.298 -0.0600 -0.3224  0.1047
18800TIP3    H177891   3.986   6.767  14.345  1.4287 -3.0938  1.4249
18800TIP3    H277892   3.968   6.691  14.216 -0.1221 -0.6471  0.1569
18801TIP3   OH277893   5.487   5.624   5.225 -0.3257  0.3105  0.1025
18801TIP3    H177894   5.449   5.614   5.312 -0.3001 -0.8354 -0.0150
18801TIP3    H277895   5.555   5.557   5.220 -0.0473  0.6361 -0.6550
18802TIP3   OH277896   4.805   4.769  14.813 -0.2326 -0.5226 -0.1987
18802TIP3    H177897   4.840   4.755  14.901  0.5566 -3.3711 -0.9011
18802TIP3    H277898   4.882   4.782  14.758 -0.5804 -1.1530 -0.8460
18803TIP3   OH277899   3.064   2.496  16.623 -0.3239  0.6555  0.3286
18803TIP3    H177900   3.108   2.564  16.572 -2.4594  1.3732 -0.6524
18803TIP3    H277901   3.005   2.454  16.559  0.6807 -1.8511  1.0186
18804TIP3   OH277902   0.422   3.446  13.335 -0.5805 -0.0482 -0.3074
18804TIP3    H177903   0.416   3.354  13.310 -0.5906 -0.2965  0.6064
18804TIP3    H277904   0.382   3.450  13.422  1.6544  0.3745  0.7189
18805TIP3   OH277905   3.616   6.502  16.771 -0.0699 -0.2843  0.2733
18805TIP3    H177906   3.641   6.545  16.853  1.7496  0.1114 -0.4665
18805TIP3    H277907   3.691   6.446  16.749 -1.5656 -2.3077  0.1592
18806TIP3   OH277908   4.216   0.162  12.389 -0.4604 -0.7250 -0.5888
18806TIP3    H177909   4.137   0.170  12.336 -0.5462 -1.6663 -0.6100
18806TIP3    H277910   4.185   0.134  12.475 -0.2451 -0.0263 -0.2814
18807TIP3   OH277911   6.736   5.100   5.322 -0.4053 -0.1243  0.1537
18807TIP3    H177912   6.742   5.132   5.412  0.3579 -2.1378  0.8463
18807TIP3    H277913   6.811   5.138   5.278 -0.5486  0.5387  0.4735
18808TIP3   OH277914   2.126   2.580   1.536 -0.1731 -0.1535  1.0751
18808TIP3    H177915   2.162   2.548   1.453 -1.4491  0.8939  0.0986
18808TIP3    H277916   2.043   2.533   1.546  0.0752 -0.4349  1.8728
18809TIP3   OH277917   5.532   6.447  14.044 -0.1140  0.1572  0.1368
18809TIP3    H177918   5.450   6.495  14.031 -0.3408  0.1269  1.3965
18809TIP3    H277919   5.541   6.440  14.139  0.7250 -0.9122 -0.0090
18810TIP3   OH277920   0.583   2.224  14.392 -0.3408  0.0247  0.1051
18810TIP3    H177921   0.573   2.134  14.361 -1.0647  0.6397 -1.4816
18810TIP3    H277922   0.677   2.239  14.394 -0.2080 -0.8055  0.5138
18811TIP3   OH277923   0.002   1.231  11.404  0.1253  0.2370 -0.6152
18811TIP3    H177924  -0.003   1.245  11.310 -2.0458  2.2750 -0.2518
18811TIP3    H277925  -0.061   1.160  11.422  0.5849 -0.1944 -0.6986
18812TIP3   OH277926   4.005   5.398  12.588  0.1137 -0.1150 -0.2725
18812TIP3    H177927   4.079   5.414  12.529 -0.8464  1.9933 -0.9226
18812TIP3    H277928   3.931   5.380  12.530 -0.3182 -0.3363  0.3453
18813TIP3   OH277929   4.195   2.130  15.149 -1.0122  0.3495  0.4254
18813TIP3    H177930   4.104   2.100  15.157 -1.1990  0.3447 -1.4984
18813TIP3    H277931   4.187   2.222  15.126 -0.5117  0.4257  0.5582
18814TIP3   OH277932   3.565   0.098   4.653  0.5753  0.0050  0.6979
18814TIP3    H177933   3.473   0.083   4.631  0.9108 -0.9820 -0.0646
18814TIP3    H277934   3.602   0.135   4.572  0.9190  0.1008  0.9018
18815TIP3   OH277935   5.624   2.785   5.504  0.9187  0.3791  0.1576
18815TIP3    H177936   5.648   2.713   5.562 -1.6973 -1.6715 -1.1966
18815TIP3    H277937   5.587   2.852   5.562 -0.3380 -1.0645  1.0606
18816TIP3   OH277938   6.192   2.838   0.814 -0.4196  0.0012  0.3853
18816TIP3    H177939   6.131   2.911   0.820 -1.0670 -0.4916 -0.1563
18816TIP3    H277940   6.138   2.763   0.792  0.4015 -0.3953 -0.3517
18817TIP3   OH277941   2.637   2.442   2.410  0.0659  0.3545 -0.5842
18817TIP3    H177942   2.613   2.501   2.481 -0.1023 -1.2918  0.7539
18817TIP3    H277943   2.714   2.395   2.443 -1.4795 -2.1642 -0.4800
18818TIP3   OH277944   4.347   6.018   6.206 -0.2539 -0.9078 -0.0705
18818TIP3    H177945   4.287   6.023   6.280  0.3908 -1.7535  0.5119
18818TIP3    H277946   4.318   5.942   6.156  0.6925 -1.6697  0.5322
18819TIP3   OH277947   0.590   1.886  11.567 -0.5888 -0.1844  0.0396
18819TIP3    H177948   0.571   1.975  11.596  2.0128  0.4928 -0.2366
18819TIP3    H277949   0.535   1.874  11.489 -3.0377  0.1408  1.6595
18820TIP3   OH277950   1.589   3.947   4.432 -0.2042 -0.0419 -0.0795
18820TIP3    H177951   1.554   3.858   4.441  0.6575 -0.4482 -0.6585
18820TIP3    H277952   1.524   4.003   4.474 -1.0850 -0.8820 -0.3036
18821TIP3   OH277953   5.008   2.125   5.668  0.2040  0.0389  0.4418
18821TIP3    H177954   4.942   2.192   5.682  0.0338 -0.3293  1.4600
18821TIP3    H277955   5.071   2.166   5.609 -1.4903 -0.0027 -1.4355
18822TIP3   OH277956   3.470   2.552   2.595 -0.3118  0.4604 -0.6538
18822TIP3    H177957   3.376   2.545   2.580  0.0309 -1.0578 -2.3579
18822TIP3    H277958   3.509   2.531   2.510  1.5703  0.8322  0.0889
18823TIP3   OH277959   3.382   4.715  15.415 -0.5071  0.4732 -0.0086
18823TIP3    H177960   3.344   4.637  15.377  0.3385 -0.6306  1.3631
18823TIP3    H277961   3.477   4.705  15.401 -0.0797 -0.5109  3.3668
18824TIP3   OH277962   6.082   5.302   4.958 -0.1401 -0.7507  0.8411
18824TIP3    H177963   6.054   5.391   4.935  0.8469 -0.4969  0.5629
18824TIP3    H277964   6.097   5.260   4.873  0.7410 -0.7339  0.9857
18825TIP3   OH277965   0.350   0.711  14.548  0.2242  0.2245  0.5180
18825TIP3    H177966   0.419   0.730  14.612  0.5854 -0.9441  0.4864
18825TIP3    H277967   0.329   0.796  14.510  0.8116  0.7654  1.3765
18826TIP3   OH277968   1.684   4.151   0.770 -0.0844 -0.6264 -0.1275
18826TIP3    H177969   1.635   4.069   0.775  1.3422 -1.6040 -1.4952
18826TIP3    H277970   1.619   4.217   0.748 -0.7796 -1.9274 -2.1294
18827TIP3   OH277971   3.843   3.410   5.103 -0.2401  0.1786  0.2905
18827TIP3    H177972   3.754   3.424   5.135 -1.0140 -1.7112 -0.9640
18827TIP3    H277973   3.848   3.460   5.022 -0.4758 -0.5092 -0.1476
18828TIP3   OH277974   4.205   6.651   4.084  0.0938 -0.1134 -0.3452
18828TIP3    H177975   4.185   6.732   4.038 -1.6072 -0.5876 -0.4879
18828TIP3    H277976   4.220   6.679   4.175 -0.8049  0.3403 -0.3235
18829TIP3   OH277977   1.068   4.359   5.231  0.0663 -0.7179 -0.2940
18829TIP3    H177978   1.147   4.411   5.246  1.1270 -2.0042 -1.3169
18829TIP3    H277979   1.062   4.302   5.307 -1.2163  0.9904  0.9342
18830TIP3   OH277980   6.127   3.043   4.475 -0.1539 -0.1019 -0.6225
18830TIP3    H177981   6.162   3.130   4.492 -0.4519 -0.1329  0.1851
18830TIP3    H277982   6.045   3.059   4.429 -0.1529  0.0434 -0.5729
18831TIP3   OH277983   2.264   0.757  13.073 -0.0191 -0.4793  0.1355
18831TIP3    H177984   2.176   0.794  13.074 -1.2683 -3.3037  0.1191
18831TIP3    H277985   2.277   0.725  12.984  0.7789 -0.5998  0.2836
18832TIP3   OH277986   0.666   3.829   1.906  0.3012 -0.4715 -0.0302
18832TIP3    H177987   0.624   3.890   1.968 -1.4434  0.2617 -1.8661
18832TIP3    H277988   0.753   3.866   1.892  0.1938  0.1568  0.8901
18833TIP3   OH277989   2.339   6.072  11.824 -0.0327 -0.0481 -0.0311
18833TIP3    H177990   2.407   6.138  11.809 -0.9442  0.8900 -0.0964
18833TIP3    H277991   2.386   5.996  11.858  1.0540  0.5755 -0.1274
18834TIP3   OH277992   6.556   1.928  16.696  0.6312 -0.1939 -0.1210
18834TIP3    H177993   6.640   1.958  16.731  0.5083 -0.8741  0.7697
18834TIP3    H277994   6.542   1.982  16.618  1.5035  0.4839  0.1835
18835TIP3   OH277995   4.993   3.682   1.795 -1.0177  0.6543 -0.0150
18835TIP3    H177996   5.037   3.627   1.859  1.0843  0.6174 -1.4448
18835TIP3    H277997   5.034   3.769   1.805 -0.6411  0.6319 -1.3201
18836TIP3   OH277998   5.663   2.246   4.609 -0.1793 -0.7423  0.2810
18836TIP3    H177999   5.570   2.223   4.603 -0.2082 -0.4330 -0.5782
18836TIP3    H278000   5.668   2.304   4.685 -0.3731 -2.2515  1.4744
18837TIP3   OH278001   3.849   3.034  14.323  0.4974 -0.0757 -0.1110
18837TIP3    H178002   3.927   3.089  14.316 -0.8082  1.9873  1.0511
18837TIP3    H278003   3.873   2.966  14.385  1.0061  1.3066  1.2569
18838TIP3   OH278004   5.489   1.068   5.343 -0.3591 -0.2196 -0.2454
18838TIP3    H178005   5.404   1.111   5.355 -0.1659 -0.0917  0.6415
18838TIP3    H278006   5.516   1.042   5.431 -0.3683 -1.9665 -0.7396
18839TIP3   OH278007   5.225   0.582  15.525 -0.1350  0.4322  0.1975
18839TIP3    H178008   5.208   0.520  15.597 -0.8020  2.1577  1.5804
18839TIP3    H278009   5.140   0.623  15.509  0.4639  1.5549 -0.1561
18840TIP3   OH278010   5.026   2.176   0.477 -0.0680  0.6111  0.2894
18840TIP3    H178011   4.975   2.204   0.401  0.1963  1.8321  0.5583
18840TIP3    H278012   4.960   2.163   0.546 -0.0554  1.8494  0.5368
18841TIP3   OH278013   1.897   6.471   6.050  0.3348  0.1589  0.0293
18841TIP3    H178014   1.835   6.399   6.037  0.0535  0.4725 -0.3667
18841TIP3    H278015   1.974   6.429   6.090 -0.1175 -0.2278  0.4929
18842TIP3   OH278016   5.394   1.263  14.424  0.2559  0.0725  0.9889
18842TIP3    H178017   5.322   1.294  14.479  1.1936  3.9847  0.1486
18842TIP3    H278018   5.471   1.264  14.481 -0.0590 -3.0335  1.5716
18843TIP3   OH278019   5.203   5.000   4.388 -0.2867 -0.0074  0.0482
18843TIP3    H178020   5.247   5.084   4.397  1.2755 -0.7909 -0.0776
18843TIP3    H278021   5.176   4.996   4.296  1.9428 -0.7333 -0.5984
18844TIP3   OH278022   6.030   0.641   2.682  0.1290  0.0286 -0.2701
18844TIP3    H178023   6.039   0.638   2.587 -0.7259  0.4962 -0.3696
18844TIP3    H278024   6.026   0.735   2.703  2.2013 -0.0079  0.4162
18845TIP3   OH278025   6.805   5.831  10.808 -0.4394  0.4890 -0.1211
18845TIP3    H178026   6.763   5.834  10.722  0.7504 -1.3548 -0.8025
18845TIP3    H278027   6.898   5.843  10.789  0.0436 -1.8151  0.6946
18846TIP3   OH278028   1.434   2.786  12.268 -0.0832  0.3064 -0.3138
18846TIP3    H178029   1.480   2.849  12.324 -0.4964 -1.0780  1.6519
18846TIP3    H278030   1.342   2.794  12.295 -0.1750 -0.9017 -0.2688
18847TIP3   OH278031   3.596   1.169  15.674 -0.6479 -0.1629 -0.3761
18847TIP3    H178032   3.641   1.232  15.617  1.5432 -1.7528 -0.4570
18847TIP3    H278033   3.656   1.155  15.747 -1.4190 -1.6085 -0.0061
18848TIP3   OH278034   4.756   1.947  16.625 -0.2713 -0.4163  0.4087
18848TIP3    H178035   4.843   1.938  16.587 -0.1587  0.8283  0.3389
18848TIP3    H278036   4.770   1.941  16.720 -0.1386 -0.4537  0.3844
18849TIP3   OH278037   4.110   3.857  16.246 -0.4016 -0.0454  0.7076
18849TIP3    H178038   4.087   3.860  16.339  0.2686 -3.0210  1.0139
18849TIP3    H278039   4.205   3.870  16.244 -0.4537  0.3030  0.4015
18850TIP3   OH278040   5.341   2.354   0.738  0.2260  0.0325  0.6521
18850TIP3    H178041   5.339   2.447   0.717  1.9688 -0.3612 -1.4438
18850TIP3    H278042   5.409   2.318   0.681  1.1881 -2.1280  3.0431
18851TIP3   OH278043   4.274   2.400  15.693  0.2869 -0.4477 -0.6838
18851TIP3    H178044   4.255   2.310  15.665 -0.6672 -0.5115  0.1341
18851TIP3    H278045   4.251   2.401  15.786  0.7470  0.5173 -0.5783
18852TIP3   OH278046   5.617   5.202  16.678 -0.8521 -0.4104  0.0926
18852TIP3    H178047   5.663   5.283  16.655 -0.6117 -0.1301  1.4873
18852TIP3    H278048   5.675   5.158  16.739 -1.3741 -1.2216  0.0148
18853TIP3   OH278049   3.469   5.474   3.509 -0.3636  0.3680 -0.4714
18853TIP3    H178050   3.562   5.498   3.504 -0.1839  0.1819  1.5361
18853TIP3    H278051   3.437   5.484   3.419  1.6194  0.3430 -1.2096
18854TIP3   OH278052   0.077   0.976   4.035  0.0158  0.4887  0.0719
18854TIP3    H178053   0.151   0.952   4.090 -1.4802  3.0390  3.3725
18854TIP3    H278054   0.017   0.902   4.042 -0.2786  0.9078  2.1524
18855TIP3   OH278055   3.938   1.013   0.296  0.0545 -0.4414  0.0621
18855TIP3    H178056   3.883   1.064   0.237  0.9125  1.9945  1.2932
18855TIP3    H278057   4.025   1.014   0.255  0.7397  1.5679  1.4770
18856TIP3   OH278058   3.921   2.013  15.104  0.4886  0.0133  0.3394
18856TIP3    H178059   3.972   2.013  15.022  0.6238  0.4954  0.4204
18856TIP3    H278060   3.875   1.930  15.103  1.7973 -0.7345  0.5832
18857TIP3   OH278061   5.714   3.691  13.327 -0.3765 -0.5199 -0.0709
18857TIP3    H178062   5.755   3.653  13.249 -0.6008  0.6481 -0.7755
18857TIP3    H278063   5.656   3.758  13.292 -1.8847 -1.2386  0.9917
18858TIP3   OH278064   5.250   4.906   0.816  0.0521 -0.3269 -0.0480
18858TIP3    H178065   5.291   4.834   0.866 -0.3323 -0.4026  0.1652
18858TIP3    H278066   5.249   4.875   0.726 -0.1954 -0.6344  0.0576
18859TIP3   OH278067   5.681   0.507  13.337 -0.0196 -0.0108 -0.1060
18859TIP3    H178068   5.752   0.538  13.394  0.1989 -0.5926 -0.0634
18859TIP3    H278069   5.677   0.413  13.352  0.9332 -0.3830 -2.0663
18860TIP3   OH278070   2.687   4.676  11.937  0.3182  0.2700  0.1775
18860TIP3    H178071   2.668   4.583  11.930 -0.7145  0.5026 -0.1696
18860TIP3    H278072   2.671   4.697  12.029 -1.9019  0.6319 -0.2831
18861TIP3   OH278073   3.419   0.119   3.508  0.5853  0.7751  0.1077
18861TIP3    H178074   3.361   0.146   3.579  1.5347  1.7470  0.5406
18861TIP3    H278075   3.408   0.024   3.503  1.1494  0.5555  2.1652
18862TIP3   OH278076   0.349   1.045  12.827  0.2323  0.2445  0.3414
18862TIP3    H178077   0.270   1.031  12.775 -1.3239 -0.4869  2.8502
18862TIP3    H278078   0.412   0.983  12.792 -1.4533 -1.6946  0.6309
18863TIP3   OH278079   0.164   2.076   1.133 -0.0642  0.2290  0.2472
18863TIP3    H178080   0.232   2.017   1.165  0.1160  0.1722 -0.2406
18863TIP3    H278081   0.098   2.077   1.202  0.7974  0.9024  1.0741
18864TIP3   OH278082   1.180   6.787  16.142 -0.1021 -0.2166  0.3150
18864TIP3    H178083   1.211   6.723  16.206  1.5479 -0.5450 -0.7820
18864TIP3    H278084   1.103   6.827  16.184  1.3698  0.1082  2.8197
18865TIP3   OH278085   5.469   0.845   3.356 -0.2688  0.3921  0.3858
18865TIP3    H178086   5.516   0.885   3.282  0.0210 -1.0647 -0.2236
18865TIP3    H278087   5.382   0.885   3.354 -0.7156 -0.6292 -1.5835
18866TIP3   OH278088   3.342   4.576  16.217  0.0061 -0.0744 -0.4138
18866TIP3    H178089   3.407   4.582  16.288 -1.7913 -0.7991  1.3261
18866TIP3    H278090   3.272   4.635  16.243  0.3068  1.3678 -2.7175
18867TIP3   OH278091   4.974   3.241   3.426  0.5197 -0.1290 -0.2533
18867TIP3    H178092   4.882   3.219   3.441  0.7154 -0.0941  1.0700
18867TIP3    H278093   5.011   3.250   3.514  1.4025  1.4592 -0.7643
18868TIP3   OH278094   4.939   5.282   1.214 -0.0316 -0.4542  0.0999
18868TIP3    H178095   4.855   5.241   1.195  0.0942 -1.4918  1.6304
18868TIP3    H278096   4.993   5.264   1.137 -0.8272 -0.8801 -0.3542
18869TIP3   OH278097   6.171   0.888   6.706 -0.4632  1.2230 -0.4852
18869TIP3    H178098   6.184   0.794   6.717 -1.0671  1.2526  0.5940
18869TIP3    H278099   6.240   0.915   6.645 -0.6181 -0.0012 -1.2145
18870TIP3   OH278100   6.650   6.290   4.432 -0.6970 -0.2638 -0.1631
18870TIP3    H178101   6.643   6.383   4.410 -0.9162 -0.5329 -1.3035
18870TIP3    H278102   6.648   6.245   4.347 -2.4785 -1.4293  0.4574
18871TIP3   OH278103   1.144   2.821  13.353  0.4258  0.3270 -0.0421
18871TIP3    H178104   1.210   2.885  13.380  0.1538  0.0758  1.2659
18871TIP3    H278105   1.195   2.743  13.330  0.6379  0.3659  0.2841
18872TIP3   OH278106   3.910   4.490   1.323  0.6776  0.6081 -0.4413
18872TIP3    H178107   3.880   4.569   1.276  0.4235  0.1882 -0.9988
18872TIP3    H278108   3.835   4.467   1.379  0.0999 -0.2036 -1.5276
18873TIP3   OH278109   3.291   5.119  14.015 -0.3323  0.9121  0.4067
18873TIP3    H178110   3.342   5.198  14.030 -0.3000  0.9871 -0.0813
18873TIP3    H278111   3.219   5.148  13.958 -0.3455  0.6028  0.2639
18874TIP3   OH278112   3.494   1.073  11.552 -0.5123 -0.3178  0.0169
18874TIP3    H178113   3.566   1.033  11.601 -0.2970 -0.5416 -0.4876
18874TIP3    H278114   3.525   1.077  11.462 -0.6394  0.7178  0.0044
18875TIP3   OH278115   2.027   0.733  10.767  0.3889 -0.1534 -0.5534
18875TIP3    H178116   2.092   0.802  10.756  0.5619 -0.4422 -1.4202
18875TIP3    H278117   2.064   0.673  10.832  0.8090 -0.1095 -0.7571
18876TIP3   OH278118   5.731   6.455   4.722 -0.1046  0.1217 -0.1052
18876TIP3    H178119   5.820   6.441   4.690 -0.1736 -0.5108 -0.0185
18876TIP3    H278120   5.737   6.533   4.777  0.0686  1.0622 -1.4388
18877TIP3   OH278121   0.238   1.916   0.848 -0.5966  0.1865  0.3264
18877TIP3    H178122   0.255   2.002   0.810  1.7812 -0.8090 -0.9667
18877TIP3    H278123   0.300   1.909   0.920 -0.5310 -0.5767  0.2015
18878TIP3   OH278124   4.991   4.272  13.172  0.4499  0.2720  0.6607
18878TIP3    H178125   4.996   4.273  13.267  1.3627 -0.0132  0.6223
18878TIP3    H278126   5.076   4.304  13.143  0.2954  0.0414 -0.0589
18879TIP3   OH278127   6.132   5.722  13.662 -0.9470 -0.2617 -0.6069
18879TIP3    H178128   6.072   5.648  13.663 -1.0304 -0.1924  0.8507
18879TIP3    H278129   6.203   5.694  13.604 -1.2628 -1.2513 -0.5327
18880TIP3   OH278130   4.792   6.136  16.706  0.3370 -0.8101  0.2899
18880TIP3    H178131   4.806   6.183  16.788  1.2574  1.1106 -0.9243
18880TIP3    H278132   4.823   6.196  16.639 -0.9352 -2.1279 -1.5194
18881TIP3   OH278133   4.363   2.975   0.661 -0.4958  0.3567  0.2051
18881TIP3    H178134   4.355   2.903   0.723  2.1426 -0.4874 -0.3577
18881TIP3    H278135   4.391   2.934   0.579 -2.3818  1.6421 -1.1328
18882TIP3   OH278136   3.005   6.118  16.408  0.2306 -0.3475  0.1989
18882TIP3    H178137   2.913   6.138  16.428  0.4660  0.5883  0.3713
18882TIP3    H278138   3.047   6.203  16.404  1.0944 -0.7770  0.0997
18883TIP3   OH278139   5.219   1.384  15.956 -0.2873  0.4937 -0.5191
18883TIP3    H178140   5.202   1.398  16.050 -0.4313 -0.2874 -0.4262
18883TIP3    H278141   5.150   1.325  15.927  0.8880 -0.8484 -0.6632
18884TIP3   OH278142   4.263   1.666   0.235 -0.1996 -0.3238 -0.4469
18884TIP3    H178143   4.168   1.652   0.240 -0.4309  1.4284  0.3487
18884TIP3    H278144   4.280   1.683   0.143 -0.8776  0.7815 -0.3734
18885TIP3   OH278145   5.608   3.921  14.831  0.5400 -0.6388  0.5139
18885TIP3    H178146   5.614   4.003  14.782 -1.3929 -0.8236 -0.0592
18885TIP3    H278147   5.574   3.947  14.917  1.2205 -0.6768  0.7975
18886TIP3   OH278148   3.361   1.138   1.710 -0.1770 -0.4143  0.1832
18886TIP3    H178149   3.351   1.105   1.799  0.4186  0.3979  0.5514
18886TIP3    H278150   3.448   1.108   1.683  0.8445  1.7959  0.9323
18887TIP3   OH278151   1.547   1.135  14.994 -0.1340 -0.1437  0.1787
18887TIP3    H178152   1.607   1.064  15.017 -1.0783 -0.9745  0.0872
18887TIP3    H278153   1.495   1.101  14.921 -1.5958  0.0774  1.0853
18888TIP3   OH278154   5.258   5.799  14.612  0.0125 -0.6614 -0.9536
18888TIP3    H178155   5.215   5.750  14.542 -2.9646  1.0588 -0.3998
18888TIP3    H278156   5.281   5.883  14.571  0.0173 -0.3909 -0.3948
18889TIP3   OH278157   5.519   0.571  16.718  0.5546  0.2693  0.2993
18889TIP3    H178158   5.443   0.517  16.740  0.2373 -0.5064 -2.4803
18889TIP3    H278159   5.484   0.660  16.710  0.2942  0.2131  0.8159
18890TIP3   OH278160   3.981   1.182   1.883 -0.2690  0.2658 -0.0597
18890TIP3    H178161   4.055   1.132   1.918 -0.4075 -0.6824 -1.0703
18890TIP3    H278162   3.911   1.117   1.873 -0.5262  0.6994 -1.1935
18891TIP3   OH278163   3.167   0.576   3.811  0.0110  0.5703  0.5451
18891TIP3    H178164   3.171   0.568   3.907 -0.1916  0.8184  0.5765
18891TIP3    H278165   3.078   0.606   3.794  0.3068  1.3419  0.3387
18892TIP3   OH278166   1.297   2.927  15.890 -0.9979  0.3567  0.5241
18892TIP3    H178167   1.287   2.864  15.819 -2.2197  0.5987  0.4849
18892TIP3    H278168   1.255   2.886  15.966 -1.4771  0.9638  0.5916
18893TIP3   OH278169   5.076   0.282  12.588 -0.0438  0.0814  0.8787
18893TIP3    H178170   5.021   0.334  12.648  0.4668  1.0339  0.5218
18893TIP3    H278171   5.014   0.249  12.523 -0.2538  0.8320  0.6956
18894TIP3   OH278172   0.580   2.613  14.547 -0.2497 -0.0415 -0.0664
18894TIP3    H178173   0.631   2.689  14.575  0.1356  0.3942 -1.8262
18894TIP3    H278174   0.502   2.652  14.505  0.1435 -0.5965 -1.3290
18895TIP3   OH278175   6.342   5.939  14.028  0.2323 -1.1323 -1.0340
18895TIP3    H178176   6.303   5.961  13.944 -2.9437 -1.2706  0.3305
18895TIP3    H278177   6.362   6.024  14.068 -1.0848 -0.9778 -0.6834
18896TIP3   OH278178   4.369   1.146  10.973  0.0690 -0.0938  0.3633
18896TIP3    H178179   4.320   1.199  11.036 -0.0323  1.5021 -1.0039
18896TIP3    H278180   4.305   1.085  10.937  0.1889 -1.1940  1.9787
18897TIP3   OH278181   5.530   1.002  15.408  0.4099  0.3341  0.5790
18897TIP3    H178182   5.584   1.080  15.422 -1.0897  1.8876 -1.8835
18897TIP3    H278183   5.590   0.937  15.373  1.2197  1.1859  0.3756
18898TIP3   OH278184   6.216   4.412   1.900 -0.6602  0.2409  0.1589
18898TIP3    H178185   6.169   4.354   1.841 -1.3484  0.5596  0.3971
18898TIP3    H278186   6.266   4.470   1.842  0.2690 -0.7787 -0.0783
18899TIP3   OH278187   3.871   2.396  16.815 -0.2987  0.3197 -0.5746
18899TIP3    H178188   3.791   2.442  16.838  0.3244  0.7377  0.7688
18899TIP3    H278189   3.841   2.309  16.786 -1.2875  0.7734 -0.9449
18900TIP3   OH278190   3.411   1.892   5.733  0.0900  0.6691  0.1108
18900TIP3    H178191   3.348   1.954   5.769  0.8733  2.1491 -0.9690
18900TIP3    H278192   3.367   1.854   5.657  0.5831  1.9433 -0.8364
18901TIP3   OH278193   4.137   6.301  16.246 -0.5709  0.0552  0.3055
18901TIP3    H178194   4.049   6.337  16.235 -1.5755 -2.6072 -0.7570
18901TIP3    H278195   4.123   6.216  16.289  1.4525 -0.4289  0.0566
18902TIP3   OH278196   4.038   3.462  11.190  0.5161  0.2294  0.2458
18902TIP3    H178197   4.060   3.433  11.278 -0.0468 -0.8538  0.0320
18902TIP3    H278198   4.072   3.394  11.133 -0.1225  0.3636 -0.3039
18903TIP3   OH278199   2.212   0.191   4.875 -0.4145  0.0653 -0.1357
18903TIP3    H178200   2.146   0.220   4.813 -0.8407  0.5036  0.5147
18903TIP3    H278201   2.221   0.264   4.936  1.7790  0.6339 -1.0984
18904TIP3   OH278202   5.449   0.251   0.355 -0.2275 -0.0010 -0.1403
18904TIP3    H178203   5.532   0.297   0.367 -0.2173 -0.2309  0.6891
18904TIP3    H278204   5.397   0.309   0.299  0.2380  0.4565 -0.0976
18905TIP3   OH278205   2.067   3.655  15.794  0.0505 -0.0511 -0.4202
18905TIP3    H178206   2.132   3.662  15.724 -0.0516  0.2316 -0.4831
18905TIP3    H278207   1.987   3.692  15.757  0.5522  2.1003  0.5805
18906TIP3   OH278208   5.025   2.277  14.241  0.0701  0.9639 -0.4633
18906TIP3    H178209   4.977   2.205  14.283 -2.6306  1.5192 -2.4239
18906TIP3    H278210   5.033   2.344  14.309 -0.0252 -0.0192  0.5236
18907TIP3   OH278211   5.560   2.689   0.302 -0.3645 -0.5017  0.5003
18907TIP3    H178212   5.614   2.684   0.223  0.2752 -0.3702  0.9169
18907TIP3    H278213   5.573   2.779   0.333 -2.6701  0.2631 -0.6623
18908TIP3   OH278214   4.555   2.072   3.340 -0.0147 -0.4368 -0.3532
18908TIP3    H178215   4.470   2.100   3.309 -0.5061 -0.9925  0.4687
18908TIP3    H278216   4.607   2.152   3.346 -0.8241  0.0455  0.1905
18909TIP3   OH278217   3.863   3.656  14.624  0.6683  0.0567 -0.4170
18909TIP3    H178218   3.957   3.655  14.604  0.5938 -0.4673 -0.7620
18909TIP3    H278219   3.820   3.637  14.541  0.1912  1.6848 -0.5585
18910TIP3   OH278220   3.430   3.547   6.413  0.6499 -0.3087  0.4461
18910TIP3    H178221   3.357   3.517   6.467  0.7757 -2.1962 -0.3723
18910TIP3    H278222   3.457   3.630   6.452 -2.4044  0.8084  0.3428
18911TIP3   OH278223   6.132   1.710  11.271  0.4430 -0.7855  0.1788
18911TIP3    H178224   6.049   1.757  11.279  0.4060 -1.0759  1.6800
18911TIP3    H278225   6.107   1.620  11.251  0.4131 -0.7453  0.0380
18912TIP3   OH278226   6.427   5.167   3.100  0.1015  0.2215 -0.2380
18912TIP3    H178227   6.449   5.257   3.075  2.0737  0.6890  2.8997
18912TIP3    H278228   6.376   5.175   3.180  0.7376 -1.4719  0.3696
18913TIP3   OH278229   0.568   3.568  11.953 -0.1466  0.2056 -0.4699
18913TIP3    H178230   0.495   3.611  11.907  0.4706  1.1913 -0.5356
18913TIP3    H278231   0.576   3.483  11.910  0.1079  0.9275 -1.8690
18914TIP3   OH278232   2.050   4.714  14.650 -0.1350  0.6185  0.2676
18914TIP3    H178233   1.967   4.711  14.602  0.5906  1.0116 -1.0705
18914TIP3    H278234   2.079   4.623  14.654  1.0324  0.8021 -2.3575
18915TIP3   OH278235   1.520   0.037  12.411  0.0525 -0.3419  0.0321
18915TIP3    H178236   1.606   0.071  12.384  0.0524  0.2671  0.7621
18915TIP3    H278237   1.460   0.109  12.394 -0.3511 -0.8521 -0.6907
18916TIP3   OH278238   0.753   1.061   4.643 -0.2864  0.1936 -0.4037
18916TIP3    H178239   0.828   1.011   4.610 -1.5794 -2.1629  0.1495
18916TIP3    H278240   0.693   1.067   4.568 -0.0666  1.0902 -0.5174
18917TIP3   OH278241   3.898   1.174   1.057 -0.8376  0.2197 -0.3623
18917TIP3    H178242   3.878   1.102   1.117  1.3126  1.7485  2.2684
18917TIP3    H278243   3.824   1.234   1.067 -0.4817  0.4811  0.8127
18918TIP3   OH278244   2.177   5.301  12.550 -0.5610  0.3638 -0.4487
18918TIP3    H178245   2.108   5.367  12.544  1.5847  2.6515 -0.6732
18918TIP3    H278246   2.222   5.320  12.632 -0.1928 -1.1176 -0.2923
18919TIP3   OH278247   1.920   2.321   1.013 -0.0419  0.0287  0.4487
18919TIP3    H178248   1.832   2.318   0.977  0.4228  0.8126 -0.7639
18919TIP3    H278249   1.929   2.237   1.060 -1.1860 -0.3384  0.0303
18920TIP3   OH278250   5.349   1.503  13.522 -0.3367 -0.1700 -0.5178
18920TIP3    H178251   5.300   1.498  13.604  0.1500 -2.3617 -0.3197
18920TIP3    H278252   5.422   1.442  13.534  1.7588  2.1069 -1.2786
18921TIP3   OH278253   1.046   0.123  14.597  0.0373  0.1845 -0.0501
18921TIP3    H178254   1.012   0.212  14.609 -0.1485 -0.0386  1.1276
18921TIP3    H278255   1.024   0.101  14.506 -0.5536  1.0606 -0.1257
18922TIP3   OH278256   5.893   2.583   4.329 -0.2305 -0.2353  0.1119
18922TIP3    H178257   5.893   2.677   4.310  0.1555 -0.2383  0.0937
18922TIP3    H278258   5.804   2.565   4.359 -0.6982 -0.1441 -1.2102
18923TIP3   OH278259   3.968   4.487  15.995 -0.1766  0.0462  0.9403
18923TIP3    H178260   3.978   4.392  15.987 -1.2336  0.0208 -0.2040
18923TIP3    H278261   3.960   4.518  15.905  0.8529  1.3136  1.2659
18924TIP3   OH278262   6.517   1.800   5.372  0.2352  1.1012 -0.5787
18924TIP3    H178263   6.578   1.764   5.308 -0.3199 -0.6698 -0.1430
18924TIP3    H278264   6.484   1.880   5.332  0.4800  0.4222 -2.1556
18925TIP3   OH278265   1.179   1.548  16.206  0.4810  0.2644 -0.6370
18925TIP3    H178266   1.157   1.457  16.186  1.5423  0.0507 -0.8784
18925TIP3    H278267   1.253   1.542  16.267 -0.6389  0.9538  0.8347
18926TIP3   OH278268   4.623   1.662   2.986 -0.2478 -0.4851 -0.1150
18926TIP3    H178269   4.690   1.719   2.948  0.1578 -1.3133 -0.6529
18926TIP3    H278270   4.575   1.718   3.046  0.1155  0.4397 -0.6810
18927TIP3   OH278271   4.671   6.183   5.116  0.1277  0.2601 -0.6958
18927TIP3    H178272   4.622   6.104   5.139 -0.1296  0.3337 -0.9822
18927TIP3    H278273   4.726   6.157   5.043 -1.3977  0.8373 -2.0918
18928TIP3   OH278274   4.594   2.578  16.456  0.1300  0.2519 -0.1683
18928TIP3    H178275   4.583   2.494  16.411 -0.4532  0.1384  0.1819
18928TIP3    H278276   4.505   2.610  16.469  0.1221 -0.9095  3.1675
18929TIP3   OH278277   3.292   1.752  13.502  0.3422  0.1454 -0.3598
18929TIP3    H178278   3.337   1.791  13.577  0.4496 -0.0229 -0.3388
18929TIP3    H278279   3.325   1.800  13.426  0.4492  0.1167 -0.3303
18930TIP3   OH278280   0.190   5.621  16.005  0.4206  0.4905  0.1674
18930TIP3    H178281   0.097   5.603  16.018  0.6509  0.3295  1.7056
18930TIP3    H278282   0.235   5.547  16.045  1.1983 -0.2635 -2.0364
18931TIP3   OH278283   4.813   0.890  14.753  0.0334 -0.2695  0.1472
18931TIP3    H178284   4.799   0.969  14.700  0.1909  0.7476  1.5840
18931TIP3    H278285   4.726   0.861  14.776  0.0202  1.1692  2.0209
18932TIP3   OH278286   1.057   0.900   0.264  0.4647  0.1404  0.0747
18932TIP3    H178287   1.147   0.931   0.280  0.2887  0.6098  0.1480
18932TIP3    H278288   1.066   0.836   0.193  0.5901  1.6325 -1.2659
18933TIP3   OH278289   2.893   2.376   1.447 -0.1398  0.1039  0.5821
18933TIP3    H178290   2.976   2.387   1.494  0.0783  0.4065  0.1336
18933TIP3    H278291   2.853   2.299   1.486  1.6356 -1.7103 -1.0703
18934TIP3   OH278292   2.314   2.279  16.261 -0.1012  0.1113  0.2902
18934TIP3    H178293   2.248   2.224  16.219 -0.1492  1.0556 -0.8968
18934TIP3    H278294   2.336   2.233  16.342 -2.5991  0.0507  0.9579
18935TIP3   OH278295   3.339   6.518  12.923  1.5611 -0.1902 -0.4165
18935TIP3    H178296   3.362   6.594  12.870  2.6936 -0.3490 -0.1738
18935TIP3    H278297   3.400   6.521  12.997  1.7832 -1.4703 -0.5346
18936TIP3   OH278298   0.221   6.722  16.276  0.4095  0.2881  0.5771
18936TIP3    H178299   0.137   6.712  16.231 -0.3158  0.6923  1.8216
18936TIP3    H278300   0.200   6.716  16.369  1.7959  0.1514  0.8990
18937TIP3   OH278301   0.379   0.040  15.736  0.0138  0.1057  0.6534
18937TIP3    H178302   0.440   0.102  15.696 -0.7119 -1.7020 -3.4456
18937TIP3    H278303   0.294   0.085  15.733 -0.2266 -0.4347 -0.8446
18938TIP3   OH278304   2.179   3.233  14.258  0.2290  0.1189 -0.2063
18938TIP3    H178305   2.148   3.253  14.170 -3.0717  1.8892  1.2524
18938TIP3    H278306   2.192   3.319  14.299 -0.3732 -0.6606  1.6738
18939TIP3   OH278307   2.180   4.014  11.343  0.2444 -0.0719  0.0976
18939TIP3    H178308   2.236   4.056  11.277  0.4430 -0.6637 -0.1106
18939TIP3    H278309   2.233   3.942  11.377  0.1944  0.3047  1.0012
18940TIP3   OH278310   3.101   2.505  14.441  0.3106 -0.6357  0.4901
18940TIP3    H178311   3.136   2.508  14.530 -2.2515 -0.7870  1.5658
18940TIP3    H278312   3.060   2.418  14.435  0.5519 -0.6600 -0.8832
18941TIP3   OH278313   1.748   0.515  15.923  0.3776  0.6794 -0.2582
18941TIP3    H178314   1.802   0.543  15.997 -0.2920  1.3513 -0.0190
18941TIP3    H278315   1.777   0.571  15.850  1.0489  0.0061 -0.5152
18942TIP3   OH278316   3.366   1.409   5.279 -0.6339 -0.2523 -0.5226
18942TIP3    H178317   3.379   1.481   5.341 -0.9553  0.5109 -1.3366
18942TIP3    H278318   3.451   1.366   5.273 -0.7353 -0.6949  0.8844
18943TIP3   OH278319   3.881   1.856  13.692 -0.2474  0.7794  0.0696
18943TIP3    H178320   3.936   1.812  13.756 -0.7485 -2.5525 -1.7117
18943TIP3    H278321   3.792   1.828  13.713 -0.3258 -1.2074 -2.6708
18944TIP3   OH278322   1.109   5.187  12.890 -0.0817  0.0140 -0.0858
18944TIP3    H178323   1.037   5.125  12.896 -0.4714  0.3659 -0.9794
18944TIP3    H278324   1.082   5.248  12.821 -0.4815  2.1631  1.8982
18945TIP3   OH278325   5.266   4.247  11.589  0.2887 -0.0457 -0.5951
18945TIP3    H178326   5.255   4.153  11.581 -0.9094  0.0079  0.2102
18945TIP3    H278327   5.360   4.261  11.588  0.4936 -1.3457  0.2342
18946TIP3   OH278328   4.544   1.088   5.465  0.4246 -0.4013 -0.5374
18946TIP3    H178329   4.623   1.103   5.412 -0.2499  0.4269 -1.3176
18946TIP3    H278330   4.555   1.147   5.540  1.1090 -1.1625 -0.0231
18947TIP3   OH278331   2.297   3.290  15.988 -0.6293  0.5774 -0.3755
18947TIP3    H178332   2.237   3.243  15.930 -1.9290 -0.7982  1.9734
18947TIP3    H278333   2.321   3.226  16.055  1.8526  1.7335 -0.0914
18948TIP3   OH278334   2.554   0.508  15.123 -0.2914  0.4140 -0.2178
18948TIP3    H178335   2.580   0.585  15.174  0.2173  0.9520 -1.2772
18948TIP3    H278336   2.616   0.506  15.050 -1.2426 -0.1285 -1.0227
18949TIP3   OH278337   4.118   4.762   2.128  0.1390 -0.0651  0.2085
18949TIP3    H178338   4.054   4.700   2.163  0.1881  0.1256  0.6406
18949TIP3    H278339   4.102   4.762   2.033  0.0837 -0.6702  0.2141
18950TIP3   OH278340   2.295   5.104  17.135 -0.2388  0.1774  0.2582
18950TIP3    H178341   2.236   5.054  17.192  1.0249 -0.5825  0.9446
18950TIP3    H278342   2.360   5.140  17.195 -1.2685  2.8656 -0.2149
18951TIP3   OH278343   6.025   2.337  13.563 -0.1174  0.4156  0.1298
18951TIP3    H178344   6.075   2.408  13.602 -1.6490  1.4994  0.1660
18951TIP3    H278345   6.085   2.297  13.500  0.8033  1.6729  0.1854
18952TIP3   OH278346   1.307   2.602   0.731 -0.0995  0.2086 -0.2584
18952TIP3    H178347   1.244   2.662   0.772 -0.0870  1.0688 -1.4690
18952TIP3    H278348   1.379   2.658   0.703  1.4956 -0.8425  1.5877
18953TIP3   OH278349   4.608   0.558   5.064  0.5502 -0.5174  0.2000
18953TIP3    H178350   4.683   0.571   5.122  0.9044  1.1768 -0.6045
18953TIP3    H278351   4.640   0.496   4.998  0.2093 -2.2878  1.6526
18954TIP3   OH278352   0.248   3.359  16.444 -0.7932  0.0012  0.3248
18954TIP3    H178353   0.185   3.429  16.425  0.8981  1.1071 -1.3922
18954TIP3    H278354   0.265   3.319  16.359  0.3755 -0.6894  0.8770
18955TIP3   OH278355   5.153   4.596   3.834 -0.2204  0.0269 -0.0602
18955TIP3    H178356   5.094   4.587   3.909 -2.3047  2.5576 -1.3221
18955TIP3    H278357   5.232   4.636   3.871 -0.4106 -0.6341  1.1067
18956TIP3   OH278358   5.146   6.520   2.924  0.0415 -0.3185  1.1980
18956TIP3    H178359   5.093   6.591   2.887  1.5986  0.2237 -0.0699
18956TIP3    H278360   5.236   6.552   2.918  0.3984 -0.4324  5.0846
18957TIP3   OH278361   5.737   1.303   1.651  0.0233 -0.1669 -0.7007
18957TIP3    H178362   5.646   1.328   1.642 -0.1251 -0.6885 -0.6606
18957TIP3    H278363   5.783   1.359   1.588 -0.4325 -0.4998 -1.3400
18958TIP3   OH278364   0.312   6.782  11.661  0.1595  0.4456 -0.1968
18958TIP3    H178365   0.217   6.771  11.659  0.2003  0.1883 -1.5894
18958TIP3    H278366   0.346   6.704  11.616  0.9348  1.2920 -1.1087
18959TIP3   OH278367   0.740   5.307   2.917  0.3893  0.0165 -0.4140
18959TIP3    H178368   0.669   5.267   2.867  0.0741 -0.0319  0.0567
18959TIP3    H278369   0.707   5.307   3.008  1.6639 -1.5016  0.0538
18960TIP3   OH278370   1.447   1.158  13.432  0.0055 -0.1467  0.5681
18960TIP3    H178371   1.469   1.111  13.512  0.9827 -0.5049  0.0973
18960TIP3    H278372   1.528   1.159  13.382 -0.3578  0.8861 -0.0132
18961TIP3   OH278373   5.319   0.686  13.072 -0.0687 -0.0834 -0.2648
18961TIP3    H178374   5.400   0.648  13.104 -0.6253 -0.3311  0.8877
18961TIP3    H278375   5.338   0.780  13.064  0.2158 -0.0856  0.3626
18962TIP3   OH278376   4.034   4.150   0.950  0.1936 -0.3958  0.5277
18962TIP3    H178377   4.057   4.239   0.925 -1.4215 -0.5829 -1.7617
18962TIP3    H278378   3.990   4.159   1.034  1.9759  0.7190  1.3655
18963TIP3   OH278379   1.097   4.418   4.011  0.0238  0.3402  0.4184
18963TIP3    H178380   1.180   4.441   3.969  1.2349 -2.0325  1.3702
18963TIP3    H278381   1.117   4.336   4.058 -2.4805  0.5050  1.8254
18964TIP3   OH278382   5.414   2.497  13.675  0.4448 -0.3422 -0.3362
18964TIP3    H178383   5.435   2.404  13.666 -1.7571 -1.1342  2.0540
18964TIP3    H278384   5.456   2.539  13.600  1.8301 -3.1941 -1.2152
18965TIP3   OH278385   1.202   4.712  14.574 -0.3717  0.0946  0.2631
18965TIP3    H178386   1.112   4.738  14.593 -1.0605 -1.8364 -0.2132
18965TIP3    H278387   1.209   4.624  14.611  1.2722  0.1617  0.1336
18966TIP3   OH278388   3.911   3.782   1.315  0.3260  0.0666 -0.5459
18966TIP3    H178389   3.937   3.691   1.334  0.0267  0.3258  1.2448
18966TIP3    H278390   3.994   3.828   1.304  0.4734 -0.5123 -1.8975
18967TIP3   OH278391   5.745   6.801  15.997 -0.3998 -0.3945 -0.0261
18967TIP3    H178392   5.742   6.714  16.038 -1.1814 -0.4238 -0.1341
18967TIP3    H278393   5.796   6.855  16.058  2.5997 -1.6301 -1.3183
18968TIP3   OH278394   4.511   5.092  11.980  0.0010 -0.6717  0.0286
18968TIP3    H178395   4.569   5.034  11.930  2.8062  0.9536  1.2850
18968TIP3    H278396   4.463   5.142  11.913  2.3882  0.2016 -1.0794
18969TIP3   OH278397   1.214   5.126  16.213 -0.0705 -0.0465  0.3859
18969TIP3    H178398   1.167   5.046  16.235  0.5288 -0.7631 -0.8971
18969TIP3    H278399   1.289   5.128  16.272  0.4794 -0.9685 -0.2738
18970TIP3   OH278400   2.781   1.290  16.291  0.6789  0.5912  0.1122
18970TIP3    H178401   2.738   1.216  16.249  0.6936  0.9647 -0.5606
18970TIP3    H278402   2.860   1.305  16.239 -1.0723  3.2969 -1.8773
18971TIP3   OH278403   0.427   1.427   1.242  0.0377 -0.3999  0.1906
18971TIP3    H178404   0.452   1.336   1.231 -0.3954 -0.5222  0.2284
18971TIP3    H278405   0.427   1.441   1.337 -2.1069 -0.9822  0.3049
18972TIP3   OH278406   1.017   6.474   2.536  0.1084 -0.6277 -0.0771
18972TIP3    H178407   1.100   6.455   2.492 -0.1438 -1.1044 -0.3523
18972TIP3    H278408   0.954   6.487   2.464  0.0950  0.4539  0.1132
18973TIP3   OH278409   5.563   1.406   6.807  0.3212  0.0595 -0.2363
18973TIP3    H178410   5.488   1.462   6.827  1.8797  1.7929  0.8036
18973TIP3    H278411   5.536   1.319   6.840 -1.1089  0.7097  0.3756
18974TIP3   OH278412   6.114   2.822  13.065  0.1980 -0.0588 -0.0544
18974TIP3    H178413   6.155   2.889  13.011  1.2079 -1.1219 -0.6413
18974TIP3    H278414   6.104   2.747  13.005 -1.8930 -0.0743  0.2941
18975TIP3   OH278415   0.091   5.992   0.871  0.4344  0.6180  0.1617
18975TIP3    H178416   0.031   6.066   0.871  2.3332  2.2003 -0.4134
18975TIP3    H278417   0.081   5.953   0.958 -2.1994  0.1509 -0.3078
18976TIP3   OH278418   1.738   2.437   0.756 -0.5336  0.5367  0.0683
18976TIP3    H178419   1.759   2.513   0.809 -0.1015  0.9609 -0.7022
18976TIP3    H278420   1.685   2.381   0.813  0.2365  0.8164  1.0594
18977TIP3   OH278421   2.208   5.261   2.181 -0.1398 -0.6280  0.2503
18977TIP3    H178422   2.219   5.239   2.088 -0.1093  1.4038 -0.2571
18977TIP3    H278423   2.199   5.356   2.182  0.0543 -0.6054  2.3643
18978TIP3   OH278424   4.831   2.645   5.554 -0.2982  0.3527  0.2132
18978TIP3    H178425   4.754   2.621   5.504 -0.1198 -0.2182  0.2058
18978TIP3    H278426   4.856   2.732   5.522 -1.5772  1.0192  0.9865
18979TIP3   OH278427   0.616   3.891   6.013 -0.3100  0.9401 -0.2222
18979TIP3    H178428   0.605   3.953   5.940  0.2633  3.6047  1.8486
18979TIP3    H278429   0.694   3.922   6.059 -0.0636 -1.3185  0.9412
18980TIP3   OH278430   2.175   6.724  16.005  0.0925  0.2229 -0.1918
18980TIP3    H178431   2.177   6.793  15.939 -1.1955  0.1889 -0.2778
18980TIP3    H278432   2.088   6.686  15.998  0.2249 -0.3230  0.9807
18981TIP3   OH278433   4.604   2.432   3.012 -0.4048  0.1080  0.1485
18981TIP3    H178434   4.608   2.336   3.010 -0.6880  0.1193 -1.1001
18981TIP3    H278435   4.676   2.457   3.070  1.0231 -0.7866 -1.1807
18982TIP3   OH278436   5.219   0.003   4.847  0.0998  0.1653  0.1466
18982TIP3    H178437   5.264  -0.031   4.769  0.0145 -1.8421  0.9340
18982TIP3    H278438   5.251   0.093   4.856  2.4779 -0.5861 -0.4495
18983TIP3   OH278439   0.628   2.557   3.434 -0.3561  0.4365  0.1968
18983TIP3    H178440   0.634   2.652   3.434 -1.2900  0.5107  1.9613
18983TIP3    H278441   0.676   2.529   3.512 -0.6455 -0.4864  0.0542
18984TIP3   OH278442   1.727   2.892  12.846 -1.2274  0.1691 -0.8902
18984TIP3    H178443   1.708   2.984  12.865  0.8787  0.3590  0.4048
18984TIP3    H278444   1.819   2.881  12.867 -1.2137 -2.0271 -1.9403
18985TIP3   OH278445   3.995   2.789  13.649 -0.7800  0.1328 -0.0275
18985TIP3    H178446   3.936   2.863  13.662 -0.1965  0.4000  1.2606
18985TIP3    H278447   3.942   2.712  13.668 -0.6710  0.3858  1.3918
18986TIP3   OH278448   5.478   6.365   4.722 -0.8288 -0.3475 -0.1967
18986TIP3    H178449   5.561   6.413   4.726 -1.1972  0.4321 -1.7618
18986TIP3    H278450   5.471   6.324   4.808 -0.0465  1.6302  0.8480
18987TIP3   OH278451   4.750   0.147  11.999 -0.0594  0.0944 -0.3232
18987TIP3    H178452   4.681   0.084  12.019 -0.4960  0.7296  0.1930
18987TIP3    H278453   4.740   0.216  12.064 -2.0475  2.6060 -3.1239
18988TIP3   OH278454   5.608   2.145   4.301 -0.4105 -0.5290  0.2908
18988TIP3    H178455   5.647   2.213   4.247  1.9232 -2.5979 -0.7025
18988TIP3    H278456   5.645   2.159   4.388  1.5326 -1.6628 -0.3420
18989TIP3   OH278457   4.905   2.454   1.286 -0.0142 -1.0681  0.2927
18989TIP3    H178458   4.844   2.521   1.317 -0.4500 -2.0338  1.5744
18989TIP3    H278459   4.978   2.503   1.249 -0.2600  0.1098  1.3283
18990TIP3   OH278460   4.992   6.209  11.510 -0.1270 -0.2946  0.0706
18990TIP3    H178461   5.084   6.205  11.482  0.2708 -0.3264  1.3491
18990TIP3    H278462   4.985   6.139  11.576 -1.2193 -0.6816 -0.4520
18991TIP3   OH278463   6.007   0.541   5.082  0.1983 -0.5646  0.5277
18991TIP3    H178464   6.053   0.508   5.005  0.5424  2.9275 -0.8218
18991TIP3    H278465   6.077   0.573   5.139 -0.3049  0.6324  0.4649
18992TIP3   OH278466   6.660   6.238  15.411  0.5039  0.0947 -0.8399
18992TIP3    H178467   6.672   6.332  15.419  0.0655  0.0726  0.0768
18992TIP3    H278468   6.711   6.200  15.483 -1.7143 -0.2002  0.6331
18993TIP3   OH278469   3.389   1.818   2.848  0.0154 -0.3166  0.4114
18993TIP3    H178470   3.454   1.771   2.796 -1.0806 -1.3819 -0.0162
18993TIP3    H278471   3.407   1.791   2.938  0.2639 -0.4838  0.3132
18994TIP3   OH278472   4.925   6.294  16.510  0.3696 -0.4346  0.2991
18994TIP3    H178473   4.986   6.363  16.482  0.3398 -0.3006  0.5685
18994TIP3    H278474   4.841   6.339  16.518 -0.5337 -1.2726 -3.3660
18995TIP3   OH278475   5.524   5.816   3.413  0.2285  0.0884 -0.3808
18995TIP3    H178476   5.549   5.725   3.397  2.7790  0.4669  1.1809
18995TIP3    H278477   5.576   5.842   3.489 -1.9290  2.2677  0.4162
18996TIP3   OH278478   4.536   3.693   4.273  0.6319  0.1993  0.5234
18996TIP3    H178479   4.620   3.685   4.226  0.5342 -0.4360  0.4459
18996TIP3    H278480   4.494   3.769   4.234  0.2917 -0.6714 -0.8417
18997TIP3   OH278481   0.538   2.720  13.575  0.2817  0.3782 -0.0609
18997TIP3    H178482   0.490   2.791  13.532  0.7391  0.9415  0.3533
18997TIP3    H278483   0.548   2.654  13.506  0.3270  0.9440 -0.6061
18998TIP3   OH278484   3.809   2.107  16.245  1.0760  0.6942 -0.4087
18998TIP3    H178485   3.788   2.141  16.158  1.2563 -0.5362 -0.9546
18998TIP3    H278486   3.830   2.184  16.297  1.6948  1.3831 -1.6669
18999TIP3   OH278487   3.761   1.436   4.064 -0.5715 -0.2443 -0.3013
18999TIP3    H178488   3.710   1.516   4.054  0.0165  0.1210 -0.3605
18999TIP3    H278489   3.824   1.455   4.133  0.9959  0.0691 -1.7944
19000TIP3   OH278490   0.626   2.662   4.696  0.5576  0.4202 -0.0427
19000TIP3    H178491   0.680   2.703   4.628 -0.1697 -0.0815 -0.9326
19000TIP3    H278492   0.566   2.605   4.648 -1.1476  1.4021  0.8845
19001TIP3   OH278493   3.816   3.530   4.873 -0.3287 -0.0555 -0.7689
19001TIP3    H178494   3.738   3.584   4.885 -0.9545 -1.3528  1.2275
19001TIP3    H278495   3.847   3.552   4.785 -2.7831  0.6843 -1.4905
19002TIP3   OH278496   2.933   0.697   3.903 -0.2095 -0.2383 -0.2147
19002TIP3    H178497   2.847   0.711   3.863 -1.7469 -2.5240  2.1067
19002TIP3    H278498   2.929   0.744   3.986  2.1851  2.6872 -1.6464
19003TIP3   OH278499   2.928   1.916   6.252  0.1401  0.5291  0.6050
19003TIP3    H178500   2.996   1.849   6.250  2.0408  2.3996  0.4173
19003TIP3    H278501   2.918   1.944   6.161 -0.6579  0.5111  0.6776
19004TIP3   OH278502   1.429   1.629   0.501 -0.3832  0.2599 -0.3816
19004TIP3    H178503   1.395   1.689   0.567 -1.2253  2.3109 -2.6147
19004TIP3    H278504   1.359   1.620   0.436  0.5496 -1.4016 -1.2151
19005TIP3   OH278505   1.760   6.371  11.393 -0.2426  0.0515  0.0957
19005TIP3    H178506   1.695   6.404  11.454 -0.0911  0.2360  0.1593
19005TIP3    H278507   1.844   6.395  11.432 -0.1484  0.4272 -0.3217
19006TIP3   OH278508   0.175   3.070  11.620  0.2135  0.1175 -0.6166
19006TIP3    H178509   0.257   3.057  11.573  0.1670 -2.1332 -0.1290
19006TIP3    H278510   0.203   3.095  11.709  0.4106 -1.3154 -0.2583
19007TIP3   OH278511   4.249   2.461   5.917  0.1669  0.0720 -0.8901
19007TIP3    H178512   4.242   2.373   5.882  0.9564  0.8950 -3.1977
19007TIP3    H278513   4.297   2.510   5.850  1.2846  1.8294  1.1159
19008TIP3   OH278514   1.055   1.272   6.604  0.5499  0.0563 -0.0873
19008TIP3    H178515   1.097   1.194   6.640 -0.0034  0.6002  1.7918
19008TIP3    H278516   0.988   1.237   6.546  0.6401 -0.8759  0.3471
19009TIP3   OH278517   3.535   2.597  14.232  0.3199  0.0633 -0.4753
19009TIP3    H178518   3.471   2.650  14.280  2.0060  1.1796  0.6156
19009TIP3    H278519   3.542   2.641  14.147 -0.4965 -0.1787 -0.6724
19010TIP3   OH278520   2.730   4.661   2.423  0.2697 -0.1005  0.2691
19010TIP3    H178521   2.751   4.616   2.341 -0.0167 -0.4672  0.3954
19010TIP3    H278522   2.691   4.593   2.478  1.4996 -0.1335  1.1310
19011TIP3   OH278523   2.975   2.678  13.506 -0.2264  0.0091 -0.3418
19011TIP3    H178524   2.943   2.614  13.442  1.1275  1.3991 -2.4546
19011TIP3    H278525   2.979   2.760  13.457 -0.4767  1.3862  1.9241
19012TIP3   OH278526   4.345   5.921  15.792  0.0487  0.0925  0.0206
19012TIP3    H178527   4.376   5.860  15.859  0.2940  0.4866  0.2672
19012TIP3    H278528   4.298   5.866  15.729 -1.8305 -0.0346  1.5051
19013TIP3   OH278529   2.505   5.027  11.460  0.1607  0.5673 -0.2803
19013TIP3    H178530   2.445   4.996  11.527  1.3613 -3.1551 -0.8205
19013TIP3    H278531   2.451   5.038  11.381 -0.2883 -0.1536 -0.0678
19014TIP3   OH278532   4.719   6.375   0.829 -0.5237 -0.0231  0.3801
19014TIP3    H178533   4.649   6.422   0.783  0.1868  0.7236  0.0517
19014TIP3    H278534   4.761   6.441   0.884  0.9127 -0.1157 -0.5811
19015TIP3   OH278535   3.090   4.024  11.793  0.3204  0.1923  0.3627
19015TIP3    H178536   3.049   3.940  11.813 -2.9802  1.6096 -0.0872
19015TIP3    H278537   3.040   4.088  11.845  1.2694  2.1420 -1.0528
19016TIP3   OH278538   5.406   5.831   4.894  0.1848  0.0033  0.2102
19016TIP3    H178539   5.331   5.888   4.881  0.9684  0.7823 -1.0947
19016TIP3    H278540   5.459   5.875   4.961  0.5368  0.5798 -0.4314
19017TIP3   OH278541   6.797   2.922  15.416 -0.3715 -0.0507  0.3769
19017TIP3    H178542   6.806   3.008  15.374 -1.5437 -0.5948 -1.0320
19017TIP3    H278543   6.867   2.921  15.482 -0.7303  2.2225  0.8644
19018TIP3   OH278544   3.126   0.485   4.375 -0.1001  0.2839 -0.1316
19018TIP3    H178545   3.037   0.520   4.381  0.1702  1.0473 -0.5890
19018TIP3    H278546   3.179   0.544   4.428  0.2093  0.0671 -0.1962
19019TIP3   OH278547   0.824   1.058  13.255  0.4682  0.1319 -0.0691
19019TIP3    H178548   0.797   1.055  13.164 -0.4437 -2.9206  0.2411
19019TIP3    H278549   0.743   1.044  13.305  1.2509 -0.3517  1.1089
19020TIP3   OH278550   5.593   4.731   0.522  0.0021 -0.0088  0.6564
19020TIP3    H178551   5.630   4.663   0.465 -2.0846  0.2870 -1.0933
19020TIP3    H278552   5.596   4.811   0.469  0.8911  0.9442  2.1011
19021TIP3   OH278553   5.017   2.954   2.251 -0.0477  0.2043 -0.4678
19021TIP3    H178554   5.000   3.004   2.171  1.8187 -0.9501 -1.6039
19021TIP3    H278555   5.112   2.959   2.262  0.1422 -2.9096 -0.4885
19022TIP3   OH278556   5.833   3.095   4.706 -0.1594  0.3170 -0.3620
19022TIP3    H178557   5.808   3.074   4.617 -0.1472  2.4787 -0.9107
19022TIP3    H278558   5.926   3.074   4.711 -0.9184 -3.1831  0.2438
19023TIP3   OH278559   6.087   4.273  16.000  0.2376 -0.2654  0.0162
19023TIP3    H178560   6.111   4.297  16.089 -0.0445 -1.7060  0.4868
19023TIP3    H278561   6.034   4.194  16.009 -0.5954  0.1104 -1.3643
19024TIP3   OH278562   0.400   2.843  11.194  0.5055 -1.0153 -0.2207
19024TIP3    H178563   0.312   2.839  11.231  0.3956  0.8249 -0.2294
19024TIP3    H278564   0.453   2.789  11.252 -0.2911 -0.7202  0.8003
19025TIP3   OH278565   5.286   0.971   6.371  0.0652  0.0663 -0.2957
19025TIP3    H178566   5.350   1.040   6.389  1.6271 -0.8648 -2.0857
19025TIP3    H278567   5.207   0.998   6.418  1.5860  1.5384  1.4752
19026TIP3   OH278568   1.534   3.825  13.867 -0.3422  0.4387 -0.6664
19026TIP3    H178569   1.450   3.799  13.904 -0.3497 -0.3050 -1.2132
19026TIP3    H278570   1.599   3.775  13.916 -0.3908 -1.0466 -2.0781
19027TIP3   OH278571   6.255   0.600  15.409  0.0420  0.4904 -0.5749
19027TIP3    H178572   6.189   0.667  15.391  0.8046  0.7734 -2.4962
19027TIP3    H278573   6.333   0.650  15.433  0.0738  0.2159 -0.1071
19028TIP3   OH278574   3.042   5.676  10.982 -0.4712  0.2692 -0.5743
19028TIP3    H178575   3.118   5.717  10.941 -0.1156 -0.9502 -1.1386
19028TIP3    H278576   3.075   5.592  11.015 -1.3198  0.2013  0.1296
19029TIP3   OH278577   0.857   2.263   1.718  0.3714 -0.0098 -0.2499
19029TIP3    H178578   0.934   2.214   1.746  0.0842 -0.2814  0.0697
19029TIP3    H278579   0.784   2.203   1.733  0.1420  0.1022 -0.9214
19030TIP3   OH278580   2.789   0.863   4.430  0.4326  0.2520 -0.3774
19030TIP3    H178581   2.816   0.913   4.507 -0.3436 -0.0332  0.0986
19030TIP3    H278582   2.697   0.887   4.418  0.5588  0.3153 -1.2386
19031TIP3   OH278583   0.903   4.433  12.225 -0.1436  0.3249 -0.7864
19031TIP3    H178584   0.814   4.408  12.250  0.0757  1.6087  1.4717
19031TIP3    H278585   0.951   4.351  12.216 -0.7397 -0.2579  1.2654
19032TIP3   OH278586   6.359   6.782  15.311 -0.0317 -0.6614  0.2681
19032TIP3    H178587   6.419   6.738  15.251  0.3644 -0.1234  0.2681
19032TIP3    H278588   6.415   6.819  15.379 -0.4363 -0.8444  0.7054
19033TIP3   OH278589   2.921   5.408  12.447  0.4725  0.0589  0.6994
19033TIP3    H178590   2.877   5.347  12.388 -0.7414  0.2751  1.3866
19033TIP3    H278591   2.905   5.495  12.409 -0.0425  0.1724  1.1840
19034TIP3   OH278592   6.390   6.740  13.375  0.7119  0.2936  0.0600
19034TIP3    H178593   6.326   6.777  13.436  0.6053  1.3388 -0.6642
19034TIP3    H278594   6.342   6.729  13.293  0.6387 -1.8743  0.3822
19035TIP3   OH278595   1.747   5.691  13.608 -0.4229  0.8300 -0.2488
19035TIP3    H178596   1.781   5.720  13.692 -1.4134 -1.5346  1.0216
19035TIP3    H278597   1.679   5.755  13.586  0.3739  1.8896  0.3703
19036TIP3   OH278598   2.094   0.183  17.042 -0.3046 -0.2588 -0.6580
19036TIP3    H178599   2.095   0.099  16.995  1.8436  0.4132 -1.8647
19036TIP3    H278600   2.186   0.207  17.049 -0.8153  1.2159  1.1237
19037TIP3   OH278601   6.217   3.518  14.531  0.0299 -0.3403  0.7972
19037TIP3    H178602   6.165   3.597  14.546  0.9158  0.6214 -1.1219
19037TIP3    H278603   6.230   3.482  14.619 -3.5313 -0.4272  1.3806
19038TIP3   OH278604   0.130   1.887  12.432  0.2179  0.2024 -0.0293
19038TIP3    H178605   0.193   1.959  12.423  0.1749  0.2657  0.1702
19038TIP3    H278606   0.154   1.825  12.363 -0.9464  1.3036 -1.4263
19039TIP3   OH278607   4.557   4.206  12.559 -0.2816 -0.1850  0.2388
19039TIP3    H178608   4.534   4.137  12.497 -2.2310  1.9806 -1.5452
19039TIP3    H278609   4.518   4.285  12.523  0.8869  1.6711  2.8397
19040TIP3   OH278610   1.381   2.474  11.727 -0.5405 -0.3284  0.3846
19040TIP3    H178611   1.436   2.535  11.776  0.0416 -0.3480 -0.2452
19040TIP3    H278612   1.408   2.484  11.636 -0.4516 -1.5110  0.2686
19041TIP3   OH278613   0.902   2.166   4.991  0.0970  0.2957  0.3938
19041TIP3    H178614   0.827   2.222   5.010  1.1163  1.7598  0.1793
19041TIP3    H278615   0.903   2.102   5.062 -0.3351  1.3430  1.3546
19042TIP3   OH278616   4.103   2.890   2.051  1.0004  0.5315 -0.0941
19042TIP3    H178617   4.084   2.796   2.060 -0.0695  0.8060  0.5527
19042TIP3    H278618   4.174   2.905   2.114  0.6496  0.3070  0.3613
19043TIP3   OH278619   5.143   5.672  14.404  0.1158 -0.0550 -0.5156
19043TIP3    H178620   5.191   5.653  14.323 -0.7514 -1.8966 -0.6179
19043TIP3    H278621   5.057   5.633  14.391 -0.2513  0.1961  1.0449
19044TIP3   OH278622   4.279   0.932  16.351  0.8218  0.1069  0.4703
19044TIP3    H178623   4.264   0.860  16.412 -0.8004  0.8152  0.9484
19044TIP3    H278624   4.255   0.897  16.266  0.4432 -0.0558  0.6404
19045TIP3   OH278625   5.985   6.375   5.321 -0.0101 -0.3380  0.0381
19045TIP3    H178626   5.953   6.453   5.368 -0.8117 -0.4877 -0.2454
19045TIP3    H278627   6.009   6.408   5.234  0.5491 -0.2346  0.2334
19046TIP3   OH278628   2.446   4.001   3.620  0.1014 -0.3881  0.2519
19046TIP3    H178629   2.414   3.950   3.695 -1.9218  1.6137  0.8015
19046TIP3    H278630   2.452   4.091   3.653  1.8865  0.0556 -1.2106
19047TIP3   OH278631   4.467   4.770  13.137  0.0347 -0.1706  0.5541
19047TIP3    H178632   4.548   4.789  13.090  0.4401 -0.3200  1.1806
19047TIP3    H278633   4.417   4.851  13.133  0.7268  0.2945  1.1629
19048TIP3   OH278634   0.199   6.011   6.119 -0.0792 -0.2993  0.5230
19048TIP3    H178635   0.116   5.981   6.082 -1.2224  2.8029  0.5092
19048TIP3    H278636   0.254   6.028   6.043 -0.8026  1.4711  0.3825
19049TIP3   OH278637   5.092   5.478  12.482 -0.1699  0.3686  0.0579
19049TIP3    H178638   5.013   5.469  12.537 -1.2276 -0.3552 -1.5391
19049TIP3    H278639   5.154   5.415  12.519 -0.6464  0.3073  0.7830
19050TIP3   OH278640   4.834   1.044  13.178  0.0445 -0.2049 -0.5101
19050TIP3    H178641   4.808   1.134  13.196  0.4073  0.0197 -1.1097
19050TIP3    H278642   4.772   0.991  13.227 -0.2494  0.3706 -0.2604
19051TIP3   OH278643   6.185   0.227   1.572  0.6342  0.0858  0.1572
19051TIP3    H178644   6.242   0.216   1.495  0.2594 -3.2470  0.2507
19051TIP3    H278645   6.111   0.279   1.541  0.6384 -0.9752 -1.6798
19052TIP3   OH278646   2.433   2.842   4.087  0.1662 -0.2463  0.4751
19052TIP3    H178647   2.346   2.845   4.126 -0.0546 -0.9949  0.0476
19052TIP3    H278648   2.481   2.914   4.128 -1.1489  1.1812 -0.4248
19053TIP3   OH278649   0.891   3.246  13.227 -0.2806  0.6438  0.2539
19053TIP3    H178650   0.955   3.256  13.298  0.2441  0.6351 -0.2134
19053TIP3    H278651   0.943   3.254  13.147 -1.1764  2.8580 -0.1494
19054TIP3   OH278652   5.099   5.307  11.344  0.3495 -0.1314 -0.5895
19054TIP3    H178653   5.163   5.365  11.304 -0.5328  0.5484 -1.0458
19054TIP3    H278654   5.143   5.272  11.421  1.0136  0.8989 -0.4848
19055TIP3   OH278655   5.172   1.538   3.393 -0.3907 -0.0437  0.1807
19055TIP3    H178656   5.177   1.443   3.405 -2.0521 -0.2459 -0.6313
19055TIP3    H278657   5.079   1.558   3.397 -0.1388  1.4078 -0.7642
19056TIP3   OH278658   1.309   5.662  15.603  0.3348 -0.2110  0.2552
19056TIP3    H178659   1.354   5.665  15.688 -1.2311 -0.7730  1.1169
19056TIP3    H278660   1.277   5.572  15.596  1.0811 -0.3691 -1.2703
19057TIP3   OH278661   0.712   5.984  11.594  0.3147  0.0243 -0.0698
19057TIP3    H178662   0.733   6.050  11.528  1.3134  0.7131  0.9138
19057TIP3    H278663   0.686   6.035  11.671 -1.5393 -0.7843 -0.1457
19058TIP3   OH278664   3.133   1.908  15.279 -0.6484  0.6721 -0.3046
19058TIP3    H178665   3.167   1.821  15.300 -1.6670  0.6591  1.3776
19058TIP3    H278666   3.170   1.928  15.193 -1.3035 -1.8959 -1.2319
19059TIP3   OH278667   5.022   2.736  15.377 -0.0105 -0.0935 -0.4168
19059TIP3    H178668   5.062   2.691  15.451 -0.3080  0.0230 -0.1823
19059TIP3    H278669   5.051   2.688  15.300 -0.1760 -0.5734 -0.1773
19060TIP3   OH278670   3.474   5.178  13.288  0.2470 -0.2749 -0.5301
19060TIP3    H178671   3.483   5.257  13.342 -2.2527 -0.5630  0.3671
19060TIP3    H278672   3.489   5.208  13.198  1.0448  0.8629 -0.0304
19061TIP3   OH278673   4.439   1.932  15.190 -0.1033  0.5960 -0.0347
19061TIP3    H178674   4.367   1.897  15.244  0.6812 -0.8812  0.0941
19061TIP3    H278675   4.428   2.027  15.193 -1.3319  0.4303  0.9935
19062TIP3   OH278676   0.421   3.130  11.042  0.9224 -0.0277  0.1874
19062TIP3    H178677   0.358   3.097  11.106 -0.1015 -0.4922 -1.0560
19062TIP3    H278678   0.417   3.225  11.052  1.9832 -0.1490  1.9593
19063TIP3   OH278679   3.396   2.095   2.094  0.1816 -0.2937 -0.7474
19063TIP3    H178680   3.407   2.003   2.067  1.0963 -0.3268 -0.2914
19063TIP3    H278681   3.460   2.142   2.041  0.5301 -0.0767 -0.1345
19064TIP3   OH278682   2.154   5.268   4.582 -0.1667 -0.0337  0.4171
19064TIP3    H178683   2.075   5.321   4.581 -1.3131 -1.7165 -0.9471
19064TIP3    H278684   2.215   5.315   4.524 -1.0698 -0.0180 -0.5455
19065TIP3   OH278685   1.028   2.994   0.126  0.2608 -0.5250 -0.7766
19065TIP3    H178686   1.037   3.070   0.183 -1.4185  0.1849 -1.4485
19065TIP3    H278687   1.074   3.018   0.046 -1.8181  0.5134 -1.6835
19066TIP3   OH278688   3.391   4.655   0.612  0.1606  0.1843 -0.2740
19066TIP3    H178689   3.326   4.589   0.586  0.1928 -0.0496  0.2288
19066TIP3    H278690   3.426   4.622   0.695  1.7134 -0.2545 -1.0837
19067TIP3   OH278691   6.711   4.580   1.930 -0.3098  0.0932 -0.4719
19067TIP3    H178692   6.727   4.606   2.020 -0.9681 -1.1442  0.0091
19067TIP3    H278693   6.787   4.614   1.881  0.1578  0.5578  0.5662
19068TIP3   OH278694   1.331   6.389   0.503  0.0573  0.3424 -0.1411
19068TIP3    H178695   1.261   6.439   0.461  0.8343  0.6314 -1.0988
19068TIP3    H278696   1.412   6.429   0.471  0.6743 -0.8551 -0.1145
19069TIP3   OH278697   3.647   4.714   4.736 -0.4235  0.3000 -0.0990
19069TIP3    H178698   3.601   4.652   4.680 -2.1531  1.2312  0.2553
19069TIP3    H278699   3.608   4.702   4.822 -0.8326  1.8915 -0.0399
19070TIP3   OH278700   6.218   1.715  13.694 -0.0977  0.4109  0.0781
19070TIP3    H178701   6.247   1.649  13.758  3.3587  1.1450 -0.6286
19070TIP3    H278702   6.124   1.722  13.708  0.1736 -1.3733  3.2702
19071TIP3   OH278703   6.124   6.511  11.805 -0.3028 -0.2280  0.2486
19071TIP3    H178704   6.165   6.585  11.849 -0.7097 -0.4023  0.9158
19071TIP3    H278705   6.101   6.545  11.718  1.8372 -0.3185 -0.3767
19072TIP3   OH278706   3.825   1.147   6.297  0.1543 -0.1147 -0.2257
19072TIP3    H178707   3.832   1.162   6.392  0.2589  3.0961 -0.7060
19072TIP3    H278708   3.889   1.079   6.279  0.7781 -0.1273  1.8707
19073TIP3   OH278709   4.854   6.623   1.524  0.0581 -0.2068  0.4184
19073TIP3    H178710   4.804   6.686   1.576 -0.2536  1.3475 -1.7200
19073TIP3    H278711   4.915   6.583   1.586  0.8983  2.8661  1.6363
19074TIP3   OH278712   2.948   2.969  10.821  0.6446 -0.2634 -0.4893
19074TIP3    H178713   2.990   2.950  10.737  1.9081  1.8623 -0.3792
19074TIP3    H278714   2.858   2.992  10.799  0.6452 -0.8773 -1.1465
19075TIP3   OH278715   6.051   3.968   1.718 -0.1061 -0.2247 -0.2781
19075TIP3    H178716   6.049   3.877   1.686  0.1068 -0.4821  0.4272
19075TIP3    H278717   6.113   4.012   1.660 -0.7867 -0.3369 -1.1123
19076TIP3   OH278718   0.798   5.873  11.978 -0.3307 -0.3908 -0.5022
19076TIP3    H178719   0.848   5.838  11.904  1.8634  1.8969 -0.1944
19076TIP3    H278720   0.708   5.879  11.947  0.2512 -1.1392 -2.3786
19077TIP3   OH278721   6.238   4.550   4.283  0.3598  0.7151  0.3080
19077TIP3    H178722   6.173   4.533   4.215  0.7659 -2.1473  0.5608
19077TIP3    H278723   6.322   4.546   4.237  0.4902  2.1567  0.3934
19078TIP3   OH278724   1.777   5.140  12.432  0.2522 -0.1551  0.1155
19078TIP3    H178725   1.818   5.123  12.517 -0.3119 -2.3080  0.0079
19078TIP3    H278726   1.712   5.207  12.449 -0.6383 -1.3749  1.6623
19079TIP3   OH278727   3.634   4.370   1.311  0.4276  0.3905  0.0827
19079TIP3    H178728   3.592   4.367   1.397 -0.3367 -0.1309 -0.3030
19079TIP3    H278729   3.657   4.279   1.292  2.2243  0.7484  0.5248
19080TIP3   OH278730   3.518   4.187   0.236 -0.2277 -0.0531  0.6037
19080TIP3    H178731   3.582   4.125   0.270  0.2195 -1.0401 -2.0087
19080TIP3    H278732   3.439   4.135   0.220 -0.4286  0.4068  0.0860
19081TIP3   OH278733   6.696   5.215   0.999  0.1579 -0.4643  0.0987
19081TIP3    H178734   6.645   5.234   0.920 -0.3933 -1.8892  0.0928
19081TIP3    H278735   6.631   5.197   1.066  0.6349  0.3993  0.8054
19082TIP3   OH278736   3.291   3.207  12.946 -0.2187 -0.8219  0.2791
19082TIP3    H178737   3.244   3.125  12.960  0.3427 -1.0550  0.8068
19082TIP3    H278738   3.266   3.234  12.857 -0.0350 -1.8066 -0.0793
19083TIP3   OH278739   1.425   4.886  13.670  0.0609 -0.4666  0.3676
19083TIP3    H178740   1.513   4.904  13.703 -0.4049  0.7818  0.9966
19083TIP3    H278741   1.402   4.965  13.620 -1.1275 -0.3044  1.1470
19084TIP3   OH278742   1.201   5.432   2.571  0.5125  0.0454 -0.1482
19084TIP3    H178743   1.181   5.367   2.638 -1.0994 -0.0661 -0.7123
19084TIP3    H278744   1.292   5.416   2.547 -0.1745 -2.6959 -1.0411
19085TIP3   OH278745   5.809   2.221   3.585 -0.7674 -1.0387  0.8038
19085TIP3    H178746   5.868   2.145   3.591 -0.9511 -1.1622  1.0556
19085TIP3    H278747   5.858   2.285   3.534  0.1601 -0.6139  2.1927
19086TIP3   OH278748   1.173   2.816   0.309  0.0990 -0.0501  0.4656
19086TIP3    H178749   1.259   2.777   0.291 -0.0676 -0.5533  0.7424
19086TIP3    H278750   1.146   2.854   0.226 -0.9601 -2.9046 -0.5652
19087TIP3   OH278751   1.826   1.745  14.679 -0.4924 -0.0793  0.2266
19087TIP3    H178752   1.738   1.709  14.676 -0.7772  0.6081  0.1711
19087TIP3    H278753   1.815   1.837  14.653  0.5616 -0.5904 -2.1845
19088TIP3   OH278754   1.248   1.784  13.306  0.0030 -0.1865  0.0609
19088TIP3    H178755   1.334   1.769  13.266 -0.8953 -0.7705 -1.6658
19088TIP3    H278756   1.257   1.869  13.350  1.1294  0.2521 -1.0005
19089TIP3   OH278757   3.767   3.867   5.961  0.5027 -0.0119 -0.2284
19089TIP3    H178758   3.827   3.794   5.980 -3.0448 -3.2700 -1.0999
19089TIP3    H278759   3.751   3.862   5.867 -0.1583  1.6863 -0.2283
19090TIP3   OH278760   0.080   5.723   0.760 -0.1118  0.1942  0.4932
19090TIP3    H178761   0.097   5.809   0.722  1.1328  0.1870  1.0053
19090TIP3    H278762   0.034   5.740   0.842 -1.7897  0.2642 -0.4499
19091TIP3   OH278763   0.721   2.263  11.888 -0.4815  0.0254  0.1458
19091TIP3    H178764   0.690   2.243  11.800  1.3153  0.5731 -0.6229
19091TIP3    H278765   0.751   2.178  11.923 -0.8796 -0.1312  0.1096
19092TIP3   OH278766   2.914   2.627   2.872 -0.1596 -1.1122  0.0656
19092TIP3    H178767   2.868   2.619   2.955 -1.4808  0.8214 -0.4560
19092TIP3    H278768   2.954   2.713   2.874 -0.2101 -1.0410 -1.2927
19093TIP3   OH278769   6.405   0.394   6.288 -0.0324  0.4113  0.0671
19093TIP3    H178770   6.321   0.367   6.252 -0.3036 -0.1382  1.0911
19093TIP3    H278771   6.383   0.449   6.363  0.5235  0.8054 -0.0512
19094TIP3   OH278772   0.540   0.284   3.565 -0.0471  0.2042  0.9479
19094TIP3    H178773   0.452   0.273   3.600 -0.7579 -0.1126 -0.9136
19094TIP3    H278774   0.570   0.196   3.545 -0.1499  0.4769 -0.4398
19095TIP3   OH278775   5.844   0.307  11.700  0.0689  0.3011  0.4918
19095TIP3    H178776   5.869   0.240  11.763  0.5613  0.5595  0.5659
19095TIP3    H278777   5.806   0.377  11.754  0.9925  0.7572  0.5463
19096TIP3   OH278778   4.834   6.222  12.620  0.0274 -0.4768 -0.3720
19096TIP3    H178779   4.874   6.284  12.560  0.8892  0.0856  0.7605
19096TIP3    H278780   4.860   6.136  12.588  2.0187 -0.1248  0.2336
19097TIP3   OH278781   0.330   0.041   5.376  0.2614  0.2662  0.7346
19097TIP3    H178782   0.420   0.010   5.362 -0.7448 -0.8660 -4.0604
19097TIP3    H278783   0.285  -0.036   5.411  1.1856  0.9455  3.5119
19098TIP3   OH278784   6.232   2.075   4.617  0.1807  0.2195  0.2836
19098TIP3    H178785   6.182   1.994   4.603 -1.3372  0.8125  1.9446
19098TIP3    H278786   6.253   2.074   4.711  1.8573  0.8141 -0.0682
19099TIP3   OH278787   6.181   6.066  11.431  0.1627  0.2920  0.4314
19099TIP3    H178788   6.146   6.083  11.518 -1.2105 -1.8876  0.3353
19099TIP3    H278789   6.108   6.083  11.372  1.1202  1.8757 -0.3215
19100TIP3   OH278790   1.217   6.108   1.783  0.1823 -0.2589  0.4281
19100TIP3    H178791   1.265   6.054   1.845  3.9036  0.7069 -1.4483
19100TIP3    H278792   1.181   6.045   1.720 -0.2301 -0.9145  1.2981
19101TIP3   OH278793   2.979   6.272   2.386  0.7691  0.4475 -0.7268
19101TIP3    H178794   3.072   6.258   2.369  0.9636  0.6375  0.1470
19101TIP3    H278795   2.963   6.363   2.362  1.0873  0.7732  0.2556
19102TIP3   OH278796   3.750   0.979  17.034  0.1215  0.2341  0.6010
19102TIP3    H178797   3.658   0.994  17.011  0.4230 -0.5657 -1.1886
19102TIP3    H278798   3.768   1.043  17.103 -2.3306 -0.9187  2.3840
19103TIP3   OH278799   1.851   4.937   5.898 -0.1682 -0.0596  0.1039
19103TIP3    H178800   1.805   4.888   5.830  1.5719 -0.2803 -0.9428
19103TIP3    H278801   1.781   4.977   5.950 -1.5258  0.0436 -1.7584
19104TIP3   OH278802   5.573   6.659  12.535  0.2366 -0.2071  0.4572
19104TIP3    H178803   5.553   6.720  12.605  1.6598 -0.4562  1.0944
19104TIP3    H278804   5.522   6.581  12.555 -0.2576  0.1434  0.5710
19105TIP3   OH278805   4.367   0.151  13.740  0.3885 -0.3540  0.2033
19105TIP3    H178806   4.364   0.064  13.700 -0.3637 -0.1468 -0.2114
19105TIP3    H278807   4.306   0.204  13.687 -0.4007  0.0037  1.4396
19106TIP3   OH278808   2.538   4.809   3.004 -0.5187  0.7231  0.1396
19106TIP3    H178809   2.471   4.855   2.954 -1.9407  0.8976  2.1655
19106TIP3    H278810   2.500   4.798   3.091  0.4567 -2.7161  0.2211
19107TIP3   OH278811   5.834   2.888   4.963 -0.1360 -0.3262  1.0661
19107TIP3    H178812   5.805   2.898   4.873  1.6658 -1.2516  0.3548
19107TIP3    H278813   5.837   2.977   4.998 -0.8121  0.0402  0.2166
19108TIP3   OH278814   2.403   5.654   0.627 -0.2105  0.3704 -0.2853
19108TIP3    H178815   2.384   5.677   0.536  0.8529  1.1654 -0.3152
19108TIP3    H278816   2.495   5.628   0.627  0.1196  1.4706  0.7462
19109TIP3   OH278817   4.551   6.510   5.058 -0.2862 -0.2780 -0.4125
19109TIP3    H178818   4.534   6.487   5.149  0.2239  0.5623 -0.1032
19109TIP3    H278819   4.469   6.549   5.027 -0.4867 -0.6424 -0.3442
19110TIP3   OH278820   1.163   3.302   6.044 -0.1285 -0.1720  0.4160
19110TIP3    H178821   1.210   3.255   6.113  0.7469  1.4472  0.9436
19110TIP3    H278822   1.192   3.261   5.963  1.2482  0.0014  0.8210
19111TIP3   OH278823   3.882   6.349  11.994  0.1026  0.5566 -0.0591
19111TIP3    H178824   3.936   6.276  11.963 -0.9242 -0.2604  0.0435
19111TIP3    H278825   3.899   6.354  12.088 -0.3726 -0.0122  0.0557
19112TIP3   OH278826   4.275   3.574   4.537  0.0995 -0.0729 -0.3253
19112TIP3    H178827   4.368   3.595   4.533 -0.0294  0.6576  0.3387
19112TIP3    H278828   4.239   3.639   4.596 -0.6006 -1.1972  0.4918
19113TIP3   OH278829   6.803   5.063   2.123  0.3079  0.8275 -0.4657
19113TIP3    H178830   6.729   5.008   2.098  0.7695 -0.3063  0.5574
19113TIP3    H278831   6.833   5.103   2.041 -0.4327  0.0304 -1.1298
19114TIP3   OH278832   2.876   3.143   1.239 -0.0167  0.4162  0.5159
19114TIP3    H178833   2.961   3.126   1.279  0.4990  1.0394 -0.2746
19114TIP3    H278834   2.871   3.079   1.167  0.6934  1.6948 -0.7055
19115TIP3   OH278835   6.698   0.207  11.178 -0.6455 -0.2276  0.3029
19115TIP3    H178836   6.635   0.204  11.250 -0.4016  0.5468  0.5511
19115TIP3    H278837   6.660   0.152  11.110 -0.3144 -1.9616  1.4855
19116TIP3   OH278838   4.474   0.609  12.527  0.3164 -0.0564  0.1715
19116TIP3    H178839   4.522   0.554  12.589  0.1525  0.8227  1.0923
19116TIP3    H278840   4.413   0.549  12.485  0.8002 -0.7716  0.4777
19117TIP3   OH278841   5.673   1.315   3.938  0.5721  0.3318 -0.1002
19117TIP3    H178842   5.630   1.232   3.918  1.7950 -0.5283  0.8040
19117TIP3    H278843   5.625   1.348   4.014  1.8870 -0.9313  1.2965
19118TIP3   OH278844   3.795   4.180  13.478  0.8432  0.3215 -0.3792
19118TIP3    H178845   3.889   4.162  13.481  1.2455  2.3881  0.8957
19118TIP3    H278846   3.755   4.096  13.455  3.0731 -0.2900 -2.2565
19119TIP3   OH278847   2.845   0.564  11.546  0.1376  0.0911  0.4226
19119TIP3    H178848   2.869   0.651  11.580 -0.5987  0.5956 -0.3176
19119TIP3    H278849   2.923   0.511  11.560  1.1596  1.2949 -0.4990
19120TIP3   OH278850   1.152   0.770   0.665  0.4187  0.1687  0.0763
19120TIP3    H178851   1.153   0.682   0.629 -0.7333 -0.0069  0.4750
19120TIP3    H278852   1.060   0.797   0.663  0.7158  1.2386  0.2454
19121TIP3   OH278853   0.868   1.108  11.708  0.8016 -0.5063  0.5415
19121TIP3    H178854   0.893   1.143  11.793  0.7124 -3.4259  1.7987
19121TIP3    H278855   0.774   1.090  11.716  0.1241  1.9432 -1.1828
19122TIP3   OH278856   0.265   5.593   0.432 -0.1585 -0.0283  0.5038
19122TIP3    H178857   0.170   5.591   0.442 -0.1441  2.4859  1.5167
19122TIP3    H278858   0.281   5.638   0.349  0.1533  0.0942  0.6271
19123TIP3   OH278859   5.904   6.082  11.335 -0.1206  0.1708 -0.4751
19123TIP3    H178860   5.847   6.051  11.264 -1.3161  2.3062 -0.4768
19123TIP3    H278861   5.861   6.052  11.415 -0.8714  1.1551 -0.5060
19124TIP3   OH278862   3.383   4.047  15.238  0.1491  0.2483  0.2930
19124TIP3    H178863   3.459   4.047  15.179  0.5119 -1.5488  0.7409
19124TIP3    H278864   3.309   4.066  15.180  0.6805 -0.0997 -0.5160
19125TIP3   OH278865   5.353   4.915  17.094  0.3028 -0.1370 -0.3596
19125TIP3    H178866   5.408   4.953  17.162  0.7738 -1.9417  0.3118
19125TIP3    H278867   5.374   4.965  17.015  1.9368  0.0733  0.1806
19126TIP3   OH278868   3.674   4.734  15.666  0.0879  0.7812  0.1448
19126TIP3    H178869   3.673   4.718  15.571  0.3423 -1.5244  0.5051
19126TIP3    H278870   3.596   4.788  15.681  0.2521  1.5093 -1.4112
19127TIP3   OH278871   6.145   0.985   2.879  0.1090  0.0277 -0.7575
19127TIP3    H178872   6.177   1.069   2.849  0.6776 -0.4422 -1.4640
19127TIP3    H278873   6.207   0.921   2.844  1.1667 -0.4841  1.9338
19128TIP3   OH278874   0.852   5.919   0.564 -0.1153  0.0291 -0.2259
19128TIP3    H178875   0.877   6.009   0.587 -0.1195 -0.0139 -0.0538
19128TIP3    H278876   0.769   5.928   0.517 -1.1927 -0.0621  1.6193
19129TIP3   OH278877   3.827   4.267  15.531  0.2312  0.3309  0.8211
19129TIP3    H178878   3.736   4.240  15.519  0.6887 -0.8131 -0.1335
19129TIP3    H278879   3.868   4.253  15.445  1.5941 -0.3003  1.5583
19130TIP3   OH278880   0.714   3.030  15.502  0.1334 -0.1900 -0.1608
19130TIP3    H178881   0.670   3.098  15.552  0.0920  0.1177 -0.6118
19130TIP3    H278882   0.792   3.009  15.552  0.8017  1.0839 -0.6511
19131TIP3   OH278883   3.623   4.683  14.136 -0.3583  0.3661  0.0990
19131TIP3    H178884   3.585   4.622  14.072 -1.6547 -0.8609  2.0065
19131TIP3    H278885   3.556   4.751  14.146  0.8637  1.8763 -1.6271
19132TIP3   OH278886   3.428   2.748   6.064  0.2713 -0.2950 -0.0937
19132TIP3    H178887   3.430   2.701   6.147  2.4066  0.4882  0.3416
19132TIP3    H278888   3.419   2.840   6.089  2.6854  0.1140 -0.6017
19133TIP3   OH278889   5.265   5.341   3.758  0.0499 -0.8327  0.5093
19133TIP3    H178890   5.339   5.359   3.817  0.4725 -2.0934  0.3753
19133TIP3    H278891   5.188   5.340   3.816  0.4521 -1.9694  1.0443
19134TIP3   OH278892   2.646   1.927  15.306  0.2790  0.9749  0.2427
19134TIP3    H178893   2.632   2.021  15.293 -0.4026  0.9610  0.8405
19134TIP3    H278894   2.725   1.922  15.359  0.5287  1.1942 -0.1015
19135TIP3   OH278895   5.184   1.394  16.798 -0.0236  0.4258  0.7549
19135TIP3    H178896   5.114   1.329  16.807  0.0285  0.2758  0.0696
19135TIP3    H278897   5.150   1.472  16.841  0.7456 -0.6923  3.5306
19136TIP3   OH278898   1.117   6.102  12.051 -0.6591  0.6584  0.0973
19136TIP3    H178899   1.068   6.138  11.978  0.5969  1.5753 -0.3076
19136TIP3    H278900   1.196   6.155  12.056 -0.1617 -0.1636  1.3623
19137TIP3   OH278901   6.800   3.980  11.617  0.2113  0.4173  0.3026
19137TIP3    H178902   6.790   3.936  11.533  1.0291  1.2476 -0.2370
19137TIP3    H278903   6.711   3.986  11.652 -0.2610  0.9763 -0.9731
19138TIP3   OH278904   5.196   5.515  13.657 -0.0492 -0.0991 -0.7684
19138TIP3    H178905   5.112   5.535  13.698 -0.1140  0.5337 -1.2050
19138TIP3    H278906   5.196   5.566  13.576 -0.0816 -1.6296 -1.7370
19139TIP3   OH278907   2.534   5.229  11.107  0.0105  0.1266  0.4461
19139TIP3    H178908   2.501   5.269  11.027  0.9190 -2.8234 -1.4518
19139TIP3    H278909   2.605   5.288  11.135 -0.0585  0.9881 -1.1114
19140TIP3   OH278910   4.757   2.745  16.801  0.1324  0.6637 -0.3565
19140TIP3    H178911   4.679   2.798  16.784 -0.1199  0.2374 -0.5408
19140TIP3    H278912   4.794   2.729  16.714  1.3858  2.2924 -0.1550
19141TIP3   OH278913   0.534   6.526  15.882  0.3692  0.4833  0.1993
19141TIP3    H178914   0.475   6.523  15.958 -1.6354 -0.5553 -1.3512
19141TIP3    H278915   0.594   6.453  15.897 -0.1691  0.1273  0.6853
19142TIP3   OH278916   5.126   3.879  14.457  0.2669  0.5727  0.0802
19142TIP3    H178917   5.068   3.808  14.428  1.1578 -0.0647 -0.1561
19142TIP3    H278918   5.158   3.918  14.376 -1.5294  2.3624  0.1807
19143TIP3   OH278919   1.749   1.681   1.063 -0.1812 -0.0956 -0.0697
19143TIP3    H178920   1.692   1.734   1.007  1.9791  0.4455 -1.8252
19143TIP3    H278921   1.749   1.727   1.147 -1.5694  0.3996 -0.3168
19144TIP3   OH278922   0.063   0.274   1.685  0.3214  0.2405  0.5194
19144TIP3    H178923   0.109   0.269   1.769  0.0519  1.6774  0.7636
19144TIP3    H278924   0.009   0.352   1.692 -2.7891 -1.8414  0.5105
19145TIP3   OH278925   3.312   6.024   2.535  0.2070  0.2819  0.7022
19145TIP3    H178926   3.348   6.101   2.579 -1.6855  1.1763  0.7388
19145TIP3    H278927   3.281   6.057   2.450  1.0777 -0.8283 -0.0673
19146TIP3   OH278928   2.578   0.993   0.839 -0.1602 -0.2914 -0.0881
19146TIP3    H178929   2.486   0.995   0.864 -0.7450 -0.1173 -2.1152
19146TIP3    H278930   2.609   0.907   0.865 -0.8981 -0.3581  0.5863
19147TIP3   OH278931   3.794   2.517  14.389 -0.6901 -0.1065  0.8834
19147TIP3    H178932   3.711   2.511  14.342 -1.1591 -0.8527  1.7966
19147TIP3    H278933   3.798   2.607  14.420  0.1932  0.7564 -1.6037
19148TIP3   OH278934   4.521   4.219  15.658  0.6383  0.2310 -0.0390
19148TIP3    H178935   4.607   4.213  15.617  1.1065 -0.5640  1.0168
19148TIP3    H278936   4.539   4.250  15.747 -0.0479 -0.9333  0.5247
19149TIP3   OH278937   5.331   4.767  12.772  0.5818 -0.0509 -0.1811
19149TIP3    H178938   5.368   4.749  12.859  0.4575  1.5444  0.2092
19149TIP3    H278939   5.401   4.744  12.711  0.7514 -0.9604  0.3395
19150TIP3   OH278940   5.973   4.328  12.513  0.1043  0.3127  0.1777
19150TIP3    H178941   5.976   4.312  12.419 -0.0335 -0.5317  0.3086
19150TIP3    H278942   5.992   4.421  12.523 -2.5239  1.0154 -0.8832
19151TIP3   OH278943   2.877   2.335  13.146 -0.2551 -0.1768 -0.0182
19151TIP3    H178944   2.794   2.308  13.107 -0.6022  0.0748  0.5462
19151TIP3    H278945   2.944   2.298  13.088 -0.7678  3.0758 -2.8420
19152TIP3   OH278946   5.774   2.020  14.499 -0.0986 -0.3258  0.6377
19152TIP3    H178947   5.709   2.010  14.429  1.2375 -0.1937 -0.6617
19152TIP3    H278948   5.847   2.064  14.456  0.6795 -0.0926  2.1861
19153TIP3   OH278949   5.169   6.031  13.481  0.2958  0.1819  0.1570
19153TIP3    H178950   5.244   6.066  13.432 -0.6040 -2.7094 -3.4818
19153TIP3    H278951   5.191   5.939  13.496 -2.4776 -0.6948 -0.9537
19154TIP3   OH278952   5.158   2.724   3.019 -0.5782 -0.3151  0.0094
19154TIP3    H178953   5.206   2.780   2.958 -0.1577 -1.5557 -0.8182
19154TIP3    H278954   5.066   2.747   3.005 -0.3764  0.5041  0.0202
19155TIP3   OH278955   1.391   5.638   1.129 -0.9013  0.3495 -0.0224
19155TIP3    H178956   1.319   5.577   1.136 -0.6543  0.1405  0.7577
19155TIP3    H278957   1.359   5.718   1.171 -0.2419 -0.1474  1.4432
19156TIP3   OH278958   6.400   0.797   4.685  0.4023 -0.3778 -0.3061
19156TIP3    H178959   6.375   0.732   4.619  1.0842 -0.7780 -0.1669
19156TIP3    H278960   6.329   0.862   4.682  0.7569 -0.0548 -1.8771
19157TIP3   OH278961   3.193   4.191  15.775  0.0970 -0.6722  0.7141
19157TIP3    H178962   3.133   4.266  15.763 -1.8636 -2.0193  1.8106
19157TIP3    H278963   3.268   4.212  15.719 -0.9880  1.5050 -0.0088
19158TIP3   OH278964   4.147   3.697  12.466  0.2527 -0.1151 -0.0241
19158TIP3    H178965   4.078   3.761  12.482  1.2800  0.9598  0.1202
19158TIP3    H278966   4.209   3.709  12.538 -1.1375 -3.5021  1.8594
19159TIP3   OH278967   0.566   4.013  11.454 -0.0460 -0.1236 -0.2111
19159TIP3    H178968   0.561   4.089  11.512 -3.5211 -1.4180  1.3175
19159TIP3    H278969   0.652   3.974  11.473 -1.5136 -1.1858  5.0688
19160TIP3   OH278970   6.785   5.733  16.272 -0.5082  0.3471  0.8028
19160TIP3    H178971   6.797   5.688  16.188  0.8077 -1.0871  1.7429
19160TIP3    H278972   6.754   5.665  16.332  1.4163  0.6769  2.2174
19161TIP3   OH278973   4.654   5.165  16.511  0.6784 -0.0791  0.0639
19161TIP3    H178974   4.706   5.100  16.464 -0.3311  0.0736 -1.3246
19161TIP3    H278975   4.699   5.248  16.493 -0.2027  0.0994 -1.4236
19162TIP3   OH278976   4.067   0.091  14.523  0.2046 -0.1706 -0.0053
19162TIP3    H178977   4.158   0.063  14.518 -0.3658 -2.0702 -0.3794
19162TIP3    H278978   4.023   0.022  14.573 -1.0642  0.6039 -0.0176
19163TIP3   OH278979   2.907   4.195  10.745  0.4896  0.6844  0.1165
19163TIP3    H178980   2.813   4.204  10.729  0.4666  1.2000  0.5184
19163TIP3    H278981   2.938   4.136  10.676 -0.4098 -0.7768  0.9422
19164TIP3   OH278982   1.171   6.286  12.971  0.5967  0.4711 -0.2589
19164TIP3    H178983   1.186   6.379  12.990  0.9216  0.1727  0.9787
19164TIP3    H278984   1.241   6.240  13.019 -0.0545 -0.4672 -0.1950
19165TIP3   OH278985   1.550   5.240   0.988 -0.4859 -0.0006 -0.0258
19165TIP3    H178986   1.617   5.305   1.011  0.1454 -0.9740  0.9388
19165TIP3    H278987   1.590   5.189   0.917  0.2822 -1.2971  1.2948
19166TIP3   OH278988   5.720   1.554  17.061  0.5350  0.1006  0.0266
19166TIP3    H178989   5.664   1.583  17.133  0.1557  0.6661 -0.4889
19166TIP3    H278990   5.660   1.540  16.988  0.9143 -0.4922 -0.1768
19167TIP3   OH278991   2.462   6.571   1.277  0.3321 -0.2322  0.5163
19167TIP3    H178992   2.445   6.612   1.192  0.2862 -0.9006  0.2056
19167TIP3    H278993   2.422   6.631   1.340  3.5564  2.2011  0.3824
19168TIP3   OH278994   3.472   4.500   3.636  0.7538 -0.1032 -0.0799
19168TIP3    H178995   3.517   4.520   3.554  1.3175 -0.5281  0.1224
19168TIP3    H278996   3.379   4.511   3.616  0.9272  0.4196 -0.6007
19169TIP3   OH278997   0.266   0.545  14.118  0.2411  0.0874  0.1391
19169TIP3    H178998   0.291   0.632  14.147  0.8096 -0.0039 -0.0810
19169TIP3    H278999   0.332   0.520  14.054  1.3536 -1.4053  1.8287
19170TIP3   OH279000   3.128   6.493  16.808  0.1742 -0.2017 -0.4173
19170TIP3    H179001   3.123   6.475  16.902 -0.5610 -0.7483 -0.5566
19170TIP3    H279002   3.095   6.582  16.799 -2.4850 -1.1548 -0.4669
19171TIP3   OH279003   1.061   0.164   6.054 -0.6096  0.2181  0.2867
19171TIP3    H179004   1.006   0.085   6.063 -0.5921  0.2426  0.6466
19171TIP3    H279005   1.142   0.142   6.100 -0.7526  0.5801  0.7232
19172TIP3   OH279006   2.715   0.457   3.108  0.3089 -0.2868  0.1202
19172TIP3    H179007   2.752   0.545   3.118 -0.4132 -0.0565  0.8666
19172TIP3    H279008   2.622   0.469   3.124  0.1149 -1.0821 -0.4329
19173TIP3   OH279009   4.718   3.753  15.031  0.0315  0.2062 -0.4314
19173TIP3    H179010   4.711   3.846  15.012  0.2362  0.4998  0.9194
19173TIP3    H279011   4.812   3.734  15.025  0.3401  0.7363  2.2430
19174TIP3   OH279012   6.777   3.524  11.976 -0.0302 -0.5104 -0.1172
19174TIP3    H179013   6.728   3.476  11.909 -0.8451 -1.7812  1.3515
19174TIP3    H279014   6.860   3.477  11.984 -0.4418 -1.1166  0.6432
19175TIP3   OH279015   4.790   5.089  12.118 -0.0195 -0.2382 -0.1897
19175TIP3    H179016   4.865   5.079  12.060  0.0057  0.9323 -0.3668
19175TIP3    H279017   4.825   5.129  12.197 -0.4132  0.0774 -0.1728
19176TIP3   OH279018   6.731   2.884   2.685 -0.1328 -0.5588 -0.5954
19176TIP3    H179019   6.775   2.929   2.613  0.2197  1.5896  0.8998
19176TIP3    H279020   6.641   2.871   2.654 -0.0649  0.6140 -1.3245
19177TIP3   OH279021   0.492   6.515  11.902  0.3364 -0.1868  0.2673
19177TIP3    H179022   0.456   6.576  11.966 -0.9885 -1.8747  1.1657
19177TIP3    H279023   0.586   6.535  11.900 -0.1948  2.6027 -0.2882
19178TIP3   OH279024   2.999   5.247   4.485 -0.0514  0.0832  0.5862
19178TIP3    H179025   3.094   5.251   4.476 -0.1878  0.8648 -0.7844
19178TIP3    H279026   2.984   5.189   4.559  1.4896 -0.1110  0.7705
19179TIP3   OH279027   5.267   4.772   1.302 -0.0553  0.2487 -0.5192
19179TIP3    H179028   5.189   4.800   1.254  0.2893  1.9642 -0.1178
19179TIP3    H279029   5.276   4.679   1.281 -0.6278  0.6585 -2.7507
19180TIP3   OH279030   1.554   2.880   4.905  0.6114 -0.0688 -0.1015
19180TIP3    H179031   1.500   2.810   4.940  0.2748 -0.6237 -1.6717
19180TIP3    H279032   1.583   2.929   4.981 -0.1102 -1.2226  0.9258
19181TIP3   OH279033   5.116   4.456   1.620  0.5821 -0.5888  0.2443
19181TIP3    H179034   5.195   4.457   1.673  0.5350  1.4385  0.3186
19181TIP3    H279035   5.046   4.481   1.680  0.6345  2.4197 -0.8731
19182TIP3   OH279036   3.567   1.563   1.420  0.3757 -0.2115 -0.4082
19182TIP3    H179037   3.598   1.521   1.500  1.4825 -2.4368 -1.9682
19182TIP3    H279038   3.646   1.578   1.368 -0.5393 -0.8699 -2.0547
19183TIP3   OH279039   5.040   2.043  14.704  0.0001  0.2495  0.8109
19183TIP3    H179040   4.975   1.975  14.684  0.6527 -0.0945 -0.1377
19183TIP3    H279041   5.014   2.117  14.650  0.2053  0.2299  0.6884
19184TIP3   OH279042   2.486   4.506  12.848  0.2652 -0.4229  0.5426
19184TIP3    H179043   2.512   4.592  12.817  0.0189 -0.5086  0.0919
19184TIP3    H279044   2.413   4.480  12.791  0.1605 -0.8134  0.8444
19185TIP3   OH279045   6.357   0.298  17.066 -0.0487  0.6661 -0.0361
19185TIP3    H179046   6.448   0.321  17.083  0.2737  0.1881 -1.0457
19185TIP3    H279047   6.350   0.206  17.093  0.6997 -0.3818 -3.1342
19186TIP3   OH279048   2.734   2.962  16.477  0.6172  0.0250 -0.7019
19186TIP3    H179049   2.651   2.943  16.434  0.7558  1.4260 -1.6557
19186TIP3    H279050   2.713   2.964  16.570 -0.5061  0.7077 -0.9520
19187TIP3   OH279051   3.434   4.101  10.856  0.4041 -0.3993  0.8134
19187TIP3    H179052   3.345   4.122  10.825  0.7204  0.0471  0.1934
19187TIP3    H279053   3.420   4.046  10.932 -0.4082 -0.6233  0.5111
19188TIP3   OH279054   6.212   4.618   2.084  0.3689  0.0266 -0.2750
19188TIP3    H179055   6.137   4.628   2.142  0.7724  1.3634  0.0371
19188TIP3    H279056   6.192   4.540   2.032 -1.4063  0.5845 -0.4639
19189TIP3   OH279057   2.253   3.593  11.207 -0.0612 -0.3866  0.1386
19189TIP3    H179058   2.343   3.586  11.238  0.3976  1.2291 -0.8079
19189TIP3    H279059   2.207   3.521  11.251  0.8800  0.9582  3.4678
19190TIP3   OH279060   2.274   5.400   1.188 -0.0622  0.0069  0.0805
19190TIP3    H179061   2.306   5.452   1.262 -1.0072  2.8687 -1.4627
19190TIP3    H279062   2.347   5.398   1.126 -0.7635  1.3838 -0.8074
19191TIP3   OH279063   2.702   3.563  13.406  0.1210  0.3446  0.4984
19191TIP3    H179064   2.737   3.535  13.322  1.3030  0.1213  1.0398
19191TIP3    H279065   2.656   3.644  13.388  2.4583  1.6167  0.0121
19192TIP3   OH279066   2.036   5.356  16.662 -0.4213 -0.2993 -0.2026
19192TIP3    H179067   2.104   5.409  16.704 -0.1306 -1.6218  1.0030
19192TIP3    H279068   2.064   5.352  16.570  1.0469 -0.6639  0.2367
19193TIP3   OH279069   6.794   4.306  13.634 -0.2227  0.0522  0.0397
19193TIP3    H179070   6.789   4.347  13.720  2.7957 -1.4008  0.9903
19193TIP3    H279071   6.858   4.359  13.586  0.3709 -0.9004 -0.2385
19194TIP3   OH279072   1.214   6.224  17.151  0.1011  0.1825 -0.1935
19194TIP3    H179073   1.174   6.234  17.064 -0.7301  2.2500  0.4049
19194TIP3    H279074   1.304   6.255  17.140 -0.7924  3.0850  0.2874
19195TIP3   OH279075   3.406   6.392   5.974  0.1379  0.3137 -0.2068
19195TIP3    H179076   3.451   6.308   5.966 -0.2298 -0.0532  1.5333
19195TIP3    H279077   3.335   6.377   6.036  0.1186  1.9229  0.1915
19196TIP3   OH279078   2.097   2.597   0.070  0.2157  0.6093 -0.2780
19196TIP3    H179079   2.068   2.512   0.104  0.6047  0.6437  0.1530
19196TIP3    H279080   2.180   2.579   0.026  0.8135  0.9264  0.6934
19197TIP3   OH279081   5.311   0.120   3.015 -0.2880  0.1594 -0.2203
19197TIP3    H179082   5.267   0.091   3.094  0.8102 -0.6594  0.1160
19197TIP3    H279083   5.349   0.205   3.037 -0.2706  0.0871  0.0252
19198TIP3   OH279084   3.599   1.244   1.453  0.0858  0.2965 -0.3200
19198TIP3    H179085   3.594   1.187   1.529  0.3853 -0.6365 -0.9982
19198TIP3    H279086   3.693   1.254   1.436 -0.0122 -1.0423 -1.7184
19199TIP3   OH279087   2.420   4.972   5.061  0.1930 -0.4373 -0.1348
19199TIP3    H179088   2.412   5.029   4.985  1.2624  0.1987  0.2153
19199TIP3    H279089   2.449   4.888   5.026  0.1387 -0.3063 -0.4939
19200TIP3   OH279090   1.086   5.899   2.067 -0.2628 -0.4047  0.1698
19200TIP3    H179091   1.028   5.873   2.139 -0.7522 -0.1353 -0.1203
19200TIP3    H279092   1.029   5.899   1.990 -0.4011  1.9276  0.2204
19201TIP3   OH279093   3.271   3.173   4.386  0.1407  0.1149  0.9961
19201TIP3    H179094   3.206   3.166   4.317  1.5549  1.9374 -0.5670
19201TIP3    H279095   3.241   3.246   4.440 -0.2768 -0.4810  1.5822
19202TIP3   OH279096   1.755   1.119  15.702 -0.3961 -0.3931  0.0244
19202TIP3    H179097   1.825   1.170  15.661 -2.3262  2.3856  0.0626
19202TIP3    H279098   1.774   1.124  15.795 -0.1706 -0.3983 -0.0194
19203TIP3   OH279099   0.543   6.149  13.451  0.2941 -0.4845  0.1310
19203TIP3    H179100   0.482   6.219  13.428  0.1011 -0.6825  0.0441
19203TIP3    H279101   0.617   6.194  13.491 -0.2491 -0.3133  0.9391
19204TIP3   OH279102   1.178   5.591  13.662  0.0047  0.3987  0.0020
19204TIP3    H179103   1.198   5.550  13.578 -1.7910  1.2747 -0.8603
19204TIP3    H279104   1.264   5.603  13.703  0.9622  0.7197 -2.0392
19205TIP3   OH279105   1.650   3.672  11.715 -0.0652 -0.4599 -0.1089
19205TIP3    H179106   1.606   3.753  11.742 -0.5490 -1.3813  1.9902
19205TIP3    H279107   1.738   3.680  11.752 -0.8606 -1.9135  2.2718
19206TIP3   OH279108   2.433   5.640   1.936  0.3295  0.3883 -0.2695
19206TIP3    H179109   2.395   5.631   1.849 -0.5238  1.0498  0.0266
19206TIP3    H279110   2.481   5.723   1.933  1.1895 -0.1096 -0.4325
19207TIP3   OH279111   2.352   2.189  12.581  0.5570 -0.2725  0.1706
19207TIP3    H179112   2.308   2.208  12.497 -0.1478 -0.9258  0.3873
19207TIP3    H279113   2.427   2.249  12.583  0.5425 -0.2089 -0.9030
19208TIP3   OH279114   3.759   4.121   6.339 -0.3456  0.0975  0.1469
19208TIP3    H179115   3.687   4.081   6.291  0.8494  0.7807 -2.2905
19208TIP3    H279116   3.735   4.214   6.348  1.1650  0.8168 -2.6377
19209TIP3   OH279117   1.007   2.199  13.042 -0.2206 -0.0109 -0.0899
19209TIP3    H179118   0.993   2.181  12.949 -0.1090  0.1077 -0.1300
19209TIP3    H279119   0.921   2.228  13.074 -0.9119 -2.5566  0.4351
19210TIP3   OH279120   5.010   4.154  16.146  0.1183 -0.0034 -0.8323
19210TIP3    H179121   5.016   4.084  16.080 -0.4855 -0.5050 -0.3682
19210TIP3    H279122   4.945   4.122  16.208  0.3291  0.6858 -0.2522
19211TIP3   OH279123   1.443   4.542  14.440 -0.0342 -0.8693 -0.3441
19211TIP3    H179124   1.424   4.625  14.396  1.0790 -0.7950 -0.7037
19211TIP3    H279125   1.445   4.563  14.533  0.2539 -0.4855 -0.4385
19212TIP3   OH279126   0.974   2.957  11.054  0.4215  0.7046 -0.5646
19212TIP3    H179127   1.003   2.890  10.992 -0.2015 -1.3977  1.3367
19212TIP3    H279128   1.003   2.925  11.140 -1.4434  1.9730  0.5912
19213TIP3   OH279129   2.350   5.772   0.164  0.3228  0.1963 -0.3990
19213TIP3    H179130   2.420   5.742   0.106  0.2814 -0.6626 -0.0130
19213TIP3    H279131   2.284   5.809   0.105  1.7485  2.4002 -0.6704
19214TIP3   OH279132   3.358   4.393   5.407  0.0361  0.1579 -0.4663
19214TIP3    H179133   3.390   4.448   5.337  2.3140 -2.5547 -1.6457
19214TIP3    H279134   3.286   4.343   5.368  1.2969 -1.3443 -0.9377
19215TIP3   OH279135   3.896   4.190   4.454 -0.1115 -0.3727  0.1359
19215TIP3    H179136   3.880   4.253   4.523 -0.0229 -0.3346  0.1214
19215TIP3    H279137   3.947   4.121   4.496  0.5031 -0.0346 -0.0501
19216TIP3   OH279138   5.277   2.987  10.912 -0.0767 -0.0371  0.9956
19216TIP3    H179139   5.297   3.079  10.891  0.1171  0.3642  2.8297
19216TIP3    H279140   5.352   2.938  10.878 -0.3499  0.4333 -0.3107
19217TIP3   OH279141   6.441   2.102   3.328 -0.2647 -0.4210 -0.1015
19217TIP3    H179142   6.505   2.043   3.288  2.2976  0.6837  2.1967
19217TIP3    H279143   6.398   2.145   3.254  2.2593 -0.5691 -1.7054
19218TIP3   OH279144   6.796   4.646   3.034  0.4764  0.1003  0.0313
19218TIP3    H179145   6.772   4.576   2.973  0.6658  0.6080 -0.6354
19218TIP3    H279146   6.796   4.604   3.120 -1.7669 -0.1532 -0.0643
19219TIP3   OH279147   5.319   6.034  14.488  0.0308 -0.2324  0.6650
19219TIP3    H179148   5.290   6.105  14.546 -0.8045  1.2770 -1.5089
19219TIP3    H279149   5.268   6.047  14.408  1.6309 -1.8599 -0.6516
19220TIP3   OH279150   3.077   0.410   2.446  0.0083 -0.0284 -0.2387
19220TIP3    H179151   3.003   0.392   2.388 -0.2864  0.7017 -0.0920
19220TIP3    H279152   3.039   0.410   2.534  0.0310  1.0957 -0.2164
19221TIP3   OH279153   2.877   2.598  14.718  0.1141  0.7166 -0.6248
19221TIP3    H179154   2.935   2.673  14.710 -0.1442  1.0360  0.4200
19221TIP3    H279155   2.800   2.632  14.763 -0.5599  0.1245 -1.3208
19222TIP3   OH279156   1.721   5.523  11.039  0.3169 -0.0263 -0.3350
19222TIP3    H179157   1.745   5.591  10.976  0.4171  1.9654  1.8178
19222TIP3    H279158   1.796   5.464  11.041  0.8471  0.6162 -1.0903
19223TIP3   OH279159   3.935   0.702   3.551  0.6420  0.1405 -0.1496
19223TIP3    H179160   3.906   0.623   3.595  1.4111 -1.6909 -2.8032
19223TIP3    H279161   4.027   0.712   3.576  0.7395 -0.2093 -0.3691
19224TIP3   OH279162   0.138   4.901  12.930  0.1150  0.8113 -0.3713
19224TIP3    H179163   0.120   4.871  13.019  0.5393 -1.9546 -1.1769
19224TIP3    H279164   0.193   4.979  12.941  0.4326  0.3003  1.7796
19225TIP3   OH279165   4.644   3.407  14.889 -0.0961  0.5149 -0.0437
19225TIP3    H179166   4.729   3.385  14.928 -0.6281  2.2351  2.2330
19225TIP3    H279167   4.582   3.351  14.935 -0.6758  2.2208  1.3086
19226TIP3   OH279168   0.263   4.979   5.137  0.1313 -0.5395 -0.4616
19226TIP3    H179169   0.299   5.034   5.067  1.0443  0.2773  0.6208
19226TIP3    H279170   0.169   4.992   5.132  0.3096  0.8613 -0.4593
19227TIP3   OH279171   3.273   5.856   3.359  0.0932  0.2631  0.1383
19227TIP3    H179172   3.178   5.843   3.360  0.0726  0.4322  0.5389
19227TIP3    H279173   3.296   5.876   3.450  0.4568  0.6121 -0.0245
19228TIP3   OH279174   0.059   2.872   0.064 -0.5971 -0.3712  0.6012
19228TIP3    H179175   0.126   2.924   0.109  0.4098 -1.9277  0.9663
19228TIP3    H279176   0.036   2.924  -0.013 -1.2003  1.5972  2.0707
19229TIP3   OH279177   0.899   3.612  16.810 -0.7017 -0.2367 -1.1427
19229TIP3    H179178   0.955   3.539  16.839 -0.4879 -0.1848 -1.4181
19229TIP3    H279179   0.814   3.572  16.795 -0.2361 -0.7131 -2.6326
19230TIP3   OH279180   4.245   5.256  12.781 -0.6568  0.0128 -0.8345
19230TIP3    H179181   4.189   5.298  12.848 -0.3686 -1.8920  0.6463
19230TIP3    H279182   4.306   5.325  12.755 -1.1093  0.9526  0.4925
19231TIP3   OH279183   0.433   1.935   2.612  0.0759  0.2766 -0.1896
19231TIP3    H179184   0.447   1.898   2.699  0.5517  0.7814 -0.0495
19231TIP3    H279185   0.521   1.946   2.576 -0.1561 -0.8036 -1.1015
19232TIP3   OH279186   3.686   1.513   5.229 -0.2361  0.3803 -0.1078
19232TIP3    H179187   3.753   1.457   5.190 -0.9394 -0.0390 -0.7347
19232TIP3    H279188   3.605   1.485   5.187 -0.6477  1.6131 -0.1408
19233TIP3   OH279189   3.963   1.679  13.197  0.4791 -0.3402  0.1977
19233TIP3    H179190   4.002   1.674  13.110 -2.4235 -2.3628 -1.0432
19233TIP3    H279191   3.946   1.772  13.210  0.6959 -0.0410 -1.5225
19234TIP3   OH279192   0.100   4.825  14.226  0.5336 -0.2253 -0.4781
19234TIP3    H179193   0.125   4.866  14.142  0.8913  2.3244  0.8101
19234TIP3    H279194   0.183   4.792  14.261  0.6705  0.2988 -0.3062
19235TIP3   OH279195   6.658   6.633   3.890  0.0655 -0.3446 -0.4373
19235TIP3    H179196   6.720   6.618   3.819 -0.5806 -1.6012 -0.7383
19235TIP3    H279197   6.626   6.546   3.914 -1.4816  0.2607 -0.1928
19236TIP3   OH279198   4.146   3.884   4.319 -0.2802 -0.2976  0.5815
19236TIP3    H179199   4.164   3.875   4.412  2.5116 -2.5724 -0.0928
19236TIP3    H279200   4.103   3.802   4.295 -2.6263  1.0147  0.1773
19237TIP3   OH279201   2.364   3.021  13.455 -0.1816  0.3874  0.2190
19237TIP3    H179202   2.326   3.093  13.405  0.7564  1.0342  0.4200
19237TIP3    H279203   2.380   3.058  13.542  1.2898  0.2627  0.0148
19238TIP3   OH279204   5.241   4.371   4.302 -0.5710 -0.2851 -0.2584
19238TIP3    H179205   5.272   4.401   4.388  0.4836 -2.6446  0.2158
19238TIP3    H279206   5.181   4.440   4.273 -1.1421  0.4366  2.4853
19239TIP3   OH279207   5.695   5.461   5.170  0.3000  0.6145 -0.4296
19239TIP3    H179208   5.777   5.453   5.218 -0.7370 -0.2555  1.2552
19239TIP3    H279209   5.690   5.382   5.117  0.4092  0.5154 -0.2926
19240TIP3   OH279210   6.242   3.718  11.267  0.1139 -0.3296  1.0964
19240TIP3    H179211   6.303   3.699  11.339 -0.5882  0.2655  1.8446
19240TIP3    H279212   6.194   3.636  11.255  0.9051 -0.7413  0.6378
19241TIP3   OH279213   3.798   4.281   4.844  0.3486 -0.3102 -0.3924
19241TIP3    H179214   3.772   4.329   4.765 -0.2837 -0.6990 -0.4205
19241TIP3    H279215   3.748   4.199   4.840  0.5701 -0.4775  0.2394
19242TIP3   OH279216   1.788   4.467  11.181  0.3531  0.3789 -0.0281
19242TIP3    H179217   1.858   4.412  11.145  1.1080  1.7615 -0.7025
19242TIP3    H279218   1.828   4.510  11.256 -0.2694 -0.0604  0.5612
19243TIP3   OH279219   3.308   0.320   0.450  0.3604 -0.3027  0.2086
19243TIP3    H179220   3.354   0.339   0.532  0.5757 -1.7214  0.4289
19243TIP3    H279221   3.373   0.274   0.397 -0.0008 -0.0069 -0.4951
19244TIP3   OH279222   4.064   1.491   2.837 -0.2786  0.4271 -0.2784
19244TIP3    H179223   3.988   1.547   2.853 -0.2118  0.1615  0.9823
19244TIP3    H279224   4.054   1.419   2.899  1.0330  0.4103 -0.0776
19245TIP3   OH279225   2.514   1.735  12.288  0.2067  0.2037 -0.0268
19245TIP3    H179226   2.491   1.818  12.329 -2.3366 -0.5526  0.1369
19245TIP3    H279227   2.472   1.738  12.202  5.1425  1.6047 -2.5680
19246TIP3   OH279228   5.385   2.206   5.158  0.4854  0.1541 -0.4463
19246TIP3    H179229   5.410   2.121   5.122  0.1999 -1.0701  2.1170
19246TIP3    H279230   5.461   2.262   5.140  1.8212 -1.3877  0.1982
19247TIP3   OH279231   2.840   3.041  14.481  0.2072  0.0719  0.4931
19247TIP3    H179232   2.895   3.017  14.407  0.2051  2.0866 -0.1914
19247TIP3    H279233   2.767   2.978  14.478  0.0344  0.3300 -1.4193
19248TIP3   OH279234   0.968   2.487  13.981  0.5564  0.0529 -0.1234
19248TIP3    H179235   0.909   2.475  14.055  0.9007 -0.4797  0.0651
19248TIP3    H279236   1.047   2.525  14.019  0.0344  1.5229 -0.4988
19249TIP3   OH279237   2.518   1.029  13.974 -0.0183 -0.1770 -0.6223
19249TIP3    H179238   2.423   1.028  13.987  0.0681 -0.1706  0.0372
19249TIP3    H279239   2.553   1.074  14.052  0.4502  0.7721 -1.3698
19250TIP3   OH279240   2.732   2.750   0.292 -0.1203  0.0288 -0.7737
19250TIP3    H179241   2.716   2.656   0.279  0.7333 -0.1709 -0.4409
19250TIP3    H279242   2.826   2.760   0.281 -0.4362  1.1573 -2.6168
19251TIP3   OH279243   5.084   0.343  10.644 -0.1644 -0.5850  0.0668
19251TIP3    H179244   5.092   0.437  10.624 -1.7355 -0.6832 -1.1292
19251TIP3    H279245   5.151   0.301  10.590 -0.4363 -0.2926 -0.4975
19252TIP3   OH279246   1.254   6.711   3.252 -0.6119  0.3111  0.0649
19252TIP3    H179247   1.320   6.722   3.321  0.2117 -0.9898 -0.4885
19252TIP3    H279248   1.195   6.785   3.263  1.5742  2.1340 -0.0876
19253TIP3   OH279249   6.475   0.032  12.319  0.0874  0.1161  0.6637
19253TIP3    H179250   6.485  -0.031  12.391  0.9219 -0.8984 -0.3233
19253TIP3    H279251   6.381   0.034  12.302  0.1262 -1.5489  0.1212
19254TIP3   OH279252   6.661   3.506  15.411 -0.6071  0.2454 -0.8326
19254TIP3    H179253   6.606   3.580  15.384 -1.0339  0.9346  1.7631
19254TIP3    H279254   6.705   3.538  15.490  0.7215 -1.6042 -0.8168
19255TIP3   OH279255   3.252   4.788  11.669 -0.0433 -0.1194  0.4329
19255TIP3    H179256   3.257   4.824  11.580  0.4454  0.0376  0.5212
19255TIP3    H279257   3.250   4.693  11.656 -1.9995 -0.0710  0.1676
19256TIP3   OH279258   6.116   5.910  16.692 -0.6276  0.2072 -0.1637
19256TIP3    H179259   6.086   5.820  16.683 -0.7306  0.1925  0.3318
19256TIP3    H279260   6.177   5.923  16.619  0.8938 -0.8787  0.8796
19257TIP3   OH279261   5.775   6.563   6.181  0.8769  0.3218 -0.1221
19257TIP3    H179262   5.690   6.563   6.137 -0.1863  0.4512  1.8440
19257TIP3    H279263   5.799   6.471   6.188  0.1964  0.1957  0.5998
19258TIP3   OH279264   2.395   2.541   2.024  0.0574  0.1957  0.0538
19258TIP3    H179265   2.404   2.475   2.094 -1.1641  1.9857  1.9535
19258TIP3    H279266   2.311   2.522   1.983 -0.9680  1.3921  1.5370
19259TIP3   OH279267   3.348   4.204  14.494 -0.3654  0.3543  0.5141
19259TIP3    H179268   3.362   4.141  14.423 -1.3079 -0.4832  1.0608
19259TIP3    H279269   3.436   4.228  14.523  0.0178  0.5610 -0.8119
19260TIP3   OH279270   5.026   1.539  17.009 -0.6116  0.0297  0.4353
19260TIP3    H179271   5.017   1.444  17.014  0.2403 -0.1351 -0.9159
19260TIP3    H279272   4.953   1.573  17.060 -2.4039 -1.3415 -1.1565
19261TIP3   OH279273   1.809   4.276  14.177  0.0142  0.1409  0.0240
19261TIP3    H179274   1.881   4.338  14.185  1.0655 -1.2753  2.0322
19261TIP3    H279275   1.738   4.316  14.227  0.2809  0.2941  0.2827
19262TIP3   OH279276   3.406   4.513  14.441 -0.5514 -0.3763 -0.5716
19262TIP3    H179277   3.487   4.518  14.490 -1.9193 -1.3971  1.8699
19262TIP3    H279278   3.433   4.512  14.349  2.0916  0.6289  0.1531
19263TIP3   OH279279   6.222   4.957   0.134 -0.5334 -0.1145 -0.4284
19263TIP3    H179280   6.135   4.956   0.095 -0.9222 -0.1646  0.4285
19263TIP3    H279281   6.208   4.989   0.223  0.0827 -1.7589  0.2744
19264TIP3   OH279282   4.823   5.832   1.070 -0.0190 -0.3030 -0.4769
19264TIP3    H179283   4.823   5.755   1.014 -1.4564  0.4399 -1.5156
19264TIP3    H279284   4.890   5.889   1.032  1.1561 -1.0915  0.3862
19265TIP3   OH279285   4.023   1.438  15.032 -0.1102  0.1885 -0.0416
19265TIP3    H179286   3.992   1.358  14.990 -1.7857  0.1892  1.1384
19265TIP3    H279287   4.060   1.408  15.115  0.6220  0.4863 -0.2558
19266TIP3   OH279288   1.920   4.539  13.145 -0.6048 -0.3358 -0.0972
19266TIP3    H179289   2.005   4.545  13.188 -1.2105 -1.3132  1.2704
19266TIP3    H279290   1.927   4.463  13.088  0.0268  0.6559 -1.3629
19267TIP3   OH279291   4.594   5.581   2.017  0.1102 -0.6273  0.6981
19267TIP3    H179292   4.662   5.604   2.080  0.2618 -1.4673  0.8438
19267TIP3    H279293   4.512   5.601   2.061  0.2825  3.0966 -0.5143
19268TIP3   OH279294   5.243   4.929   3.853 -0.0590  0.0389 -0.1817
19268TIP3    H179295   5.299   4.907   3.927 -0.4156 -0.6476 -0.1131
19268TIP3    H279296   5.302   4.931   3.778  0.0902 -0.4722 -0.0746
19269TIP3   OH279297   0.563   6.446  16.170 -0.3196  0.5895  0.3457
19269TIP3    H179298   0.658   6.438  16.178 -0.4763  0.0781  1.8308
19269TIP3    H279299   0.538   6.506  16.241 -1.0028  1.4848 -0.6361
19270TIP3   OH279300   3.307   0.755  11.786 -0.2621 -0.2608 -0.4734
19270TIP3    H179301   3.242   0.772  11.854  1.0690  0.3738  0.6646
19270TIP3    H279302   3.264   0.780  11.704 -1.7775 -0.7565  0.1590
19271TIP3   OH279303   5.553   4.940   0.890  0.2318  0.0071 -0.2827
19271TIP3    H179304   5.478   4.960   0.946  0.1319 -0.5430 -0.2209
19271TIP3    H279305   5.598   5.024   0.879  0.5586  0.0200  1.0652
19272TIP3   OH279306   0.234   0.291  15.765 -0.0708 -0.1289 -0.3180
19272TIP3    H179307   0.309   0.303  15.823  0.0346  0.3251 -0.5417
19272TIP3    H279308   0.165   0.346  15.803 -0.3710 -0.7422  0.0280
19273TIP3   OH279309   1.228   0.535   2.019 -0.9199 -0.3745  0.6839
19273TIP3    H179310   1.163   0.477   1.980 -0.7656  0.6620 -1.1626
19273TIP3    H279311   1.294   0.475   2.057 -0.6906 -1.4105 -1.3089
19274TIP3   OH279312   1.676   2.186   3.412  0.5551  1.2282  0.3461
19274TIP3    H179313   1.764   2.197   3.449  1.5650  0.7339 -1.7862
19274TIP3    H279314   1.692   2.160   3.321 -1.8152  0.4033  0.1380
19275TIP3   OH279315   0.600   5.158  10.662  0.6817 -0.9599 -0.0298
19275TIP3    H179316   0.564   5.174  10.750  1.6548  1.8923 -0.0862
19275TIP3    H279317   0.533   5.191  10.602  0.5951 -1.6664 -0.3242
19276TIP3   OH279318   6.582   0.211   6.427 -0.2525 -0.3557  0.1257
19276TIP3    H179319   6.548   0.277   6.367 -1.4582  1.1122  2.3686
19276TIP3    H279320   6.505   0.162   6.457  0.3029 -0.9588  0.6055
19277TIP3   OH279321   5.768   2.286  15.827  0.4080  0.4581 -0.1321
19277TIP3    H179322   5.809   2.337  15.758 -2.3956  0.9691 -1.4966
19277TIP3    H279323   5.684   2.329  15.843 -0.8856 -2.1447  0.5372
19278TIP3   OH279324   0.859   5.327  16.191 -0.0669 -0.0744  0.3505
19278TIP3    H179325   0.768   5.299  16.179 -0.5660  0.6480  2.1702
19278TIP3    H279326   0.906   5.289  16.117 -1.3394 -2.7359  0.8348
19279TIP3   OH279327   0.466   1.707  11.382  0.3330 -0.1512  0.0637
19279TIP3    H179328   0.484   1.672  11.294  0.5874 -0.0810  0.0887
19279TIP3    H279329   0.373   1.690  11.395  0.0888  0.6462 -0.5857
19280TIP3   OH279330   4.554   5.006   3.236 -0.0719 -0.0961  0.4387
19280TIP3    H179331   4.530   4.916   3.217  1.4751 -0.1439 -1.4675
19280TIP3    H279332   4.607   5.033   3.161  0.1069  2.1569  1.3301
19281TIP3   OH279333   5.825   1.845  13.493 -0.7505 -0.3651  0.0364
19281TIP3    H179334   5.869   1.905  13.553  0.4221 -1.5040  0.3457
19281TIP3    H279335   5.893   1.822  13.429 -1.1959 -1.3303 -0.0877
19282TIP3   OH279336   6.050   1.505  14.886 -0.1623  0.1842  0.5931
19282TIP3    H179337   6.061   1.599  14.903 -1.3546  0.1269  1.8258
19282TIP3    H279338   6.117   1.463  14.940  0.3852  0.3263  0.0274
19283TIP3   OH279339   4.901   3.529   6.443 -0.4790  0.1120 -0.4636
19283TIP3    H179340   4.809   3.531   6.414 -0.0766  2.3474 -1.7545
19283TIP3    H279341   4.896   3.515   6.537 -2.1828  0.8395 -0.4233
19284TIP3   OH279342   5.784   5.034   1.817  0.0868 -0.3049  0.0266
19284TIP3    H179343   5.802   4.961   1.877 -0.0656 -0.4415 -0.0953
19284TIP3    H279344   5.725   4.997   1.752  0.6029 -0.2744 -0.4566
19285TIP3   OH279345   2.595   4.281   3.836  0.0342  0.0030  0.5814
19285TIP3    H179346   2.604   4.376   3.833 -1.0463  0.1181  0.4798
19285TIP3    H279347   2.630   4.251   3.753 -1.1595  0.4684 -0.1057
19286TIP3   OH279348   5.800   4.960  15.350  0.8161  0.0268 -0.2107
19286TIP3    H179349   5.707   4.962  15.371  0.9557 -0.6315  0.5108
19286TIP3    H279350   5.810   4.885  15.291  1.1417 -0.8969  1.0089
19287TIP3   OH279351   4.098   1.003  12.448 -0.7888  0.2312 -0.2539
19287TIP3    H179352   4.096   0.956  12.531 -2.4438 -0.0857 -0.4612
19287TIP3    H279353   4.085   0.936  12.382 -0.5901  0.6340 -0.7019
19288TIP3   OH279354   5.509   5.326  11.475  0.2802 -0.3555  0.0621
19288TIP3    H179355   5.522   5.255  11.412  0.4500  0.9626 -1.4014
19288TIP3    H279356   5.428   5.303  11.520 -0.7114 -0.4895 -1.7515
19289TIP3   OH279357   4.006   5.785   2.927 -0.2945  0.4279  0.1148
19289TIP3    H179358   3.922   5.739   2.927 -0.1664  0.0973  3.0538
19289TIP3    H279359   4.059   5.738   2.862 -2.3019  0.5471 -1.6479
19290TIP3   OH279360   1.500   4.860  13.247  0.2522 -0.1951  0.0565
19290TIP3    H179361   1.570   4.845  13.311  0.8771  1.4197 -0.2094
19290TIP3    H279362   1.530   4.936  13.197 -1.4516  0.1692 -0.4321
19291TIP3   OH279363   4.420   0.145  11.880  0.0000 -0.4519 -0.3224
19291TIP3    H179364   4.437   0.240  11.875 -2.1834  0.0433  1.1885
19291TIP3    H279365   4.336   0.138  11.925 -0.3427 -3.0988 -1.3166
19292TIP3   OH279366   5.577   4.793  15.822  0.1413  0.3579 -0.1849
19292TIP3    H179367   5.482   4.782  15.811 -0.0437  0.3063  1.3423
19292TIP3    H279368   5.615   4.728  15.763 -0.7697  0.4971 -0.9374
19293TIP3   OH279369   2.476   4.010   5.714 -0.0702  0.2815  0.6722
19293TIP3    H179370   2.566   4.013   5.683 -0.6293  0.1593 -1.0131
19293TIP3    H279371   2.476   3.945   5.784  0.4155 -2.4071 -1.7736
19294TIP3   OH279372   2.008   6.402   4.445  0.5308 -0.5236 -0.6041
19294TIP3    H179373   1.985   6.461   4.516  0.3572 -1.8375  0.4462
19294TIP3    H279374   2.098   6.374   4.464 -0.0800 -2.1567  0.0288
19295TIP3   OH279375   6.178   5.411   0.747 -0.4295 -0.5995  0.1975
19295TIP3    H179376   6.204   5.354   0.675  0.8950 -1.3934  1.2917
19295TIP3    H279377   6.092   5.380   0.772 -1.3152  0.2737 -1.6352
19296TIP3   OH279378   3.800   3.316   0.144  0.4813  0.0114 -0.7493
19296TIP3    H179379   3.747   3.295   0.222  0.9756  0.3554 -0.3132
19296TIP3    H279380   3.807   3.411   0.145 -0.7036  0.1277 -2.0233
19297TIP3   OH279381   6.087   6.366  12.052 -0.1525 -0.1928  0.3119
19297TIP3    H179382   6.065   6.274  12.035 -1.2709  0.5702 -2.6348
19297TIP3    H279383   6.135   6.394  11.974  0.9161  1.5267  1.5461
19298TIP3   OH279384   2.516   5.844  12.972  0.1241 -0.4267 -0.2610
19298TIP3    H179385   2.568   5.845  12.891  1.4230 -1.3821  0.5306
19298TIP3    H279386   2.524   5.932  13.006 -1.3013  0.2843 -1.6931
19299TIP3   OH279387   4.283   3.827  14.090 -0.1328  0.4222 -0.2390
19299TIP3    H179388   4.283   3.782  14.175  1.3596 -0.3704 -0.6576
19299TIP3    H279389   4.280   3.920  14.113 -1.3187  0.1901  0.6483
19300TIP3   OH279390   6.268   6.687   0.034  0.3609  0.1761  0.0369
19300TIP3    H179391   6.256   6.594   0.052  0.9431  0.0367 -0.2761
19300TIP3    H279392   6.189   6.729   0.069  0.9166 -0.2263  1.8453
19301TIP3   OH279393   1.194   4.767  13.825  0.4340  0.7955  0.2626
19301TIP3    H179394   1.199   4.812  13.741  0.1309  0.0001 -0.1922
19301TIP3    H279395   1.271   4.797  13.873  1.0492  0.6425 -0.6150
19302TIP3   OH279396   2.365   0.578  14.935  0.7202 -0.1444 -0.3191
19302TIP3    H179397   2.272   0.564  14.950  0.4097  0.5721 -1.5612
19302TIP3    H279398   2.408   0.534  15.008 -0.6256  0.2573  0.7234
19303TIP3   OH279399   6.463   3.283  11.298 -0.1992 -0.1209  0.1543
19303TIP3    H179400   6.517   3.204  11.305  0.1878  0.2299  1.1506
19303TIP3    H279401   6.432   3.300  11.387 -2.5943 -0.7547 -0.5505
19304TIP3   OH279402   0.845   4.818  11.223  0.1856  0.7706  0.2228
19304TIP3    H179403   0.876   4.896  11.176 -1.5148  0.4704 -1.4108
19304TIP3    H279404   0.771   4.786  11.172  0.7114 -1.8045  1.0060
19305TIP3   OH279405   1.431   0.812  14.935 -0.7276 -0.1093 -0.2463
19305TIP3    H179406   1.468   0.804  14.847 -1.7164 -0.2564 -0.6567
19305TIP3    H279407   1.494   0.767  14.992 -0.3849 -0.5453 -0.9636
19306TIP3   OH279408   5.433   5.624  15.376 -0.0099  0.2186 -0.1771
19306TIP3    H179409   5.509   5.600  15.430 -0.1468  2.9879  1.3523
19306TIP3    H279410   5.371   5.552  15.388  1.6642 -1.2363 -0.0342
19307TIP3   OH279411   4.606   4.069   0.252  0.4729  0.2294  0.4770
19307TIP3    H179412   4.622   4.024   0.335  0.2970  0.5104  0.6601
19307TIP3    H279413   4.689   4.112   0.232  0.3445  0.6107  0.7770
19308TIP3   OH279414   0.360   1.459  10.910  0.0942 -0.2825 -0.2880
19308TIP3    H179415   0.323   1.378  10.874 -1.5892 -0.2527  1.3080
19308TIP3    H279416   0.284   1.510  10.936  1.2078  1.0754  0.3447
19309TIP3   OH279417   1.256   4.869   3.290  0.1357  0.5302  0.8645
19309TIP3    H179418   1.184   4.806   3.298 -0.0042  0.4500 -0.9092
19309TIP3    H279419   1.294   4.872   3.378 -0.7564 -0.9537  1.3298
19310TIP3   OH279420   5.839   6.488   3.948 -0.2134 -0.4914  0.6299
19310TIP3    H179421   5.840   6.414   3.887 -1.7111 -1.9182  2.2716
19310TIP3    H279422   5.770   6.545   3.915  1.2204  0.4126 -0.8775
19311TIP3   OH279423   3.278   0.369  12.182 -0.7837  0.3128  0.3096
19311TIP3    H179424   3.361   0.414  12.169  0.1527 -1.6132 -0.4788
19311TIP3    H279425   3.221   0.436  12.221  1.2775  1.5097  1.3785
19312TIP3   OH279426   1.315   5.451   4.961 -0.4648  0.2446 -0.0679
19312TIP3    H179427   1.350   5.539   4.973  1.7185 -0.7739  1.1917
19312TIP3    H279428   1.334   5.431   4.869  0.9476  0.2747  0.2065
19313TIP3   OH279429   4.709   0.996   5.777 -0.5648  0.2405  0.1265
19313TIP3    H179430   4.630   0.976   5.829 -1.1965 -0.2762 -1.0035
19313TIP3    H279431   4.732   1.085   5.801 -0.4599 -0.2139  1.7894
19314TIP3   OH279432   3.157   5.944   4.133 -0.0152  0.2374 -0.3130
19314TIP3    H179433   3.230   6.000   4.161  2.3686 -2.0304 -1.7926
19314TIP3    H279434   3.178   5.858   4.168 -1.8910 -0.5097 -0.9797
19315TIP3   OH279435   5.293   5.633   1.307  0.2335  0.5608 -0.4598
19315TIP3    H179436   5.202   5.617   1.282  0.0357 -0.1455  0.6911
19315TIP3    H279437   5.339   5.552   1.287  0.2883  0.3648  0.4643
19316TIP3   OH279438   1.951   3.964  13.778  0.2219 -0.1135 -0.0044
19316TIP3    H179439   1.993   3.930  13.857  2.2797  1.8013 -0.2265
19316TIP3    H279440   1.857   3.960  13.797  0.6597 -0.4494  2.1950
19317TIP3   OH279441   4.322   4.355   2.718  0.2916  0.2909  0.2312
19317TIP3    H179442   4.277   4.428   2.674  0.2066  0.7479  1.0708
19317TIP3    H279443   4.415   4.369   2.699  0.4530  1.6445  1.8767
19318TIP3   OH279444   6.577   1.719  13.178 -0.1651  0.1379  0.0789
19318TIP3    H179445   6.506   1.782  13.162 -0.9551 -0.6198  0.5975
19318TIP3    H279446   6.539   1.654  13.237  1.0962 -0.0388  0.7064
19319TIP3   OH279447   4.392   0.993   2.290  0.2366  1.0164 -0.0720
19319TIP3    H179448   4.349   0.911   2.264  3.6113 -0.7263 -0.3975
19319TIP3    H279449   4.408   1.039   2.207  1.9216  0.1097 -0.2803
19320TIP3   OH279450   0.748   6.620   3.253 -0.3441  0.1811 -0.0261
19320TIP3    H179451   0.678   6.587   3.196 -0.6166 -0.0812  0.4625
19320TIP3    H279452   0.718   6.602   3.342  1.8027 -2.9304  0.1563
19321TIP3   OH279453   6.771   1.202   1.851  0.7375 -0.2347  0.1610
19321TIP3    H179454   6.721   1.125   1.876  1.0397 -0.3360  0.4575
19321TIP3    H279455   6.705   1.267   1.827  0.4981 -1.6850 -3.4605
19322TIP3   OH279456   3.031   0.704  15.054 -0.0027  0.2076  0.0502
19322TIP3    H179457   2.989   0.696  14.968  2.6608 -0.0220 -1.2759
19322TIP3    H279458   3.117   0.742  15.035  0.5142  0.4446  2.6678
19323TIP3   OH279459   6.176   5.515   0.340  0.4450  0.1221  0.2746
19323TIP3    H179460   6.256   5.564   0.359  0.3262  0.4267 -0.0046
19323TIP3    H279461   6.199   5.459   0.266 -0.0806  1.4467 -0.9166
19324TIP3   OH279462   4.958   6.071  11.249 -0.1161  0.7646 -0.0797
19324TIP3    H179463   4.977   6.083  11.342 -0.2112  2.5075 -0.2617
19324TIP3    H279464   4.927   6.157  11.220 -0.0332  0.2490 -1.7375
19325TIP3   OH279465   4.141   1.607   4.885  0.2913  0.5842  0.3902
19325TIP3    H179466   4.191   1.530   4.857  1.6538  0.9246  1.8053
19325TIP3    H279467   4.191   1.681   4.850 -0.2547  0.8782  0.2254
19326TIP3   OH279468   6.470   3.222   1.829  0.5046  0.1370  0.2336
19326TIP3    H179469   6.438   3.156   1.890 -1.5171  0.3356 -0.5785
19326TIP3    H279470   6.565   3.221   1.840  0.5348 -3.1202 -0.0127
19327TIP3   OH279471   6.740   5.215  11.535  0.4367  0.6806  0.0943
19327TIP3    H179472   6.798   5.216  11.459  1.1022  0.2982  0.5995
19327TIP3    H279473   6.659   5.177  11.502 -0.2228  3.0175 -1.1076
19328TIP3   OH279474   6.200   5.962  13.779  0.2517  0.0100 -0.6959
19328TIP3    H179475   6.167   5.897  13.717  1.0607 -1.6876  0.6239
19328TIP3    H279476   6.282   5.992  13.741  0.1217 -0.1050 -1.0665
19329TIP3   OH279477   0.958   5.784  13.704 -0.1450  0.1622  0.3172
19329TIP3    H179478   0.964   5.835  13.622 -0.0566 -0.0331  0.2008
19329TIP3    H279479   1.019   5.711  13.691  1.2065  1.0878  1.2410
19330TIP3   OH279480   6.257   2.500   1.711 -0.4729  0.3083 -0.3398
19330TIP3    H179481   6.348   2.485   1.736 -0.1370  1.5457 -0.7878
19330TIP3    H279482   6.262   2.562   1.638 -1.7077  0.9646  0.1227
19331TIP3   OH279483   2.384   5.082   3.642 -0.0136 -0.3751 -0.1461
19331TIP3    H179484   2.305   5.037   3.673  0.0195 -0.5762 -0.3504
19331TIP3    H279485   2.362   5.112   3.554 -0.2931  0.6692  0.2723
19332TIP3   OH279486   5.974   6.432  10.634  0.0845 -0.4541 -0.2612
19332TIP3    H179487   6.022   6.358  10.674 -0.8502 -0.1512  1.4843
19332TIP3    H279488   6.039   6.474  10.578  1.8865 -0.1069  1.9828
19333TIP3   OH279489   0.155   4.476  15.327 -0.0335  0.3787 -0.6747
19333TIP3    H179490   0.062   4.463  15.346 -0.0754  1.5521 -0.0674
19333TIP3    H279491   0.166   4.444  15.237 -1.1839  0.9760 -1.0353
19334TIP3   OH279492   3.971   0.214   0.314  0.5818 -0.8834 -0.4337
19334TIP3    H179493   4.053   0.211   0.265  0.8489  0.0031 -0.0501
19334TIP3    H279494   3.910   0.260   0.256  0.8404 -0.0183 -0.0306
19335TIP3   OH279495   4.644   6.736   6.100  0.2796 -0.2144 -0.2095
19335TIP3    H179496   4.695   6.813   6.075 -0.9073  0.6414 -0.0389
19335TIP3    H279497   4.710   6.670   6.121  1.3052 -0.3528 -3.6401
19336TIP3   OH279498   0.895   0.035   4.761 -0.2248 -0.2784  0.4663
19336TIP3    H179499   0.842   0.115   4.761 -0.3953 -0.3894  0.1449
19336TIP3    H279500   0.849  -0.024   4.701 -0.3141 -0.7629  1.0081
19337TIP3   OH279501   3.069   2.153   3.652  0.0358 -0.2620  0.0492
19337TIP3    H179502   3.145   2.107   3.616 -0.8363 -0.5652 -1.4635
19337TIP3    H279503   3.073   2.136   3.746 -0.1397 -3.3294 -0.4379
19338TIP3   OH279504   3.345   3.958  12.395 -0.0745  0.1106 -0.0772
19338TIP3    H179505   3.345   3.906  12.315  1.0073  0.4554 -0.3160
19338TIP3    H279506   3.333   3.894  12.465  0.3724 -0.3688 -0.4318
19339TIP3   OH279507   5.288   1.474   2.796 -0.3780 -0.2343 -0.5592
19339TIP3    H179508   5.273   1.538   2.866  0.9856  0.2276 -0.6617
19339TIP3    H279509   5.227   1.500   2.727  0.2294  1.0515 -0.6408
19340TIP3   OH279510   6.792   3.752  14.782 -0.5505 -0.6775  0.2620
19340TIP3    H179511   6.720   3.756  14.844 -0.4757 -0.8226  0.3614
19340TIP3    H279512   6.841   3.673  14.808  0.0587 -0.1728  0.6551
19341TIP3   OH279513   3.691   5.982  12.622 -0.6751  0.0751  0.5787
19341TIP3    H179514   3.751   6.042  12.577 -1.5552  1.5323  1.2839
19341TIP3    H279515   3.622   5.964  12.558  0.4857 -1.5981 -0.2323
19342TIP3   OH279516   6.510   4.133   1.701 -0.0390 -0.2237 -0.2584
19342TIP3    H179517   6.492   4.112   1.792  0.0407 -1.4118 -0.5043
19342TIP3    H279518   6.553   4.218   1.703 -0.8334  0.1537  0.7412
19343TIP3   OH279519   6.213   5.104  13.976  0.5491 -0.5578 -0.1689
19343TIP3    H179520   6.301   5.138  13.962  0.4338 -0.6529 -1.1565
19343TIP3    H279521   6.155   5.173  13.944  0.1457  0.9893  3.5906
19344TIP3   OH279522   4.112   3.919  12.824 -0.2482  0.5269 -0.1819
19344TIP3    H179523   4.108   3.989  12.889 -0.7304  0.6473 -0.3372
19344TIP3    H279524   4.020   3.899  12.804 -0.1068  0.4753 -0.8025
19345TIP3   OH279525   6.356   5.619  12.779  0.4581  0.4080 -0.4472
19345TIP3    H179526   6.390   5.707  12.764 -0.8939  1.7382  3.5814
19345TIP3    H279527   6.421   5.578  12.836  0.1016 -0.4782 -0.6775
19346TIP3   OH279528   0.431   1.124   2.738 -0.0804  0.0912 -0.2892
19346TIP3    H179529   0.438   1.034   2.771  0.3402  1.3490  3.2736
19346TIP3    H279530   0.517   1.142   2.699  0.8660 -0.1381  1.6063
19347TIP3   OH279531   0.936   1.100  13.614  0.2907 -0.4200 -0.7252
19347TIP3    H179532   0.910   1.062  13.530 -2.7992  3.2583 -1.5857
19347TIP3    H279533   1.014   1.153  13.594  0.1457 -0.3376 -1.0653
19348TIP3   OH279534   5.307   4.291   6.617 -0.3919  0.1348  0.3245
19348TIP3    H179535   5.234   4.336   6.661 -0.8044 -0.9305  0.7584
19348TIP3    H279536   5.265   4.242   6.547 -0.0973 -0.5104  0.5977
19349TIP3   OH279537   3.062   4.128   3.275 -0.2565 -0.2291 -0.8118
19349TIP3    H179538   3.093   4.091   3.193  0.7838 -0.6902 -0.2202
19349TIP3    H279539   3.109   4.079   3.343 -0.2206  0.9451  0.0248
19350TIP3   OH279540   2.688   2.637  16.946  0.2538  0.4276 -0.0017
19350TIP3    H179541   2.761   2.654  16.887  0.3835  1.0032  0.3266
19350TIP3    H279542   2.722   2.657  17.033 -0.8161  2.3997 -0.0040
19351TIP3   OH279543   0.527   6.066   0.136  0.4054 -0.3257 -0.4068
19351TIP3    H179544   0.458   6.111   0.086  0.7454 -1.3641 -1.8534
19351TIP3    H279545   0.583   6.137   0.168 -0.8061  0.4635 -0.0183
19352TIP3   OH279546   2.280   0.203   4.409 -0.5384 -0.0809  0.2780
19352TIP3    H179547   2.210   0.268   4.406  1.0469  1.7050  1.2280
19352TIP3    H279548   2.291   0.184   4.502  0.9268  0.4144  0.2122
19353TIP3   OH279549   5.799   0.041   0.349 -0.1298 -0.1409  0.7420
19353TIP3    H179550   5.738   0.027   0.277  0.1067 -0.1323  0.5402
19353TIP3    H279551   5.797   0.136   0.364 -0.5584 -0.1998  1.0826
19354TIP3   OH279552   1.669   4.509  11.911 -0.5830  0.0819  0.3332
19354TIP3    H179553   1.622   4.588  11.937  0.9815  1.5959 -1.3378
19354TIP3    H279554   1.760   4.526  11.934 -0.0313 -0.7144 -1.1708
19355TIP3   OH279555   5.004   4.776  15.870 -0.1109 -0.0578  0.5378
19355TIP3    H179556   5.076   4.743  15.923 -2.2237 -0.4816  3.2743
19355TIP3    H279557   4.949   4.824  15.932 -2.4103 -0.1591 -1.3736
19356TIP3   OH279558   1.392   5.096   0.629 -0.0034 -0.6154 -0.0059
19356TIP3    H179559   1.302   5.118   0.604  0.1120 -2.1061 -1.7751
19356TIP3    H279560   1.435   5.181   0.637 -0.7692  0.0110 -2.2280
19357TIP3   OH279561   1.369   4.164   2.331  0.4067 -0.1308  0.5038
19357TIP3    H179562   1.358   4.250   2.292  1.3384 -0.2587 -0.0524
19357TIP3    H279563   1.445   4.127   2.287  0.2909 -1.0578  1.0618
19358TIP3   OH279564   4.947   6.505   2.088  0.3906  0.3581  0.1224
19358TIP3    H179565   5.009   6.435   2.070 -0.4717 -0.4443  0.2240
19358TIP3    H279566   4.952   6.563   2.012  1.8457  0.7357  0.4997
19359TIP3   OH279567   6.357   3.331  12.727 -0.0560 -0.4817 -0.2984
19359TIP3    H179568   6.281   3.373  12.769  1.5027  2.2451 -0.0860
19359TIP3    H279569   6.368   3.249  12.774 -0.8771  0.6193  1.8971
19360TIP3   OH279570   3.757   4.516   0.451  0.5880 -0.1173 -0.1445
19360TIP3    H179571   3.758   4.511   0.546  0.9358 -2.0952 -0.2290
19360TIP3    H279572   3.849   4.512   0.425  0.3939 -1.7547 -0.6390
19361TIP3   OH279573   2.379   6.570   1.611 -0.2180 -0.0065 -0.0424
19361TIP3    H179574   2.443   6.615   1.557  0.8775 -0.6500  0.6980
19361TIP3    H279575   2.422   6.560   1.696 -2.2939  1.9361  1.2830
19362TIP3   OH279576   2.394   2.477  11.455 -0.1821  0.4375 -0.1758
19362TIP3    H179577   2.308   2.438  11.473 -0.0805  0.2845 -0.0255
19362TIP3    H279578   2.399   2.553  11.513  1.1871 -1.4762  2.3128
19363TIP3   OH279579   0.881   5.166  13.831 -0.5527  0.6360 -0.2597
19363TIP3    H179580   0.870   5.171  13.736 -0.7333  0.9792 -0.2201
19363TIP3    H279581   0.946   5.233  13.851  1.1605 -0.9198 -0.4027
19364TIP3   OH279582   6.456   3.515  13.475 -0.2088 -0.2854  0.2267
19364TIP3    H179583   6.444   3.462  13.396 -0.0663 -1.5091  1.0039
19364TIP3    H279584   6.542   3.488  13.508 -0.3940  0.0065  0.9452
19365TIP3   OH279585   3.455   0.066  16.619 -0.3099 -0.0488 -0.3842
19365TIP3    H179586   3.432   0.072  16.712 -0.7880  3.5859 -0.6863
19365TIP3    H279587   3.522   0.133  16.606  1.0905 -1.7452 -2.3145
19366TIP3   OH279588   5.516   0.915  13.746  0.2861 -0.2606 -0.6069
19366TIP3    H179589   5.492   0.973  13.673  1.3019  1.7993  0.6593
19366TIP3    H279590   5.493   0.827  13.715 -0.3827  0.7007 -2.9513
19367TIP3   OH279591   4.955   5.614  15.930 -0.0581  0.2503 -0.3087
19367TIP3    H179592   4.936   5.572  16.014  0.9006  0.4735  0.0263
19367TIP3    H279593   5.025   5.561  15.892  0.6425  1.1037 -0.2198
19368TIP3   OH279594   5.994   0.478  15.432 -0.3175 -0.4564 -0.2019
19368TIP3    H179595   6.066   0.453  15.489  0.2638 -0.1199 -0.7852
19368TIP3    H279596   6.030   0.548  15.377 -1.1585 -0.1116 -0.3226
19369TIP3   OH279597   4.980   1.803  16.588  0.0478 -0.3873 -0.7907
19369TIP3    H179598   5.070   1.831  16.600  0.2162 -0.9360 -0.7375
19369TIP3    H279599   4.976   1.717  16.631 -1.3516  1.1163  2.2392
19370TIP3   OH279600   3.673   6.680  17.242 -0.1596  0.1015 -0.0684
19370TIP3    H179601   3.723   6.602  17.267  0.5844  0.3249 -0.8404
19370TIP3    H279602   3.647   6.664  17.151 -0.0494  0.7277 -0.2128
19371TIP3   OH279603   0.687   4.303  15.898 -0.1792  0.3405  0.5400
19371TIP3    H179604   0.651   4.218  15.873  1.3348 -0.2468  0.3058
19371TIP3    H279605   0.723   4.339  15.817  1.1628  0.2011  1.0510
19372TIP3   OH279606   2.021   0.107   1.193 -0.9700  0.2485 -0.2770
19372TIP3    H179607   1.945   0.131   1.139 -1.1240  0.9540  0.2407
19372TIP3    H279608   2.095   0.149   1.150 -0.8124 -0.7761 -1.0098
19373TIP3   OH279609   3.753   4.145   1.411 -0.2990  0.4097  0.1889
19373TIP3    H179610   3.772   4.203   1.485 -1.1504 -0.5789  1.2142
19373TIP3    H279611   3.772   4.057   1.445 -2.7312 -0.2469 -0.0656
19374TIP3   OH279612   1.767   5.383  14.201 -0.3841 -0.1937  0.4951
19374TIP3    H179613   1.728   5.302  14.234  0.3399 -0.5874  0.3762
19374TIP3    H279614   1.843   5.398  14.257 -0.7007  0.5866  0.7320
19375TIP3   OH279615   1.388   4.453   0.598 -0.4958 -0.1270 -0.2902
19375TIP3    H179616   1.330   4.515   0.641 -0.7498 -0.4813 -0.1147
19375TIP3    H279617   1.468   4.453   0.651 -0.4032  0.2331 -0.4329
19376TIP3   OH279618   3.800   5.553   3.096 -0.5098  0.2515 -0.2572
19376TIP3    H179619   3.741   5.486   3.131  0.4013  0.2621  1.3361
19376TIP3    H279620   3.886   5.511   3.096  0.0873  1.4361  0.8618
19377TIP3   OH279621   2.188   4.651  11.043 -0.4096  0.4478 -0.0911
19377TIP3    H179622   2.169   4.732  10.996 -0.6097  0.1405 -0.5375
19377TIP3    H279623   2.244   4.601  10.984  0.7314  0.7844  0.6823
19378TIP3   OH279624   0.969   3.056   5.753  0.7060  0.2855  0.0955
19378TIP3    H179625   1.014   2.983   5.795  1.4129  0.0234 -1.0849
19378TIP3    H279626   0.878   3.046   5.780  1.1603  0.2211  1.6757
19379TIP3   OH279627   5.379   5.844  10.857 -0.0174 -0.3730 -0.5928
19379TIP3    H179628   5.353   5.763  10.900 -1.0423  0.3449  0.1423
19379TIP3    H279629   5.465   5.864  10.895 -0.6961 -0.0013  0.7562
19380TIP3   OH279630   4.405   6.770   3.352 -0.2303  0.3251  0.3372
19380TIP3    H179631   4.325   6.725   3.376 -0.1705  0.4839  0.8441
19380TIP3    H279632   4.467   6.700   3.332 -0.7036  0.2078 -0.7845
19381TIP3   OH279633   2.743   6.041   2.873  0.2614 -0.5324  0.1424
19381TIP3    H179634   2.719   5.959   2.831 -1.5021  0.1891 -0.3200
19381TIP3    H279635   2.831   6.027   2.906  0.7903 -1.8822 -1.8123
19382TIP3   OH279636   5.984   1.756  14.203 -0.3823 -0.0039 -0.4313
19382TIP3    H179637   6.007   1.690  14.137 -1.2454  0.6932 -1.4432
19382TIP3    H279638   5.892   1.777  14.186 -0.6394  0.1413  1.0426
19383TIP3   OH279639   2.561   5.605   2.367  0.2135 -0.1546 -0.1254
19383TIP3    H179640   2.529   5.523   2.330  0.4916  0.5073 -1.8608
19383TIP3    H279641   2.495   5.629   2.432 -0.4701 -1.1533 -0.4452
19384TIP3   OH279642   4.198   6.215  13.031  0.2214 -0.2718  0.1878
19384TIP3    H179643   4.270   6.181  12.977  0.3887  0.8426 -0.2959
19384TIP3    H279644   4.203   6.310  13.020 -0.9631 -0.1598  0.6240
19385TIP3   OH279645   3.213   3.784  17.013  0.0870  0.1645 -0.3820
19385TIP3    H179646   3.183   3.860  16.964  2.1869  0.1472 -1.7591
19385TIP3    H279647   3.226   3.817  17.102 -0.0241  1.1545 -0.7241
19386TIP3   OH279648   0.148   6.674  15.237  0.5327 -0.6898 -0.1146
19386TIP3    H179649   0.088   6.747  15.222  1.3590 -0.0467 -0.2981
19386TIP3    H279650   0.136   6.652  15.330  0.0342 -0.5475 -0.1456
19387TIP3   OH279651   6.785   3.835  11.978 -0.1672 -0.2611  0.6319
19387TIP3    H179652   6.860   3.866  11.927  0.5573 -0.0461  1.8204
19387TIP3    H279653   6.793   3.740  11.976  0.6273 -0.2143  1.4826
19388TIP3   OH279654   1.428   4.271  13.111 -0.1856  0.5992  0.0366
19388TIP3    H179655   1.405   4.362  13.134  0.5667  1.0054 -0.7887
19388TIP3    H279656   1.489   4.244  13.179 -1.6427  0.1559  1.1880
19389TIP3   OH279657   6.247   3.864  16.945  0.0256  0.0139  0.3296
19389TIP3    H179658   6.177   3.928  16.959  0.3626  0.4607 -0.0176
19389TIP3    H279659   6.277   3.881  16.856  0.6475 -0.1026  0.5159
19390TIP3   OH279660   0.327   0.034  12.809 -0.1520 -0.3315  0.5008
19390TIP3    H179661   0.379   0.070  12.880  1.4423 -2.0752  0.2663
19390TIP3    H279662   0.314  -0.058  12.832  0.0014 -0.8110 -1.2419
19391TIP3   OH279663   4.980   1.962   4.478  0.3151 -0.2402  0.3295
19391TIP3    H179664   4.894   1.920   4.477  0.1519  0.0765  0.7474
19391TIP3    H279665   5.030   1.913   4.544 -0.5073  1.4346  2.2534
19392TIP3   OH279666   0.997   5.597  12.885  0.5151 -0.0317  0.5425
19392TIP3    H179667   1.089   5.612  12.865  0.6974 -2.6198 -0.7913
19392TIP3    H279668   0.989   5.620  12.977  2.7945 -0.8740  0.9993
19393TIP3   OH279669   3.116   1.346   1.559  0.1981 -0.0764  0.6019
19393TIP3    H179670   3.085   1.424   1.605 -2.4967 -0.8715  0.2325
19393TIP3    H279671   3.183   1.379   1.499 -0.9012  1.9791  0.4519
19394TIP3   OH279672   1.339   2.232   0.902  0.0978 -0.3926 -0.0726
19394TIP3    H179673   1.356   2.142   0.930  3.1837 -0.1790 -1.0522
19394TIP3    H279674   1.301   2.222   0.814  2.4677 -0.7723 -1.1202
19395TIP3   OH279675   5.068   4.428  11.631 -0.6380 -0.5550  0.2591
19395TIP3    H179676   4.985   4.381  11.635  0.2638 -2.4500 -2.3162
19395TIP3    H279677   5.135   4.361  11.642  0.6184  0.6871  0.3935
19396TIP3   OH279678   4.744   1.608   5.947 -0.4590 -0.0024  0.1353
19396TIP3    H179679   4.698   1.524   5.944 -0.1971 -0.1298 -0.3604
19396TIP3    H279680   4.727   1.648   5.862  0.4965 -0.1296 -0.1243
19397TIP3   OH279681   5.690   5.313  12.078 -0.4208  0.3080  0.3302
19397TIP3    H179682   5.723   5.338  11.991  0.4749  0.7720  0.7967
19397TIP3    H279683   5.595   5.328  12.073 -0.4512 -0.1793 -0.7367
19398TIP3   OH279684   6.506   0.143   3.818 -0.1804 -0.1147 -0.2223
19398TIP3    H179685   6.414   0.135   3.792  0.3864  0.3303 -2.4015
19398TIP3    H279686   6.552   0.168   3.738  1.8012  0.0003  0.9253
19399TIP3   OH279687   4.533   4.195   2.112  0.3438  0.0744  0.1564
19399TIP3    H179688   4.546   4.148   2.030  0.1123 -0.2654  0.3163
19399TIP3    H279689   4.442   4.225   2.109  0.8964  1.7168 -0.5768
19400TIP3   OH279690   4.728   3.219   2.591  0.3577 -0.3061 -0.0077
19400TIP3    H179691   4.705   3.224   2.683  0.4571  2.3928 -0.1026
19400TIP3    H279692   4.696   3.133   2.563 -0.5344 -0.7455  2.2755
19401TIP3   OH279693   6.688   4.229   3.827 -0.4988 -0.7493 -0.1928
19401TIP3    H179694   6.771   4.238   3.875  0.3868 -3.0119 -1.2449
19401TIP3    H279695   6.648   4.316   3.835  1.9526  0.4091  0.3548
19402TIP3   OH279696   0.564   1.012  13.370 -0.2957  0.0626  0.0197
19402TIP3    H179697   0.593   0.920  13.375  0.3688  0.2818  0.3124
19402TIP3    H279698   0.541   1.025  13.278 -0.4178 -0.4120 -0.0174
19403TIP3   OH279699   4.840   1.991  15.615  0.4986 -0.2296  0.0317
19403TIP3    H179700   4.889   1.966  15.694 -0.2805 -0.2546  0.5195
19403TIP3    H279701   4.866   1.927  15.549  1.9049  0.3798 -0.0245
19404TIP3   OH279702   6.544   0.275  12.633 -0.3362 -0.0706 -0.3201
19404TIP3    H179703   6.549   0.370  12.644  1.8605 -0.4951  2.9998
19404TIP3    H279704   6.492   0.263  12.553 -0.8568  3.8853 -0.6811
19405TIP3   OH279705   2.004   3.549  12.284  0.1542 -0.0106  0.0989
19405TIP3    H179706   2.063   3.505  12.344 -0.8619 -1.4086  0.1054
19405TIP3    H279707   1.931   3.488  12.273  0.0894  0.4212 -2.1593
19406TIP3   OH279708   6.360   5.444   1.959  0.6383 -0.1166  0.1787
19406TIP3    H179709   6.272   5.410   1.977 -0.3958  2.8260  1.0013
19406TIP3    H279710   6.419   5.376   1.991 -1.3253 -0.6238  2.9228
19407TIP3   OH279711   0.987   1.592   3.476 -0.2101  1.1046  0.1791
19407TIP3    H179712   0.894   1.588   3.454 -0.9635 -1.5930  3.4723
19407TIP3    H279713   1.003   1.684   3.496 -2.4989  1.3870  0.8387
19408TIP3   OH279714   3.219   5.111   6.090 -0.0759  0.7954 -0.8011
19408TIP3    H179715   3.198   5.029   6.134 -0.9803 -0.0278 -2.7175
19408TIP3    H279716   3.314   5.110   6.080 -0.1827 -0.5385 -1.7816
19409TIP3   OH279717   3.189   5.515   3.241 -0.1972  0.0040  0.0935
19409TIP3    H179718   3.251   5.445   3.221 -0.5529 -0.3708  0.2863
19409TIP3    H279719   3.118   5.471   3.288 -0.2895  0.5419  0.4633
19410TIP3   OH279720   3.856   3.853   0.544 -0.1015 -0.4015 -0.1422
19410TIP3    H179721   3.919   3.802   0.493  1.2192  0.5292  0.4978
19410TIP3    H279722   3.771   3.834   0.505  0.7276 -0.7526 -1.8197
19411TIP3   OH279723   3.048   6.305  14.929  0.7243  0.4602 -0.1581
19411TIP3    H179724   3.042   6.393  14.966  0.2036  0.3644 -0.0084
19411TIP3    H279725   2.980   6.256  14.975 -1.2186  0.8064 -2.5673
19412TIP3   OH279726   1.485   2.799   5.207 -0.5438  0.5223 -0.0104
19412TIP3    H179727   1.395   2.826   5.188 -0.5460 -0.6935 -1.8902
19412TIP3    H279728   1.496   2.718   5.157  0.8965 -0.5065  1.9177
19413TIP3   OH279729   1.421   1.338   3.274  0.0806 -0.1890 -0.2814
19413TIP3    H179730   1.468   1.353   3.356  0.2298 -2.7420  0.1347
19413TIP3    H279731   1.330   1.325   3.300  0.2482 -1.7635 -0.3975
19414TIP3   OH279732   2.633   1.176  14.218 -0.7490 -0.4137  0.0721
19414TIP3    H179733   2.709   1.120  14.201  1.0642  1.4091  1.8726
19414TIP3    H279734   2.656   1.224  14.298 -3.2892  1.0648 -0.0330
19415TIP3   OH279735   6.481   3.656   4.270 -0.1305 -0.0604  0.3782
19415TIP3    H179736   6.393   3.689   4.287  0.1897  1.4499 -0.8322
19415TIP3    H279737   6.495   3.671   4.176  1.4461 -0.1894  0.5743
19416TIP3   OH279738   1.607   5.998  12.441 -0.7204 -0.2718  0.4203
19416TIP3    H179739   1.564   6.065  12.388 -0.7644 -1.0779 -0.5867
19416TIP3    H279740   1.543   5.975  12.508 -0.1975  1.6536  1.6156
19417TIP3   OH279741   1.624   2.764   0.421 -0.6062 -0.0773  0.2845
19417TIP3    H179742   1.577   2.787   0.502 -1.0309 -2.8335  0.8816
19417TIP3    H279743   1.674   2.685   0.444  2.9007  1.7188 -0.8768
19418TIP3   OH279744   5.307   2.725   2.794  0.1316  0.4239 -0.1146
19418TIP3    H179745   5.392   2.740   2.836  0.3498 -0.8930 -0.0744
19418TIP3    H279746   5.327   2.670   2.718 -0.6964 -0.0114 -0.0232
19419TIP3   OH279747   6.720   0.437   1.082  0.5456 -0.3153 -0.4164
19419TIP3    H179748   6.808   0.406   1.103  0.9194  1.5811  0.8701
19419TIP3    H279749   6.726   0.466   0.991  0.6651 -2.1952 -1.0373
19420TIP3   OH279750   2.071   1.670   5.256  0.4257  0.3083 -0.2869
19420TIP3    H179751   2.085   1.592   5.202  0.9537  1.0651 -1.2590
19420TIP3    H279752   1.980   1.662   5.285  0.9687 -1.5295  1.0487
19421TIP3   OH279753   1.812   6.077   1.430  0.2498 -0.5644 -0.5324
19421TIP3    H179754   1.816   6.172   1.426 -1.3868 -0.4781 -0.3364
19421TIP3    H279755   1.853   6.047   1.349  0.7331  0.2980 -0.6060
19422TIP3   OH279756   0.362   6.767   4.816  0.6906 -0.3490 -0.6043
19422TIP3    H179757   0.336   6.786   4.906  0.4857 -0.6455 -0.6016
19422TIP3    H279758   0.394   6.851   4.783 -2.6250  0.6409 -1.4269
19423TIP3   OH279759   0.839   3.973  13.471 -0.3167  0.4304  0.6150
19423TIP3    H179760   0.788   3.892  13.475  0.6820 -0.1485  2.1775
19423TIP3    H279761   0.930   3.944  13.475  0.0734  1.5738  0.1668
19424TIP3   OH279762   1.840   0.450  14.508 -0.6194 -0.4291  0.0625
19424TIP3    H179763   1.752   0.434  14.472  0.3070  0.0945 -2.5734
19424TIP3    H279764   1.884   0.366  14.502 -0.4638 -0.3403 -0.0433
19425TIP3   OH279765   0.853   4.102  16.984  0.0602  0.4619  0.2020
19425TIP3    H179766   0.777   4.147  16.946 -1.2137 -0.5100  1.5482
19425TIP3    H279767   0.857   4.019  16.937 -1.0488 -0.4128  1.6263
19426TIP3   OH279768   2.192   4.865  13.266  0.1293 -0.4539  0.0004
19426TIP3    H179769   2.167   4.822  13.348 -0.0843 -1.6348 -0.6766
19426TIP3    H279770   2.231   4.795  13.213  0.9179  0.4475 -0.6392
19427TIP3   OH279771   4.612   6.583  13.281  0.4250 -0.0305 -0.1198
19427TIP3    H179772   4.628   6.643  13.208 -0.4968  0.2346 -0.1151
19427TIP3    H279773   4.582   6.502  13.239 -1.6670  0.6337  0.0014
19428TIP3   OH279774   4.437   1.934  11.314 -0.0011 -0.0815  0.2892
19428TIP3    H179775   4.387   1.994  11.259  0.7014  1.0559  0.8873
19428TIP3    H279776   4.435   1.973  11.401  3.2089  0.7942  0.0292
19429TIP3   OH279777   6.289   5.273   4.743  0.3817 -0.4311 -0.5403
19429TIP3    H179778   6.250   5.349   4.786  1.2483 -0.0957 -0.3283
19429TIP3    H279779   6.381   5.299   4.728  0.8523 -1.6960  0.1483
19430TIP3   OH279780   1.223   5.145   5.891  0.2890  0.4129  0.0466
19430TIP3    H179781   1.185   5.084   5.828  0.8608 -0.7769  0.8123
19430TIP3    H279782   1.149   5.195   5.925 -0.1859  0.1648 -0.6317
19431TIP3   OH279783   5.196   0.866  17.267 -0.2953 -0.6533 -0.0349
19431TIP3    H179784   5.113   0.820  17.280 -0.6790  0.3045  0.9959
19431TIP3    H279785   5.184   0.950  17.312  1.5482 -0.8564  0.8700
19432TIP3   OH279786   1.258   6.444  10.611 -0.4024 -0.2876  0.1815
19432TIP3    H179787   1.176   6.451  10.563  0.5393  0.2721 -1.3673
19432TIP3    H279788   1.302   6.528  10.599  0.8133 -0.8961  0.2369
19433TIP3   OH279789   4.314   5.040   3.408  0.0473 -0.4290 -0.2756
19433TIP3    H179790   4.254   4.977   3.367  0.8643 -0.9581 -0.6489
19433TIP3    H279791   4.400   5.019   3.373  0.2887  1.1129 -0.6779
19434TIP3   OH279792   1.311   1.893   2.005  0.1867  0.1464  0.3826
19434TIP3    H179793   1.264   1.952   2.063 -0.1649  0.7765 -0.5245
19434TIP3    H279794   1.370   1.950   1.955  0.4526 -0.3736  0.0931
19435TIP3   OH279795   1.621   0.894  15.576  0.3818  0.1057 -0.0547
19435TIP3    H179796   1.646   0.960  15.640  0.8674  0.1422 -0.2836
19435TIP3    H279797   1.527   0.910  15.561  0.4673  0.6682 -0.0194
19436TIP3   OH279798   5.419   6.317   2.865 -0.2778 -0.4122  0.2802
19436TIP3    H179799   5.392   6.402   2.900  0.7250  0.1494 -0.2930
19436TIP3    H279800   5.347   6.292   2.806 -0.3628  0.2567  0.0905
19437TIP3   OH279801   2.736   1.929  11.167  0.5462  0.4694 -0.0146
19437TIP3    H179802   2.756   1.860  11.104 -1.3056  0.3688 -0.5252
19437TIP3    H279803   2.754   2.010  11.121 -3.2290  0.4756 -1.6247
19438TIP3   OH279804   3.337   5.845   4.737  0.0470 -0.3187 -0.7364
19438TIP3    H179805   3.286   5.910   4.785 -0.0374 -0.7855 -0.1910
19438TIP3    H279806   3.423   5.846   4.778  0.0740 -0.4856 -0.7883
19439TIP3   OH279807   5.257   2.529   4.252  0.6130  0.4532  0.1206
19439TIP3    H179808   5.246   2.437   4.274  0.0392  0.3626 -0.5419
19439TIP3    H279809   5.352   2.540   4.245  0.6468 -0.3098 -0.7185
19440TIP3   OH279810   4.469   1.451   2.936 -0.0593  0.1299  0.0716
19440TIP3    H179811   4.385   1.495   2.921 -0.1132 -0.4364 -1.4050
19440TIP3    H279812   4.528   1.520   2.966 -0.9175  0.6313  0.6065
19441TIP3   OH279813   1.253   3.945  15.759 -0.0266 -0.0381 -0.0992
19441TIP3    H179814   1.220   4.026  15.798 -0.5049 -0.8819  1.2877
19441TIP3    H279815   1.338   3.932  15.801  0.0166 -0.2830 -0.2645
19442TIP3   OH279816   3.464   3.709   6.191 -0.1571 -0.6643  0.5601
19442TIP3    H179817   3.477   3.647   6.262  0.1940 -1.3802 -0.1230
19442TIP3    H279818   3.374   3.740   6.202  0.3788  0.3779  2.2037
19443TIP3   OH279819   3.677   5.907  17.195 -0.1694 -0.5132 -0.6974
19443TIP3    H179820   3.621   5.965  17.246 -1.7725 -2.1564 -0.5484
19443TIP3    H279821   3.625   5.885  17.118  0.2760 -1.9900 -0.6004
19444TIP3   OH279822   2.098   5.679   1.107 -0.1299  0.0927 -0.1708
19444TIP3    H179823   2.092   5.692   1.201  0.9050  0.6352 -0.1671
19444TIP3    H279824   2.183   5.717   1.083  0.0964 -0.9885 -1.1534
19445TIP3   OH279825   4.610   4.237   4.964  1.0246 -0.1251  0.3787
19445TIP3    H179826   4.603   4.260   4.872  0.4543 -1.7269  0.0022
19445TIP3    H279827   4.653   4.152   4.965  1.4417  0.0777  1.6226
19446TIP3   OH279828   5.493   6.476   2.578 -0.0495  0.0286  0.3113
19446TIP3    H179829   5.403   6.465   2.546 -0.4234  1.0473  0.9924
19446TIP3    H279830   5.486   6.479   2.673  0.6541  0.5248  0.3582
19447TIP3   OH279831   0.762   5.472  15.490 -0.0908  0.6195 -0.3315
19447TIP3    H179832   0.832   5.478  15.555 -0.8612 -1.9530  0.7901
19447TIP3    H279833   0.786   5.397  15.436 -0.5877  1.4147 -1.6751
19448TIP3   OH279834   2.599   0.539   1.230 -0.5540  0.2018 -0.1463
19448TIP3    H179835   2.667   0.564   1.293  0.4371  2.2259 -1.9460
19448TIP3    H279836   2.642   0.475   1.174 -0.7395  0.0502 -0.1139
19449TIP3   OH279837   6.003   1.474  10.525  0.1847 -0.6309  0.1822
19449TIP3    H179838   5.974   1.406  10.586  1.3848  0.4010  1.9753
19449TIP3    H279839   6.097   1.482  10.541  0.1719  1.0022 -0.4161
19450TIP3   OH279840   2.627   6.194   0.875  0.2726  0.2010 -0.3672
19450TIP3    H179841   2.667   6.183   0.961 -0.0878 -1.8574 -0.4448
19450TIP3    H279842   2.666   6.274   0.841  1.4241  0.3113  1.1606
19451TIP3   OH279843   0.655   2.505  16.675 -0.6699  0.4513  0.2953
19451TIP3    H179844   0.737   2.526  16.720 -0.4994  1.7755 -0.6121
19451TIP3    H279845   0.664   2.412  16.653 -0.0613  0.1981  1.5271
19452TIP3   OH279846   4.152   3.103  14.044  0.2980  0.2120 -0.3847
19452TIP3    H179847   4.084   3.081  13.981  0.8874  0.0244 -0.9578
19452TIP3    H279848   4.122   3.185  14.084 -0.1801  0.2142 -0.7449
19453TIP3   OH279849   5.187   2.536   1.470  0.0675  0.0501  0.8627
19453TIP3    H179850   5.255   2.563   1.408  0.6295 -1.5281  0.7683
19453TIP3    H279851   5.234   2.519   1.552 -0.4993  0.8650  1.3730
19454TIP3   OH279852   3.351   1.535  12.917 -0.2957  0.4438  0.8991
19454TIP3    H179853   3.340   1.586  12.998 -1.3424  1.4958  0.1066
19454TIP3    H279854   3.433   1.566  12.880  0.1889 -0.0413  1.5443
19455TIP3   OH279855   4.207   2.230   4.007  0.6208  0.0777 -0.0641
19455TIP3    H179856   4.171   2.142   3.998 -0.0268  0.4401 -1.1044
19455TIP3    H279857   4.181   2.258   4.094  2.3111 -1.4127  0.9727
19456TIP3   OH279858   4.345   5.774  13.418  0.8820  0.1560 -0.2518
19456TIP3    H179859   4.385   5.861  13.427  1.5794 -0.2037  0.0932
19456TIP3    H279860   4.355   5.734  13.504  3.5236 -1.5540 -1.3314
19457TIP3   OH279861   1.379   0.038   5.608 -0.3722  0.0562  0.1126
19457TIP3    H179862   1.311  -0.024   5.583 -0.7870  0.2269  0.8189
19457TIP3    H279863   1.341   0.089   5.679  0.9662 -0.6987  1.3865
19458TIP3   OH279864   0.333   6.566  16.586  0.3529  0.4147 -0.2190
19458TIP3    H179865   0.390   6.535  16.656  0.8687  1.0854 -0.3451
19458TIP3    H279866   0.253   6.515  16.597 -0.5404  2.2756  2.4236
19459TIP3   OH279867   1.069   3.227   0.714  0.2344 -0.1769  0.2068
19459TIP3    H179868   1.110   3.287   0.652  1.7583 -2.9777 -1.5436
19459TIP3    H279869   1.130   3.221   0.787 -0.2843  0.9568  0.7527
19460TIP3   OH279870   3.783   2.202  12.122 -0.3622  0.7333  0.0172
19460TIP3    H179871   3.717   2.237  12.182 -1.1386 -0.2024 -0.2811
19460TIP3    H279872   3.823   2.280  12.083 -1.4921  1.3162 -0.0124
19461TIP3   OH279873   4.318   2.601  16.503 -0.2526 -0.4573  0.4761
19461TIP3    H179874   4.226   2.579  16.523 -0.5585  0.2893 -0.0906
19461TIP3    H279875   4.319   2.697  16.499  0.6481 -0.4423  0.9054
19462TIP3   OH279876   3.235   0.708   2.015  0.3322 -0.4161 -0.6923
19462TIP3    H179877   3.222   0.652   1.939 -1.7776  0.7920 -1.2725
19462TIP3    H279878   3.146   0.725   2.048  1.0338  1.1822  0.4743
19463TIP3   OH279879   4.291   2.236  10.695  0.0341 -0.9911 -0.5114
19463TIP3    H179880   4.361   2.172  10.706  0.2776 -0.3141  2.1633
19463TIP3    H279881   4.314   2.284  10.615  0.3850 -3.5132 -1.9849
19464TIP3   OH279882   6.266   2.578   0.069  0.4634 -0.0613  0.6686
19464TIP3    H179883   6.214   2.503   0.039  1.9509 -1.4057  1.3605
19464TIP3    H279884   6.285   2.626  -0.011 -0.7997 -0.2132  0.2536
19465TIP3   OH279885   1.349   6.443   6.130  0.3236  0.9660 -0.0604
19465TIP3    H179886   1.257   6.471   6.135  0.3842  1.2364 -0.4446
19465TIP3    H279887   1.346   6.358   6.087  0.4521  2.0482 -2.2678
19466TIP3   OH279888   2.663   0.476   2.099  0.4747 -0.0469  0.4952
19466TIP3    H179889   2.584   0.455   2.050  1.2156 -0.4469 -0.5576
19466TIP3    H279890   2.644   0.560   2.141 -0.8865 -0.6524  1.1166
19467TIP3   OH279891   6.799   2.379   3.450 -0.5501 -0.4904  1.1366
19467TIP3    H179892   6.893   2.396   3.438 -0.3180 -1.8886  0.9361
19467TIP3    H279893   6.763   2.463   3.479  0.2789  0.7877 -1.4038
19468TIP3   OH279894   0.987   5.801   2.294 -0.2714 -0.3504 -0.0708
19468TIP3    H179895   0.994   5.710   2.322  0.3960 -0.3412 -0.1948
19468TIP3    H279896   0.926   5.841   2.356 -0.9082 -0.9846 -0.2764
19469TIP3   OH279897   3.383   5.741   2.947 -0.5213 -0.6789 -0.0063
19469TIP3    H179898   3.442   5.685   2.895  0.8546  0.7918 -0.0461
19469TIP3    H279899   3.438   5.812   2.978 -2.0254  0.0792  0.9725
19470TIP3   OH279900   2.616   5.219   4.507 -0.2820 -0.2598  0.4043
19470TIP3    H179901   2.675   5.155   4.466  0.1957 -0.4980  1.4561
19470TIP3    H279902   2.672   5.293   4.527 -0.5824 -0.0204  0.3519
19471TIP3   OH279903   0.782   4.502  16.882 -0.2121 -0.5401 -0.0495
19471TIP3    H179904   0.749   4.412  16.882  0.3730 -0.7746  1.3406
19471TIP3    H279905   0.704   4.557  16.877 -0.7468 -1.1080  1.5668
19472TIP3   OH279906   0.958   4.139   3.272  0.0815  0.2251 -0.1074
19472TIP3    H179907   0.948   4.190   3.352  0.9023 -0.0773  0.1893
19472TIP3    H279908   0.899   4.065   3.283 -1.1299  1.0949 -0.5460
19473TIP3   OH279909   0.667   5.453  12.901 -0.4721 -0.9626  0.2008
19473TIP3    H179910   0.571   5.447  12.909 -0.3145 -1.9483  1.3820
19473TIP3    H279911   0.691   5.522  12.962 -0.3798 -0.9857  0.1905
19474TIP3   OH279912   6.286   3.425   0.737  0.3058  0.3320  0.2857
19474TIP3    H179913   6.275   3.397   0.646  0.5805 -1.1032  0.6745
19474TIP3    H279914   6.196   3.431   0.770  0.1559  2.0324 -0.4144
19475TIP3   OH279915   6.375   0.390  14.105 -0.0904 -1.0862  0.0320
19475TIP3    H179916   6.402   0.445  14.032 -1.4400  0.5879  0.7288
19475TIP3    H279917   6.453   0.380  14.159  0.2126  0.0838 -0.1775
19476TIP3   OH279918   2.054   2.980  10.589 -0.4997  0.4716  0.2362
19476TIP3    H179919   2.131   2.966  10.533 -0.6859 -0.6236  0.2470
19476TIP3    H279920   2.041   3.075  10.588  1.0695  0.6979  0.5334
19477TIP3   OH279921   3.276   6.358  12.687 -0.3714 -0.4787  0.4285
19477TIP3    H179922   3.280   6.399  12.773 -0.4747 -1.6644  1.0024
19477TIP3    H279923   3.282   6.431  12.625 -2.4119  0.5775  1.4437
19478TIP3   OH279924   0.311   0.865   3.533  0.2973  0.2496  0.2377
19478TIP3    H179925   0.281   0.788   3.485 -0.9384  1.7089 -1.4277
19478TIP3    H279926   0.405   0.851   3.546  0.2489 -1.1302 -0.8027
19479TIP3   OH279927   1.960   1.453  12.515 -0.1965  0.3642  0.2591
19479TIP3    H179928   1.933   1.378  12.461 -0.3777  0.8861 -0.3801
19479TIP3    H279929   2.037   1.422  12.562  0.3568  0.1250 -0.8011
19480TIP3   OH279930   6.784   6.679   1.651 -0.3315 -0.0498  0.0414
19480TIP3    H179931   6.693   6.698   1.629 -1.4724 -3.8833  0.9487
19480TIP3    H279932   6.785   6.671   1.746  0.6846 -1.0850 -0.0392
19481TIP3   OH279933   2.919   0.814  14.280  0.0685  0.5251 -0.0877
19481TIP3    H179934   3.001   0.850  14.315 -0.7265  0.5686  1.8449
19481TIP3    H279935   2.859   0.817  14.355 -1.2457 -0.9230 -1.0563
19482TIP3   OH279936   1.955   4.529  13.937  0.2114 -0.4475 -0.3850
19482TIP3    H179937   1.869   4.490  13.953  0.3369 -0.1287  1.1248
19482TIP3    H279938   1.955   4.609  13.990  1.6868 -0.7681  0.1040
19483TIP3   OH279939   0.683   6.373  14.696 -0.5526 -0.5250 -0.0759
19483TIP3    H179940   0.639   6.378  14.611  0.4375 -0.5711 -0.6015
19483TIP3    H279941   0.739   6.296  14.689  1.8503  1.1896 -0.5339
19484TIP3   OH279942   0.908   0.267   6.613 -0.2368 -0.3332  0.1432
19484TIP3    H179943   0.892   0.239   6.704  0.2456  1.4535  0.7969
19484TIP3    H279944   0.989   0.223   6.589 -1.1328 -1.9950  0.0464
19485TIP3   OH279945   6.761   4.305  15.580  0.6590 -0.0720  0.0473
19485TIP3    H179946   6.705   4.352  15.517  1.2383  0.0398 -0.3886
19485TIP3    H279947   6.793   4.229  15.531  1.1128  0.0163  0.2047
19486TIP3   OH279948   6.256   6.208   2.871  0.3939 -0.1806 -0.3874
19486TIP3    H179949   6.292   6.161   2.946 -1.2928 -1.1666 -0.1634
19486TIP3    H279950   6.205   6.279   2.910  0.7438  0.2087 -0.6449
19487TIP3   OH279951   3.800   6.240   0.209 -0.0160 -0.0079  0.6506
19487TIP3    H179952   3.894   6.257   0.215  0.1712 -1.1411  1.1121
19487TIP3    H279953   3.774   6.224   0.300 -0.9068  1.5881  0.6813
19488TIP3   OH279954   5.886   0.142  14.914 -0.0987 -0.0863  0.1782
19488TIP3    H179955   5.846   0.225  14.940 -0.1117 -0.4343  1.3169
19488TIP3    H279956   5.970   0.140  14.960  0.5665 -0.0362 -1.0176
19489TIP3   OH279957   0.736   5.169  15.083  0.0927  0.7808  0.8492
19489TIP3    H179958   0.804   5.162  15.016  1.2600  1.7418  1.9045
19489TIP3    H279959   0.690   5.085  15.079  0.2507  0.7537 -1.0250
19490TIP3   OH279960   6.126   3.505   4.906 -0.4106 -0.8452 -0.3778
19490TIP3    H179961   6.086   3.534   4.988  0.0530  2.4158 -1.2561
19490TIP3    H279962   6.051   3.485   4.849 -0.7516 -0.7812  0.0405
19491TIP3   OH279963   5.323   2.572  15.261  0.5578 -0.7614  0.0507
19491TIP3    H179964   5.363   2.520  15.191  0.0232  0.1268 -0.9318
19491TIP3    H279965   5.235   2.593  15.229 -0.3494 -1.8403  1.7669
19492TIP3   OH279966   3.291   2.259   4.178  0.3715 -0.2213  0.4877
19492TIP3    H179967   3.248   2.252   4.263  1.0575 -0.5295  0.8086
19492TIP3    H279968   3.372   2.307   4.196  0.5744 -0.3885  0.0307
19493TIP3   OH279969   3.491   4.958  12.290 -0.0481  0.3928 -0.9757
19493TIP3    H179970   3.577   4.921  12.269  0.1933  0.1809  0.3668
19493TIP3    H279971   3.429   4.896  12.252  0.3757 -0.6633  0.0311
19494TIP3   OH279972   6.317   0.934   6.442 -0.1543 -0.0794 -0.2638
19494TIP3    H179973   6.329   1.028   6.453  1.2211 -0.4552  1.8106
19494TIP3    H279974   6.403   0.897   6.462 -0.0571 -1.6190 -3.3405
19495TIP3   OH279975   5.997   0.609  12.174  0.1858 -0.7545  0.0664
19495TIP3    H179976   5.988   0.518  12.144  0.6587  0.0365 -2.6404
19495TIP3    H279977   6.041   0.654  12.102  2.1612  1.1258  2.3691
19496TIP3   OH279978   2.503   6.780   3.103 -0.4146 -0.5026  0.4247
19496TIP3    H179979   2.578   6.721   3.110  0.3911  0.6388  1.6059
19496TIP3    H279980   2.427   6.723   3.116  0.3087 -1.4460  0.6034
19497TIP3   OH279981   0.245   0.440   0.959  0.3150  0.5108 -0.1537
19497TIP3    H179982   0.316   0.503   0.972 -0.1264  1.2855 -1.3909
19497TIP3    H279983   0.229   0.441   0.865 -0.9514 -0.0869  0.0404
19498TIP3   OH279984   3.296   3.487   2.653 -0.2910  0.1995  0.2607
19498TIP3    H179985   3.218   3.433   2.668 -1.6230  2.0347  0.1371
19498TIP3    H279986   3.369   3.427   2.668 -1.7019 -2.1196 -1.6331
19499TIP3   OH279987   4.250   2.768   4.892  0.0360  0.3978 -0.0495
19499TIP3    H179988   4.343   2.758   4.873  0.1302  2.1484 -0.5894
19499TIP3    H279989   4.246   2.833   4.962 -0.7229 -0.6968  0.9571
19500TIP3   OH279990   1.999   0.954   5.778  0.1109  0.0790 -0.4492
19500TIP3    H179991   1.998   0.862   5.804 -1.1482  0.2355  0.0795
19500TIP3    H279992   1.999   0.951   5.682 -1.6370 -0.4948 -0.4654
19501TIP3   OH279993   0.803   4.401   1.858 -0.2177  0.3795  0.0330
19501TIP3    H179994   0.860   4.401   1.935 -1.7240  1.2461  1.1699
19501TIP3    H279995   0.729   4.456   1.883 -0.6935  0.7248 -2.0715
19502TIP3   OH279996   5.681   5.756   4.166 -0.0915  0.1419  0.2092
19502TIP3    H179997   5.754   5.793   4.216 -1.3563  1.4477  1.1525
19502TIP3    H279998   5.604   5.800   4.202 -1.3300 -1.1656 -0.8230
19503TIP3   OH279999   6.085   6.381  16.982  0.0855  0.1730  0.1861
19503TIP3    H180000   6.103   6.374  17.076 -2.0263  3.0509  0.8699
19503TIP3    H280001   6.010   6.322  16.968  1.0653 -1.0713  0.0613
19504TIP3   OH280002   0.388   4.234  15.660  0.1694 -0.0714  0.2653
19504TIP3    H180003   0.355   4.185  15.736 -1.7459 -0.3175 -0.6922
19504TIP3    H280004   0.406   4.321  15.695 -1.5887  0.0873  0.8291
19505TIP3   OH280005   5.844   2.129  12.877  0.1786  0.6569 -0.2480
19505TIP3    H180006   5.837   2.034  12.870 -2.3263  0.8854 -1.6042
19505TIP3    H280007   5.910   2.144  12.944  0.2806 -2.0397  0.2919
19506TIP3   OH280008   0.965   2.953   4.340  0.1978 -0.4010 -0.1931
19506TIP3    H180009   0.954   2.871   4.387  1.1153 -0.3150  0.1773
19506TIP3    H280010   0.999   3.014   4.406 -0.3770  0.2473 -0.4887
19507TIP3   OH280011   4.519   3.688   4.564 -0.2920  0.5418 -0.7200
19507TIP3    H180012   4.586   3.741   4.608  0.7518 -0.5147 -1.0221
19507TIP3    H280013   4.536   3.699   4.471 -0.6789  0.4521 -0.8029
19508TIP3   OH280014   1.463   5.189   2.990  0.0276  0.7294 -0.0643
19508TIP3    H180015   1.385   5.241   3.011 -1.2788 -1.0605 -0.3767
19508TIP3    H280016   1.436   5.099   3.006  1.4089 -0.0796 -2.1676
19509TIP3   OH280017   0.004   4.606  15.662 -0.4162 -0.0037  0.0075
19509TIP3    H180018  -0.015   4.515  15.638  3.7816 -0.6469 -1.2892
19509TIP3    H280019   0.069   4.600  15.732 -1.0145  2.0359  0.7977
19510TIP3   OH280020   3.943   1.155   2.434  0.1884  0.5997 -0.5201
19510TIP3    H180021   3.870   1.178   2.377  0.0235 -1.2486 -1.0712
19510TIP3    H280022   4.019   1.151   2.375 -0.1400 -2.1846 -0.7851
19511TIP3   OH280023   5.316   6.311  15.711  0.2780  0.3668  0.5461
19511TIP3    H180024   5.283   6.371  15.643 -0.6849 -0.4253  0.2988
19511TIP3    H280025   5.327   6.227  15.666 -0.0187 -0.0742  1.2848
19512TIP3   OH280026   3.513   4.132  15.698 -0.0346 -0.5017  0.4851
19512TIP3    H180027   3.546   4.076  15.628  1.7253  0.5538  0.4484
19512TIP3    H280028   3.479   4.209  15.653 -2.1323 -1.3282  0.5628
19513TIP3   OH280029   3.956   3.982   5.427 -0.1171 -0.1006 -0.0987
19513TIP3    H180030   3.930   3.893   5.404 -0.0812  0.3833 -2.0595
19513TIP3    H280031   3.876   4.033   5.417 -0.5001 -0.1420  2.4581
19514TIP3   OH280032   5.351   4.759  14.263  0.0876 -0.2102 -0.0375
19514TIP3    H180033   5.339   4.852  14.243  3.1877  0.0795 -0.7690
19514TIP3    H280034   5.343   4.715  14.179  2.0699 -0.1874 -0.2700
19515TIP3   OH280035   3.989   6.572   5.023 -0.5795 -0.1599  0.9055
19515TIP3    H180036   3.909   6.531   5.057 -0.0381 -1.5432  0.5711
19515TIP3    H280037   3.971   6.582   4.929 -0.6205  0.1555  0.9474
19516TIP3   OH280038   6.226   6.046  14.977 -0.2910  0.1205 -0.2192
19516TIP3    H180039   6.174   5.974  14.941  0.3067 -1.5941  2.2463
19516TIP3    H280040   6.170   6.123  14.965 -1.5933 -0.9902 -1.5038
19517TIP3   OH280041   6.282   1.412   3.002 -0.6460 -0.3178 -0.6548
19517TIP3    H180042   6.250   1.369   3.081  0.6554 -0.5318 -0.2294
19517TIP3    H280043   6.266   1.505   3.016  0.5864 -0.2393  0.3586
19518TIP3   OH280044   2.807   4.326  14.938  0.0789 -0.0658 -0.3692
19518TIP3    H180045   2.770   4.407  14.903 -0.5908 -0.3054 -0.2130
19518TIP3    H280046   2.868   4.355  15.006  0.6017  0.3530 -1.0076
19519TIP3   OH280047   0.823   0.877   4.198 -0.3795 -1.1631 -0.4734
19519TIP3    H180048   0.803   0.969   4.180  3.0222 -0.6450 -1.8966
19519TIP3    H280049   0.763   0.828   4.140 -1.3690  0.1578 -0.5913
19520TIP3   OH280050   0.806   6.706  14.964  0.0646  0.4654 -0.2262
19520TIP3    H180051   0.887   6.705  14.912  0.5810 -0.3571  0.5940
19520TIP3    H280052   0.813   6.786  15.016 -0.0664  0.8543 -0.7914
19521TIP3   OH280053   6.115   2.665  12.000 -0.2885 -0.7562  0.1275
19521TIP3    H180054   6.119   2.742  11.943 -0.2534 -0.7712  0.1093
19521TIP3    H280055   6.042   2.683  12.060 -0.3341 -0.7475  0.0685
19522TIP3   OH280056   3.362   6.520   0.998 -0.2788  0.1521  0.4068
19522TIP3    H180057   3.336   6.475   1.078 -0.9848 -0.3574 -0.1108
19522TIP3    H280058   3.457   6.533   1.008 -0.1176 -1.2055  0.6664
19523TIP3   OH280059   0.393   4.207   2.363  0.8642  0.3273  0.3689
19523TIP3    H180060   0.457   4.278   2.352  1.3175 -0.0270  0.7110
19523TIP3    H280061   0.322   4.246   2.413  0.4790  0.9277 -0.6191
19524TIP3   OH280062   5.135   1.078   3.147  0.2401 -0.3697 -0.4934
19524TIP3    H180063   5.111   0.996   3.103 -1.7994  0.9151 -1.8619
19524TIP3    H280064   5.061   1.137   3.130  3.4818  3.1766 -3.2176
19525TIP3   OH280065   6.800   6.693   4.633 -0.3425  0.4063  0.2059
19525TIP3    H180066   6.802   6.683   4.537 -0.3018  0.7097  0.1737
19525TIP3    H280067   6.791   6.604   4.666  2.1022  0.0427 -0.0088
19526TIP3   OH280068   0.206   3.232   5.731 -0.5803  0.5479  0.2417
19526TIP3    H180069   0.148   3.270   5.797  0.6291  0.0861  1.6109
19526TIP3    H280070   0.293   3.267   5.753 -0.0163 -0.3471 -0.5388
19527TIP3   OH280071   1.201   6.373  16.051 -0.0819  0.1574  0.1635
19527TIP3    H180072   1.163   6.394  16.136  0.4966 -0.3827  0.5644
19527TIP3    H280073   1.134   6.397  15.988  0.0540  1.9318  0.6737
19528TIP3   OH280074   1.731   6.256   6.006  0.0978 -0.0410  0.3925
19528TIP3    H180075   1.783   6.175   6.003 -0.1949 -0.2450  0.8134
19528TIP3    H280076   1.640   6.226   6.004 -0.0134  0.3635 -1.9486
19529TIP3   OH280077   3.740   4.088   2.582  0.3125 -0.2117 -0.2317
19529TIP3    H180078   3.673   4.022   2.601 -1.0477  0.7982 -1.4101
19529TIP3    H280079   3.691   4.170   2.573  1.5269  0.2802 -2.6658
19530TIP3   OH280080   4.938   2.906   1.513 -0.0342  0.3966  0.1432
19530TIP3    H180081   4.942   2.819   1.553 -1.3823  0.1542 -0.2081
19530TIP3    H280082   4.936   2.889   1.418  0.9592  0.8635  0.0376
19531TIP3   OH280083   5.132   3.055  11.647 -0.1383  0.6159  0.5476
19531TIP3    H180084   5.218   3.039  11.684  0.1842 -0.6547 -0.6867
19531TIP3    H280085   5.143   3.040  11.553 -2.2022 -1.9835  0.6361
19532TIP3   OH280086   3.519   2.525  14.844  0.5821 -0.6390  0.2686
19532TIP3    H180087   3.425   2.531  14.861  0.2658  1.6952 -2.0437
19532TIP3    H280088   3.544   2.613  14.817  2.5038 -2.2928 -3.6887
19533TIP3   OH280089   3.699   0.007  15.739 -0.6069  0.0233  0.0369
19533TIP3    H180090   3.666  -0.082  15.726 -1.8502  0.8506 -2.7873
19533TIP3    H280091   3.769   0.017  15.674 -0.1198  0.9479  0.6870
19534TIP3   OH280092   5.747   1.640   6.187 -0.6260 -0.3828  0.5175
19534TIP3    H180093   5.765   1.617   6.096 -1.0523 -2.4062  0.9312
19534TIP3    H280094   5.834   1.648   6.227 -0.4486  0.0636  0.0632
19535TIP3   OH280095   5.250   6.710  14.288 -0.0831 -0.6699  0.0838
19535TIP3    H180096   5.292   6.792  14.262  0.4809 -0.9011  0.2558
19535TIP3    H280097   5.197   6.686  14.213  1.6323 -1.3994 -0.9308
19536TIP3   OH280098   1.143   2.306  11.831  0.1296  0.0874 -0.1621
19536TIP3    H180099   1.114   2.351  11.910 -1.2391  0.7889 -1.0594
19536TIP3    H280100   1.234   2.336  11.819  0.9188 -1.2543  2.0089
19537TIP3   OH280101   5.708   2.241   5.312  0.3461  0.0273  0.4630
19537TIP3    H180102   5.628   2.281   5.276 -0.3286 -0.1241  1.7839
19537TIP3    H280103   5.677   2.165   5.360  1.2425  0.2375  1.3893
19538TIP3   OH280104   6.306   5.203  14.292  0.2330  0.3892 -0.6518
19538TIP3    H180105   6.266   5.141  14.231  1.8212 -1.2075 -0.0880
19538TIP3    H280106   6.295   5.162  14.378  0.5632  1.2876 -0.1786
19539TIP3   OH280107   4.798   3.371   5.363 -0.1851  0.3309 -0.6749
19539TIP3    H180108   4.765   3.395   5.450  1.4691 -0.4128  0.1917
19539TIP3    H280109   4.841   3.451   5.332  1.1380 -0.0371  0.1529
19540TIP3   OH280110   1.335   6.534   5.325  0.0686  0.3957 -0.3699
19540TIP3    H180111   1.299   6.568   5.407 -0.7454 -0.1873 -0.4790
19540TIP3    H280112   1.304   6.595   5.258  1.2732  1.2389 -0.1664
19541TIP3   OH280113   1.203   5.389   2.011 -0.0168 -0.2975 -0.1115
19541TIP3    H180114   1.269   5.433   2.064 -0.2272  0.0619 -0.1477
19541TIP3    H280115   1.129   5.450   2.009 -1.0909 -1.5081  1.5285
19542TIP3   OH280116   1.356   2.248   5.665  0.4387 -0.1039 -0.6470
19542TIP3    H180117   1.262   2.260   5.656  0.0296 -2.5816 -0.0634
19542TIP3    H280118   1.394   2.332   5.639 -2.0827  2.0182  2.2579
19543TIP3   OH280119   3.362   3.013   6.011  0.0406 -0.4413 -0.2048
19543TIP3    H180120   3.425   3.085   6.005  0.8768 -1.3177 -2.7101
19543TIP3    H280121   3.277   3.055   5.997  0.3104  0.3402  0.4072
19544TIP3   OH280122   2.600   2.375   4.953  0.1890 -0.2746 -0.1868
19544TIP3    H180123   2.657   2.300   4.964  0.0077 -0.5803 -1.3094
19544TIP3    H280124   2.621   2.410   4.867  1.4435  1.9750  0.9585
19545TIP3   OH280125   3.297   0.016   4.665  0.1212  0.0654  0.3534
19545TIP3    H180126   3.251  -0.059   4.627  0.9451 -0.3242  0.1125
19545TIP3    H280127   3.227   0.080   4.684 -0.3437  0.2394 -1.7335
19546TIP3   OH280128   5.150   4.954  13.142 -0.3182 -0.7295 -0.5529
19546TIP3    H180129   5.141   4.978  13.234  2.2036  1.2782 -0.7821
19546TIP3    H280130   5.081   5.004  13.097  0.0585  0.2729 -0.0411
19547TIP3   OH280131   0.268   0.514  14.756  0.2881 -0.6212 -0.0289
19547TIP3    H180132   0.186   0.563  14.743  0.9120  0.7177  0.9673
19547TIP3    H280133   0.308   0.512  14.670  0.2122  0.5875 -0.1110
19548TIP3   OH280134   1.329   1.440   3.712  0.5977  0.1857  0.4369
19548TIP3    H180135   1.313   1.513   3.772  1.2367  0.9630 -0.3280
19548TIP3    H280136   1.246   1.430   3.664  0.4086  0.2098  0.7584
19549TIP3   OH280137   6.118   0.236  12.543 -0.0848 -0.1085 -0.2021
19549TIP3    H180138   6.040   0.180  12.548 -0.0567 -0.1630 -0.3571
19549TIP3    H280139   6.116   0.271  12.454 -0.4324  0.6232  0.0896
19550TIP3   OH280140   6.230   5.564   2.930 -0.8609  0.0650 -0.4649
19550TIP3    H180141   6.174   5.496   2.892  0.1884  0.2275 -2.3497
19550TIP3    H280142   6.315   5.522   2.941 -0.4595  0.8015 -0.7657
19551TIP3   OH280143   5.574   4.104  11.987  0.1755  0.3994 -0.1841
19551TIP3    H180144   5.517   4.180  12.000 -0.6633 -0.3369  0.3959
19551TIP3    H280145   5.519   4.028  12.004  1.0996 -0.3437 -0.4541
19552TIP3   OH280146   1.146   2.619  10.616  0.1724  0.4449  0.2937
19552TIP3    H180147   1.233   2.595  10.586 -0.5109 -0.5410 -0.9300
19552TIP3    H280148   1.089   2.548  10.587 -0.6397 -0.2514  3.3926
19553TIP3   OH280149   4.751   4.341   1.424  1.0305  0.0319 -0.2159
19553TIP3    H180150   4.666   4.297   1.414  1.0082 -0.0183  0.1868
19553TIP3    H280151   4.807   4.300   1.359  1.1979 -1.0673  0.6158
19554TIP3   OH280152   2.495   6.522   2.541 -0.0126 -0.1480  0.6982
19554TIP3    H180153   2.539   6.606   2.554  1.7255 -0.5956 -1.7762
19554TIP3    H280154   2.491   6.512   2.446 -0.2953 -2.7914  0.9509
19555TIP3   OH280155   3.871   6.381   4.409 -0.2040 -0.4193 -0.2156
19555TIP3    H180156   3.790   6.422   4.438 -0.9146 -0.8818 -1.5133
19555TIP3    H280157   3.844   6.316   4.344  1.1371 -1.1255 -0.1012
19556TIP3   OH280158   3.667   4.232   5.134  0.2250  0.3320  0.7048
19556TIP3    H180159   3.704   4.274   5.212  0.0314  0.2313  0.8512
19556TIP3    H280160   3.723   4.156   5.119 -0.1589 -0.0361  1.1524
19557TIP3   OH280161   3.059   2.104   3.913  0.5219 -0.1940 -0.1000
19557TIP3    H180162   3.054   2.011   3.893 -0.2415 -0.0990 -0.3727
19557TIP3    H280163   3.094   2.108   4.002  2.5771 -0.6729 -0.8729
19558TIP3   OH280164   0.925   6.350  16.568 -0.1127 -0.4131 -0.3320
19558TIP3    H180165   0.915   6.432  16.617 -0.8022 -2.1116  2.4970
19558TIP3    H280166   1.017   6.327  16.578 -0.2415 -0.7318  0.1516
19559TIP3   OH280167   6.318   4.555   0.429  0.0935  0.0388 -0.6204
19559TIP3    H180168   6.242   4.583   0.378  0.0777  0.4690 -0.3697
19559TIP3    H280169   6.368   4.636   0.443 -0.3196  0.0816  0.7273
19560TIP3   OH280170   4.937   6.174  14.236  0.5589  0.2135 -0.0574
19560TIP3    H180171   4.876   6.143  14.302  1.5259  1.3112  1.3696
19560TIP3    H280172   4.975   6.253  14.273  1.8242  0.3188 -1.5170
19561TIP3   OH280173   1.180   3.287   0.974  0.3184 -0.6685  0.3780
19561TIP3    H180174   1.129   3.312   1.051 -0.8260 -2.1123  0.1065
19561TIP3    H280175   1.247   3.228   1.007 -1.6522 -3.2124 -0.0308
19562TIP3   OH280176   3.649   5.427  12.538 -0.5590  0.5440  0.1741
19562TIP3    H180177   3.566   5.388  12.563  0.2495  0.2384  2.5450
19562TIP3    H280178   3.700   5.355  12.502 -0.3872  0.1676  1.1579
19563TIP3   OH280179   4.431   0.070   1.629 -0.1787  0.0495 -0.0343
19563TIP3    H180180   4.385   0.135   1.576 -0.7650  0.6340  1.1576
19563TIP3    H280181   4.434   0.109   1.717  2.5274 -0.0038 -0.0467
19564TIP3   OH280182   0.731   4.675   2.844 -0.5159  0.0380  0.5172
19564TIP3    H180183   0.748   4.585   2.874  0.2888 -0.4367 -1.2618
19564TIP3    H280184   0.644   4.671   2.805 -0.9206  0.2914  1.3821
19565TIP3   OH280185   1.831   6.625   4.618  0.0146 -0.3919  0.6033
19565TIP3    H180186   1.922   6.648   4.640  0.0449 -0.1744  0.2582
19565TIP3    H280187   1.816   6.542   4.664 -0.3845  0.7578  2.5858
19566TIP3   OH280188   1.127   2.046   4.893 -0.5254  0.2053 -0.1716
19566TIP3    H180189   1.088   1.985   4.829 -0.1803  0.3778 -0.5461
19566TIP3    H280190   1.059   2.112   4.907 -0.4368  0.4102 -0.6970
19567TIP3   OH280191   4.680   0.871  15.111  0.2932 -0.3262 -0.2961
19567TIP3    H180192   4.773   0.850  15.116  0.7324  1.7874  1.2359
19567TIP3    H280193   4.665   0.930  15.185 -1.8210  0.9558 -1.6919
19568TIP3   OH280194   4.925   2.483   6.481  0.2028 -0.3399  0.1607
19568TIP3    H180195   4.899   2.395   6.510  2.1030 -0.5781  1.2023
19568TIP3    H280196   5.016   2.492   6.509  0.2573  1.6983 -0.5779
19569TIP3   OH280197   1.202   5.289   0.592  0.3308 -0.0919  0.2521
19569TIP3    H180198   1.134   5.289   0.659  0.0793 -0.8188  0.0000
19569TIP3    H280199   1.183   5.366   0.537 -0.6567 -0.6494 -0.1936
19570TIP3   OH280200   2.617   5.256   1.075 -0.4958  0.7502 -0.1831
19570TIP3    H180201   2.563   5.331   1.050  0.7310  1.4415 -0.8231
19570TIP3    H280202   2.607   5.194   1.003  0.7082  1.4985 -1.0093
19571TIP3   OH280203   4.084   1.542  14.751 -0.4794  0.4112 -0.0447
19571TIP3    H180204   4.125   1.502  14.827 -1.7731 -0.1075  0.3935
19571TIP3    H280205   4.156   1.584  14.704  0.7234 -1.4556  0.0935
19572TIP3   OH280206   0.881   2.343  11.596 -0.2413  0.0023  0.0693
19572TIP3    H180207   0.816   2.329  11.527 -0.9823 -0.0596  0.7616
19572TIP3    H280208   0.938   2.266  11.592 -1.1974 -0.7358  0.5169
19573TIP3   OH280209   1.713   2.383   4.548 -0.4535 -0.5456  0.3207
19573TIP3    H180210   1.779   2.439   4.507 -0.7614 -0.8293 -0.5805
19573TIP3    H280211   1.709   2.306   4.492  0.2690 -1.6705  1.7866
19574TIP3   OH280212   2.037   4.829  13.854 -0.0442  0.0634  0.4191
19574TIP3    H180213   2.102   4.833  13.784 -0.2553  0.9776  0.2723
19574TIP3    H280214   1.963   4.782  13.816 -0.4057  1.1089 -0.1755
19575TIP3   OH280215   0.765   6.016   5.063 -0.0772 -0.1455 -0.4846
19575TIP3    H180216   0.783   5.971   4.981 -0.2135 -0.2646 -0.4510
19575TIP3    H280217   0.786   6.108   5.046  0.2881 -0.2366 -0.5285
19576TIP3   OH280218   4.427   4.476   1.839  0.3727 -0.2560 -0.0466
19576TIP3    H180219   4.359   4.413   1.864  1.2045 -0.6397  1.3101
19576TIP3    H280220   4.439   4.530   1.917  2.9590 -1.4030  0.4089
19577TIP3   OH280221   4.532   2.479  15.733  0.1222 -0.5578  0.5113
19577TIP3    H180222   4.450   2.453  15.691  0.3264 -1.0375  0.4080
19577TIP3    H280223   4.600   2.451  15.672  0.2742  2.0108 -0.5667
19578TIP3   OH280224   0.547   0.915  15.538  0.0359  0.2583  0.4239
19578TIP3    H180225   0.580   0.937  15.626  0.5438 -0.0644  0.3142
19578TIP3    H280226   0.565   0.994  15.486 -1.0428  0.7687  0.8208
19579TIP3   OH280227   3.779   0.052  16.352  0.1385  0.0459 -0.5909
19579TIP3    H180228   3.859   0.018  16.392 -0.4628  1.1684  1.6797
19579TIP3    H280229   3.781   0.019  16.262  2.3250 -1.2894 -0.0965
19580TIP3   OH280230   3.077   3.642  15.494 -0.1665  0.2424 -0.4745
19580TIP3    H180231   3.080   3.690  15.576  2.5450 -0.6040 -0.0375
19580TIP3    H280232   3.088   3.709  15.427 -1.9851  0.8796 -0.1698
19581TIP3   OH280233   6.042   3.586  11.909 -0.4101  0.1799  0.2440
19581TIP3    H180234   6.084   3.566  11.993  2.5938  0.1436 -1.2064
19581TIP3    H280235   6.003   3.673  11.922  0.3700  0.3414  1.5585
19582TIP3   OH280236   3.474   6.428  17.027  0.6568  0.7107 -0.0755
19582TIP3    H180237   3.548   6.373  17.002  1.2006  1.1912  0.4921
19582TIP3    H280238   3.436   6.385  17.103 -0.4328 -0.2339 -1.1122
19583TIP3   OH280239   1.478   1.213  14.571 -0.0168 -0.1663  0.0808
19583TIP3    H180240   1.393   1.171  14.584  0.5974 -0.7841  2.2996
19583TIP3    H280241   1.458   1.306  14.567 -0.8477 -0.3389  0.0845
19584TIP3   OH280242   4.492   5.332  13.683 -0.0897  0.2823 -0.0480
19584TIP3    H180243   4.482   5.288  13.598 -1.3527  1.6192 -0.6108
19584TIP3    H280244   4.403   5.340  13.717  0.5630 -2.1225  2.4248
19585TIP3   OH280245   0.532   6.359   5.953  0.3421 -0.1625 -0.2287
19585TIP3    H180246   0.520   6.448   5.985 -0.9561 -0.4731  0.1454
19585TIP3    H280247   0.493   6.359   5.866  0.1726 -0.4269 -0.1518
19586TIP3   OH280248   1.313   6.091   0.319 -0.2612 -0.6757 -0.5922
19586TIP3    H180249   1.259   6.083   0.397  0.3122 -0.0866 -0.1278
19586TIP3    H280250   1.258   6.141   0.258 -0.5894 -0.8618 -0.4486
19587TIP3   OH280251   5.431   6.787   5.687 -0.1141  0.2354  0.5974
19587TIP3    H180252   5.426   6.874   5.727 -1.0863  0.4735 -0.0411
19587TIP3    H280253   5.367   6.734   5.734 -1.8287  0.7228 -1.1286
19588TIP3   OH280254   0.923   0.752  13.355 -0.2005 -0.1013  0.3712
19588TIP3    H180255   0.966   0.806  13.288 -1.0041 -0.1831 -0.2209
19588TIP3    H280256   0.920   0.664  13.317  0.7636 -0.4963  1.1777
19589TIP3   OH280257   3.418   0.771   2.569  0.6864 -0.6111  0.1738
19589TIP3    H180258   3.358   0.727   2.508  0.5776 -0.1633 -0.0484
19589TIP3    H280259   3.367   0.781   2.650  0.8501 -1.2551  0.3590
19590TIP3   OH280260   6.526   6.404   1.001 -0.1050  0.3337 -0.3844
19590TIP3    H180261   6.445   6.430   0.956 -0.5539  1.0343  0.8206
19590TIP3    H280262   6.551   6.481   1.052 -0.1653 -0.8056  1.3879
19591TIP3   OH280263   5.542   6.601   6.046  0.0758  0.2136  0.2836
19591TIP3    H180264   5.514   6.519   6.005 -0.9395 -0.4876  2.3183
19591TIP3    H280265   5.467   6.629   6.098 -0.2528  3.4113 -1.7438
19592TIP3   OH280266   2.118   3.696  17.213  0.0932 -0.3503  0.3344
19592TIP3    H180267   2.068   3.695  17.295 -0.1581  1.4042  0.2252
19592TIP3    H280268   2.070   3.756  17.156  2.3700  1.5044  0.2797
19593TIP3   OH280269   6.750   0.066   4.977  0.1575 -0.1438  0.5942
19593TIP3    H180270   6.839   0.100   4.979  0.2648 -0.4042  0.4053
19593TIP3    H280271   6.761  -0.030   4.975 -0.1457 -0.2029  1.5382
19594TIP3   OH280272   4.906   3.234  12.964 -0.5385 -0.1377 -0.1955
19594TIP3    H180273   4.928   3.231  12.870  0.6946 -0.6029  0.0999
19594TIP3    H280274   4.893   3.326  12.982 -0.4088 -0.0048 -0.7513
19595TIP3   OH280275   2.675   4.571  15.204  0.4196  0.7375  0.4556
19595TIP3    H180276   2.724   4.601  15.281  0.4198  2.2918 -0.1379
19595TIP3    H280277   2.589   4.547  15.239  0.8885  0.0750  1.1630
19596TIP3   OH280278   3.779   1.955  10.836  0.1263  0.4732 -0.5997
19596TIP3    H180279   3.755   2.032  10.887 -1.0684 -0.5417  0.4146
19596TIP3    H280280   3.745   1.973  10.748  2.2542  2.2573 -1.0966
19597TIP3   OH280281   3.859   1.940   0.205  0.0125 -0.2293  0.2657
19597TIP3    H180282   3.911   2.019   0.214 -3.5983  2.3084 -0.1096
19597TIP3    H280283   3.882   1.887   0.282  0.8480  2.1926  1.7271
19598TIP3   OH280284   6.768   4.700   2.168 -0.0023  0.5157  0.1393
19598TIP3    H180285   6.723   4.785   2.168 -0.7100  0.1467 -1.2132
19598TIP3    H280286   6.753   4.665   2.256  0.5208  1.9010  0.8006
19599TIP3   OH280287   6.576   0.309  16.644 -0.2230 -0.4503  0.5950
19599TIP3    H180288   6.519   0.266  16.708 -1.1783  0.1027  0.1318
19599TIP3    H280289   6.558   0.264  16.562  0.7598 -0.9397  0.6353
19600TIP3   OH280290   4.278   1.388  15.710  0.2042 -0.0282  0.6944
19600TIP3    H180291   4.246   1.380  15.800  0.1704  0.2893  0.7110
19600TIP3    H280292   4.214   1.444  15.666  0.9353  0.9464  0.8378
19601TIP3   OH280293   2.205   0.112   1.933  0.4001 -0.1359  0.4393
19601TIP3    H180294   2.182   0.193   1.888 -1.0876 -1.6053 -1.5242
19601TIP3    H280295   2.122   0.068   1.948  1.3512 -2.4016 -0.7011
19602TIP3   OH280296   2.416   0.972  12.649  0.3200  0.1499  0.1241
19602TIP3    H180297   2.457   0.963  12.563  1.9532 -0.8470  0.9765
19602TIP3    H280298   2.484   1.011  12.704 -1.2802  2.4396  0.5676
19603TIP3   OH280299   3.290   5.056   5.117  0.1920 -0.2276 -0.0980
19603TIP3    H180300   3.357   5.000   5.157 -0.8116 -0.7265  0.8904
19603TIP3    H280301   3.255   5.004   5.045  1.2407  0.2557 -0.9891
19604TIP3   OH280302   2.047   5.576   1.929 -0.3744  0.1380 -0.0458
19604TIP3    H180303   1.967   5.580   1.877 -0.5384  0.2256  0.2102
19604TIP3    H280304   2.088   5.661   1.915 -0.5653  0.2729  0.1964
19605TIP3   OH280305   1.612   2.928  15.221 -0.1086 -0.6028 -0.4130
19605TIP3    H180306   1.591   3.017  15.249 -1.1022 -1.0336  0.2413
19605TIP3    H280307   1.612   2.877  15.302 -1.3548 -1.5403 -0.9808
19606TIP3   OH280308   0.016   1.217   1.262  0.0657 -0.1642 -0.1240
19606TIP3    H180309   0.092   1.249   1.214 -0.9851  0.6304 -1.2995
19606TIP3    H280310  -0.043   1.183   1.195 -0.9876  0.0376  0.6752
19607TIP3   OH280311   0.391   5.568   3.066  0.0460  0.6162 -0.1101
19607TIP3    H180312   0.409   5.614   3.148 -0.1769  0.9089 -0.2238
19607TIP3    H280313   0.414   5.477   3.084 -0.2961  0.6263  0.3693
19608TIP3   OH280314   0.562   5.238  14.198  0.1639 -0.5301 -0.0988
19608TIP3    H180315   0.546   5.292  14.276  1.2242 -2.1595  1.2892
19608TIP3    H280316   0.535   5.293  14.125  0.0822  1.4286  1.3577
19609TIP3   OH280317   6.070   2.936  11.908 -0.2361  0.0752  0.5210
19609TIP3    H180318   6.083   2.993  11.984  0.9174 -1.0531  1.1902
19609TIP3    H280319   5.975   2.932  11.897 -0.4518 -0.3228  2.3569
19610TIP3   OH280320   1.361   0.378   5.669  0.0192 -0.4061  0.5059
19610TIP3    H180321   1.457   0.384   5.675 -0.0509  0.4034  0.8388
19610TIP3    H280322   1.346   0.336   5.585  0.6482  0.4892 -0.0669
19611TIP3   OH280323   2.347   3.359   3.561 -0.1719  0.6355 -0.2364
19611TIP3    H180324   2.406   3.434   3.553  1.7626 -0.9102 -1.0607
19611TIP3    H280325   2.405   3.283   3.558 -2.1519 -0.9235 -0.2347
19612TIP3   OH280326   6.358   2.521   2.872 -0.3850  0.5811  0.0945
19612TIP3    H180327   6.407   2.444   2.900 -0.1914  1.3829  2.1133
19612TIP3    H280328   6.272   2.511   2.913  0.0531  2.0271  1.4265
19613TIP3   OH280329   3.735   4.444  14.222  0.2055 -0.1176  0.1252
19613TIP3    H180330   3.714   4.525  14.175  1.5024  0.1348 -0.0427
19613TIP3    H280331   3.830   4.435  14.212  0.4335 -0.3393  2.2646
19614TIP3   OH280332   2.376   3.716   5.621  0.7153 -0.3627  0.4738
19614TIP3    H180333   2.421   3.747   5.700 -0.4047  2.1270  0.1777
19614TIP3    H280334   2.288   3.694   5.651 -0.4576  2.8586 -0.4765
19615TIP3   OH280335   0.750   1.795  12.477 -0.3749  0.3577 -0.2645
19615TIP3    H180336   0.718   1.739  12.406 -1.9690  3.2789 -1.9571
19615TIP3    H280337   0.675   1.804  12.536  0.4685 -0.7783  1.0335
19616TIP3   OH280338   6.128   1.880  12.908  0.7343  0.0235  0.0776
19616TIP3    H180339   6.208   1.880  12.961  0.5108  1.3499  0.4250
19616TIP3    H280340   6.079   1.805  12.940  0.5850  0.8238  1.7959
19617TIP3   OH280341   6.373   1.370  16.075  0.2740 -0.3316 -0.3058
19617TIP3    H180342   6.452   1.323  16.104  0.1155  0.5383  1.5955
19617TIP3    H280343   6.398   1.408  15.991  1.1595 -1.8970 -0.7746
19618TIP3   OH280344   6.052   1.467  11.161 -0.0879  0.4917 -0.2797
19618TIP3    H180345   5.965   1.453  11.199 -0.5775  0.1030 -1.5151
19618TIP3    H280346   6.104   1.394  11.193 -0.1933  0.7611  0.5188
19619TIP3   OH280347   2.430   0.306   3.402 -0.0444  0.3509  0.1507
19619TIP3    H180348   2.435   0.222   3.358  0.0188  0.4034  0.0567
19619TIP3    H280349   2.336   0.324   3.411 -0.0670  0.8310 -0.9078
19620TIP3   OH280350   6.425   1.738   4.532 -0.2385 -0.3486 -0.1582
19620TIP3    H180351   6.341   1.764   4.570  0.1539  0.3263  0.2525
19620TIP3    H280352   6.416   1.644   4.515 -1.1783 -0.2226 -0.3850
19621TIP3   OH280353   3.839   1.988   4.610 -0.0778  0.0974 -0.2155
19621TIP3    H180354   3.842   1.906   4.563 -2.8746  0.7423 -1.6655
19621TIP3    H280355   3.811   1.964   4.699  0.4796 -0.6554 -0.2484
19622TIP3   OH280356   6.572   2.681   2.889 -0.5245 -0.0925  0.2819
19622TIP3    H180357   6.501   2.618   2.903 -0.1928 -0.6164 -0.3689
19622TIP3    H280358   6.529   2.757   2.851 -0.5192 -1.0070 -1.6055
19623TIP3   OH280359   6.466   4.404   0.111 -0.1756 -0.4856  0.2506
19623TIP3    H180360   6.372   4.392   0.127  0.2590 -0.8934  2.5868
19623TIP3    H280361   6.472   4.493   0.075 -1.2645  0.2540  1.8436
19624TIP3   OH280362   5.033   5.249  11.745 -0.0340 -0.4778  0.2399
19624TIP3    H180363   4.991   5.308  11.807  1.2127  0.7868 -0.0877
19624TIP3    H280364   5.095   5.199  11.798  0.7724  0.3476  0.0869
19625TIP3   OH280365   2.443   4.674   1.757  0.1950 -0.3532  0.0656
19625TIP3    H180366   2.432   4.767   1.736  0.8526  0.0281  1.3160
19625TIP3    H280367   2.493   4.639   1.684 -0.8468  0.0636 -0.8639
19626TIP3   OH280368   0.483   6.794   3.347  0.2577  0.1066 -0.1224
19626TIP3    H180369   0.519   6.834   3.426 -0.1175  0.8653 -0.3234
19626TIP3    H280370   0.394   6.768   3.371  0.2144  0.1509 -0.2340
19627TIP3   OH280371   6.639   5.446   0.178 -0.2298  0.2033  0.1164
19627TIP3    H180372   6.599   5.528   0.151 -0.9081 -0.1756 -0.0349
19627TIP3    H280373   6.565   5.389   0.199  0.2396 -0.3496  0.2742
19628TIP3   OH280374   6.071   6.598   4.751  0.8089 -0.0693 -0.0252
19628TIP3    H180375   6.072   6.693   4.742  0.1586  0.2239  2.6473
19628TIP3    H280376   6.134   6.580   4.821 -1.1958 -1.3645  1.4768
19629TIP3   OH280377   6.786   3.702   1.373 -0.2545 -0.1319 -0.3045
19629TIP3    H180378   6.859   3.683   1.433 -2.0939  0.2535  2.0966
19629TIP3    H280379   6.759   3.790   1.396 -1.9548 -0.5518 -0.6799
19630TIP3   OH280380   5.914   6.413   1.388 -0.4673 -0.3646 -0.1622
19630TIP3    H180381   5.969   6.336   1.376  0.9042  0.5578  0.0076
19630TIP3    H280382   5.946   6.475   1.322  0.2798  1.0243  1.4619
19631TIP3   OH280383   5.013   6.713  16.956 -0.0146  0.3738 -0.1685
19631TIP3    H180384   5.014   6.807  16.939 -0.4604  0.3574 -0.2878
19631TIP3    H280385   5.066   6.702  17.035  0.4184  0.6727 -0.4171
19632TIP3   OH280386   4.164   1.558  16.837 -0.2750  0.2608 -0.3336
19632TIP3    H180387   4.075   1.594  16.834 -0.8794 -1.2674 -1.3238
19632TIP3    H280388   4.193   1.557  16.746  0.6491  0.5048 -0.0416
19633TIP3   OH280389   1.761   4.355   2.107 -0.7331  0.0001  0.5390
19633TIP3    H180390   1.820   4.289   2.142  0.1719  0.7325  0.4136
19633TIP3    H280391   1.792   4.438   2.144 -3.1346  0.1455  2.3763
19634TIP3   OH280392   1.346   4.641  11.721 -0.0325 -0.0298 -0.3892
19634TIP3    H180393   1.300   4.693  11.655 -0.7414 -0.0250  0.1047
19634TIP3    H280394   1.287   4.640  11.796  0.6594 -0.2496  0.1581
19635TIP3   OH280395   6.250   3.573   5.952  0.1847 -0.2065 -0.5480
19635TIP3    H180396   6.256   3.526   6.035 -1.0515  0.6313  0.0231
19635TIP3    H280397   6.299   3.654   5.966  0.3256 -0.2517 -0.7724
19636TIP3   OH280398   5.056   1.086   1.917  0.9313  0.6987 -0.1171
19636TIP3    H180399   5.051   1.153   1.985 -0.2126  0.3728  0.1400
19636TIP3    H280400   5.002   1.014   1.950  1.4492 -0.0047 -0.7746
19637TIP3   OH280401   4.647   6.201   2.526  0.2322 -0.3498  0.4671
19637TIP3    H180402   4.612   6.176   2.441 -0.4824 -0.4835  0.7955
19637TIP3    H280403   4.577   6.180   2.588 -0.9928  3.7273  0.6126
19638TIP3   OH280404   0.930   1.214   3.872 -0.1668  0.1415 -0.5051
19638TIP3    H180405   0.867   1.231   3.802 -0.9557  1.3330  0.4707
19638TIP3    H280406   0.979   1.296   3.881 -0.4798  0.2108  0.7273
19639TIP3   OH280407   3.805   5.290  11.347 -0.1672 -0.1352 -1.0126
19639TIP3    H180408   3.884   5.259  11.302  1.2172  0.0835  1.2119
19639TIP3    H280409   3.769   5.212  11.389  0.3409  0.2363  0.1361
19640TIP3   OH280410   6.560   6.642   0.867 -0.1944 -0.3743 -0.3303
19640TIP3    H180411   6.612   6.714   0.831 -1.0150  0.6227  0.4585
19640TIP3    H280412   6.493   6.625   0.801 -1.4177  1.1485  0.4679
19641TIP3   OH280413   0.002   1.145  15.118 -0.0389  0.0428  0.0126
19641TIP3    H180414  -0.009   1.082  15.047  1.6776  0.4608 -0.6518
19641TIP3    H280415  -0.037   1.226  15.085  2.3953  0.7638 -1.2537
19642TIP3   OH280416   4.592   0.547   1.781  0.0994  0.3078  0.0083
19642TIP3    H180417   4.502   0.568   1.804  0.8758  2.1442  1.5546
19642TIP3    H280418   4.644   0.591   1.849  2.1103 -1.2496 -0.4992
19643TIP3   OH280419   5.195   3.620  12.905  0.2725 -0.3433  0.1085
19643TIP3    H180420   5.125   3.656  12.960  0.3061 -0.6902  0.3865
19643TIP3    H280421   5.269   3.679  12.919 -0.3913  0.8252 -1.2791
19644TIP3   OH280422   6.733   1.306  12.829 -0.4256 -0.3826 -0.4132
19644TIP3    H180423   6.693   1.392  12.839 -1.1447 -0.7426 -0.1341
19644TIP3    H280424   6.827   1.323  12.822 -0.4056  0.3014  1.3247
19645TIP3   OH280425   1.709   1.115  15.379 -0.0037  0.1401 -0.2950
19645TIP3    H180426   1.705   1.034  15.430 -1.3545  0.7129  0.5284
19645TIP3    H280427   1.623   1.155  15.390  0.9364  2.1238  0.0174
19646TIP3   OH280428   1.088   3.505  11.364  0.1911  0.0823 -0.1509
19646TIP3    H180429   1.158   3.445  11.338  0.7356  1.1016 -1.0980
19646TIP3    H280430   1.064   3.550  11.283 -1.4492 -0.1233  0.1965
19647TIP3   OH280431   0.033   4.535  13.776  0.4400  0.3558 -0.1354
19647TIP3    H180432   0.004   4.562  13.689 -1.2613 -0.1902  0.2434
19647TIP3    H280433   0.036   4.616  13.827 -1.1949  0.3232  0.0294
19648TIP3   OH280434   0.269   2.371   6.237  0.3091  0.1072  0.8062
19648TIP3    H180435   0.253   2.466   6.244 -0.0255  0.1343 -0.3143
19648TIP3    H280436   0.355   2.365   6.196 -0.8275 -0.0819 -1.5801
19649TIP3   OH280437   4.812   0.039   2.323  0.9397  0.1971  0.0520
19649TIP3    H180438   4.734   0.086   2.355  0.0624 -1.4558  0.3842
19649TIP3    H280439   4.876   0.108   2.306 -0.8401  1.6604 -0.9135
19650TIP3   OH280440   5.759   3.325   6.029 -0.4748 -0.3697  0.5275
19650TIP3    H180441   5.830   3.346   6.090 -1.7199 -0.0978  1.9106
19650TIP3    H280442   5.703   3.265   6.078 -1.4669 -0.1893 -0.3738
19651TIP3   OH280443   0.190   6.360   6.486 -0.1828  0.3779  0.9709
19651TIP3    H180444   0.222   6.292   6.545 -1.0416  1.1602  2.3621
19651TIP3    H280445   0.163   6.312   6.407 -0.1187 -0.8175  1.6608
19652TIP3   OH280446   1.462   2.078   4.552 -0.4837  0.0176 -0.1470
19652TIP3    H180447   1.494   2.105   4.638  0.6057 -0.8291 -0.2793
19652TIP3    H280448   1.407   2.151   4.523 -1.4652 -0.0202  1.5828
19653TIP3   OH280449   0.856   4.271  12.813  0.2863  0.2248  0.1248
19653TIP3    H180450   0.761   4.275  12.824  0.5907  4.4714  2.1653
19653TIP3    H280451   0.878   4.350  12.763  2.7473 -0.8399 -0.5570
19654TIP3   OH280452   3.857   5.481  15.262  0.2039  1.1009  0.3836
19654TIP3    H180453   3.893   5.563  15.294 -0.2751  0.5432  2.4020
19654TIP3    H280454   3.908   5.461  15.184 -1.4305  4.6765 -1.7102
19655TIP3   OH280455   1.492   6.409  15.244 -0.0009  0.4525 -0.1155
19655TIP3    H180456   1.520   6.357  15.319 -0.3208  0.7220  0.1913
19655TIP3    H280457   1.397   6.397  15.241  0.0537  0.1219 -0.7185
19656TIP3   OH280458   4.001   1.323   0.240  0.2317  0.1651 -0.1527
19656TIP3    H180459   3.963   1.373   0.312 -0.9941 -0.8049 -0.1185
19656TIP3    H280460   4.020   1.237   0.277  2.5272  0.6317 -0.1602
19657TIP3   OH280461   5.577   0.717   3.856  0.2441 -0.2168 -0.0794
19657TIP3    H180462   5.589   0.757   3.942 -2.0610 -0.3119  0.3367
19657TIP3    H280463   5.574   0.792   3.796 -1.0565  0.0781  0.3231
19658TIP3   OH280464   5.281   1.193  15.056 -0.3597 -0.4209  0.4109
19658TIP3    H180465   5.297   1.272  15.106  1.1914 -0.0836 -0.5703
19658TIP3    H280466   5.352   1.134  15.081 -0.1793 -0.6377 -0.5852
19659TIP3   OH280467   1.292   5.785  16.611  0.4188 -0.1815  0.7427
19659TIP3    H180468   1.308   5.878  16.598 -1.1573  0.2376  1.6570
19659TIP3    H280469   1.374   5.752  16.648  0.9022  0.8882  0.6401
19660TIP3   OH280470   1.363   1.868   4.353 -0.3923  0.1871 -0.4775
19660TIP3    H180471   1.323   1.786   4.383  1.0240 -0.7381 -1.1078
19660TIP3    H280472   1.399   1.907   4.433 -0.2754 -0.2350 -0.3197
19661TIP3   OH280473   5.514   1.614   3.072 -0.1448 -0.6965  0.3888
19661TIP3    H180474   5.535   1.555   3.144 -0.5489 -1.3053  0.0144
19661TIP3    H280475   5.422   1.595   3.052 -0.1426 -0.2655 -0.0323
19662TIP3   OH280476   2.114   1.763  14.675  0.3702 -0.3661  0.0566
19662TIP3    H180477   2.140   1.801  14.759 -0.6563  0.0234  0.2052
19662TIP3    H280478   2.019   1.780  14.670  0.6195  0.5668 -1.6689
19663TIP3   OH280479   1.893   2.625  15.475  0.2623  0.0928 -0.1675
19663TIP3    H180480   1.893   2.530  15.465  0.7795  0.0102  0.5678
19663TIP3    H280481   1.842   2.640  15.554  1.4371  0.3281  0.5495
19664TIP3   OH280482   1.962   5.043  12.650  0.5511  0.1704  0.2655
19664TIP3    H180483   1.947   5.000  12.734  1.6168  0.8497  0.8145
19664TIP3    H280484   2.054   5.069  12.652  0.8158 -0.5404 -1.4579
19665TIP3   OH280485   2.585   1.217  13.450 -0.2902  0.3026  0.2005
19665TIP3    H180486   2.527   1.291  13.465 -1.5594 -0.4524 -0.8324
19665TIP3    H280487   2.603   1.182  13.537 -1.7409  0.2840  0.4969
19666TIP3   OH280488   5.396   3.537  14.575 -0.4281 -0.1597  0.2649
19666TIP3    H180489   5.460   3.497  14.516 -1.2843 -1.2559  0.0518
19666TIP3    H280490   5.431   3.520  14.663  0.5992  1.0450  0.1103
19667TIP3   OH280491   0.425   2.471   5.258  0.2417 -0.0602  0.3595
19667TIP3    H180492   0.498   2.426   5.215  1.1808  1.7960 -0.0065
19667TIP3    H280493   0.413   2.423   5.341  1.1519 -1.0303 -0.0603
19668TIP3   OH280494   5.349   6.584   3.941 -0.2937 -0.4433  0.2223
19668TIP3    H180495   5.301   6.656   3.981  1.4966  0.4820  0.7752
19668TIP3    H280496   5.396   6.543   4.014  1.1124 -0.2280 -0.5446
19669TIP3   OH280497   5.606   4.157   2.520  0.5052  0.4552  0.1330
19669TIP3    H180498   5.515   4.138   2.498  0.4274  0.3875  0.5049
19669TIP3    H280499   5.637   4.077   2.564  0.6984  0.5350  0.1407
19670TIP3   OH280500   2.460   2.980  12.555 -0.0984  0.2825  0.2380
19670TIP3    H180501   2.476   2.993  12.648  0.2616 -0.9434  0.3596
19670TIP3    H280502   2.369   3.007  12.542  0.0338  1.0076  0.8301
19671TIP3   OH280503   4.366   1.897  16.114  0.1479  0.0798 -0.1648
19671TIP3    H180504   4.356   1.829  16.047  0.4205  1.0184 -1.1847
19671TIP3    H280505   4.318   1.971  16.079  0.1397  0.5205  0.7815
19672TIP3   OH280506   0.954   4.956  15.105  0.0809  0.5541  0.1993
19672TIP3    H180507   0.980   4.961  15.197 -1.3746 -0.9420  0.7078
19672TIP3    H280508   0.925   4.865  15.093  2.0551  0.1906 -2.2309
19673TIP3   OH280509   6.784   4.229  16.800  0.0415 -0.2886 -0.5941
19673TIP3    H180510   6.831   4.180  16.868  0.8714 -0.2415 -1.1280
19673TIP3    H280511   6.742   4.161  16.748 -1.8448 -0.2688  0.8419
19674TIP3   OH280512   2.292   5.982   5.680 -0.3563 -0.3225  0.3230
19674TIP3    H180513   2.334   5.935   5.608 -1.3375 -1.2390  0.3458
19674TIP3    H280514   2.214   6.022   5.641 -0.4416 -0.1333  0.6858
19675TIP3   OH280515   3.983   6.156   2.636 -0.1313 -0.3520 -0.0625
19675TIP3    H180516   3.912   6.092   2.623  0.2949 -1.3558  2.1776
19675TIP3    H280517   4.017   6.135   2.723  2.7513  0.3017 -1.0010
19676TIP3   OH280518   1.582   1.002   0.144 -0.3269 -0.2105  0.0527
19676TIP3    H180519   1.614   1.077   0.194  0.0515  0.1596 -0.7351
19676TIP3    H280520   1.504   0.973   0.192 -0.5415  0.7547  0.2992
19677TIP3   OH280521   5.349   1.233  11.845 -0.1978  0.5318  0.3225
19677TIP3    H180522   5.408   1.259  11.916  2.5088 -0.1081 -1.6139
19677TIP3    H280523   5.384   1.149  11.814 -2.9666 -0.5666  0.0147
19678TIP3   OH280524   4.860   0.099   3.802 -0.2555  0.3107 -0.5232
19678TIP3    H180525   4.948   0.133   3.787  0.5708 -1.5882 -0.1516
19678TIP3    H280526   4.861   0.013   3.759 -1.4291 -0.3936  0.8499
19679TIP3   OH280527   1.952   5.676   5.501 -0.4917 -0.1258 -0.9148
19679TIP3    H180528   1.994   5.643   5.580 -1.1385 -0.4439 -0.7018
19679TIP3    H280529   2.018   5.734   5.462 -0.5154  0.7570  0.3328
19680TIP3   OH280530   5.664   2.511   4.455 -0.8842 -0.0518 -0.1773
19680TIP3    H180531   5.673   2.419   4.481 -0.0464 -0.3581 -1.5076
19680TIP3    H280532   5.575   2.534   4.482  0.0159 -0.2334  3.2053
19681TIP3   OH280533   0.047   3.851  17.242  0.5894 -0.3207  0.3261
19681TIP3    H180534   0.039   3.868  17.148  1.5981  0.1984  0.3295
19681TIP3    H280535   0.057   3.756  17.249  1.6251 -0.2476 -0.1706
19682TIP3   OH280536   0.409   1.778  15.211 -0.1149  0.5333 -0.5743
19682TIP3    H180537   0.471   1.783  15.284 -1.1515  0.8623  0.2866
19682TIP3    H280538   0.435   1.699  15.164  1.0318  0.7252 -0.2933
19683TIP3   OH280539   6.332   5.254  12.885 -0.6097 -0.2401  0.1385
19683TIP3    H180540   6.385   5.174  12.886 -1.0675 -0.5483 -0.1978
19683TIP3    H280541   6.282   5.250  12.803  0.5969  1.2076 -0.6955
19684TIP3   OH280542   4.271   5.500  12.093  0.4927  0.2621  0.5525
19684TIP3    H180543   4.193   5.483  12.145 -1.8570  1.7431 -2.3413
19684TIP3    H280544   4.296   5.589  12.115 -0.8163  1.0787 -1.1770
19685TIP3   OH280545   6.066   0.605  12.818  0.5266 -0.1918  0.1445
19685TIP3    H180546   6.026   0.533  12.867  1.4527 -0.8193 -0.0124
19685TIP3    H280547   6.140   0.633  12.871 -0.0938  0.9422  0.4132
19686TIP3   OH280548   3.689   0.819   3.067 -0.7288 -0.2011  0.1465
19686TIP3    H180549   3.747   0.777   3.131  0.8076 -0.5180 -1.4034
19686TIP3    H280550   3.693   0.912   3.089 -0.5917 -0.3570  0.7981
19687TIP3   OH280551   5.509   4.599   6.427 -0.3606  0.3660 -0.2967
19687TIP3    H180552   5.570   4.584   6.499 -0.7256  1.5389  0.2621
19687TIP3    H280553   5.514   4.518   6.375  0.5322 -0.1524  0.5642
19688TIP3   OH280554   6.738   1.810   0.147 -0.4073 -0.4811  0.1226
19688TIP3    H180555   6.694   1.889   0.115 -1.3243  0.0015  2.4354
19688TIP3    H280556   6.671   1.765   0.199  1.3935 -0.4347  2.5688
19689TIP3   OH280557   3.536   2.777   0.720 -0.0678  0.3987  0.1717
19689TIP3    H180558   3.476   2.704   0.733 -0.0233  0.2905 -0.2331
19689TIP3    H280559   3.512   2.813   0.635  0.8088  0.0138 -0.2401
19690TIP3   OH280560   2.001   0.012   5.770  0.5468  0.0998  1.1453
19690TIP3    H180561   2.042  -0.059   5.720 -0.7099  0.2529 -0.1032
19690TIP3    H280562   2.062   0.027   5.843  2.9637  0.6180 -0.9038
19691TIP3   OH280563   1.680   0.182  11.685 -0.1003  0.1400  0.0337
19691TIP3    H180564   1.624   0.106  11.698  0.6874 -0.7845 -1.8708
19691TIP3    H280565   1.744   0.155  11.619 -0.2328  2.6516 -1.2015
19692TIP3   OH280566   2.887   3.857  12.135 -0.4142 -0.2266 -0.4388
19692TIP3    H180567   2.878   3.803  12.214 -0.9908 -0.2937 -0.5485
19692TIP3    H280568   2.865   3.798  12.063 -2.3247  0.4874 -0.4716
19693TIP3   OH280569   2.729   3.475   4.506  0.5355 -0.3408 -0.2186
19693TIP3    H180570   2.812   3.466   4.552 -0.1570 -1.5858  0.8032
19693TIP3    H280571   2.698   3.563   4.527  0.8570 -0.4350  0.6343
19694TIP3   OH280572   1.816   4.881   1.375  0.3257 -0.0182  0.0676
19694TIP3    H180573   1.852   4.943   1.439 -1.1980 -0.2723  1.2148
19694TIP3    H280574   1.722   4.902   1.372  0.1891 -0.7534 -1.2678
19695TIP3   OH280575   2.454   6.807   2.002  0.0818 -0.3470 -0.0490
19695TIP3    H180576   2.382   6.844   1.950 -0.5504 -1.0946  0.2745
19695TIP3    H280577   2.442   6.844   2.090 -0.2007 -0.8424  0.1256
19696TIP3   OH280578   1.895   2.547  12.378 -0.0708  0.2432 -0.0646
19696TIP3    H180579   1.842   2.469  12.395  0.3901 -0.0866 -0.1305
19696TIP3    H280580   1.978   2.529  12.422 -0.1943  0.9743  0.4748
19697TIP3   OH280581   0.598   6.617   5.704 -0.5040  0.2269  0.0486
19697TIP3    H180582   0.662   6.546   5.714 -0.0826  0.5999  0.0543
19697TIP3    H280583   0.513   6.575   5.715 -0.1660  0.2672  3.2785
19698TIP3   OH280584   0.714   0.240   5.105  0.1917 -0.3374  0.2602
19698TIP3    H180585   0.796   0.265   5.149  0.2464  2.0433 -1.0847
19698TIP3    H280586   0.646   0.266   5.167  0.4024 -0.4743  0.5492
19699TIP3   OH280587   0.115   5.446   6.460  0.2770 -0.2385  0.1347
19699TIP3    H180588   0.092   5.376   6.521  0.3017  1.0531  1.6680
19699TIP3    H280589   0.133   5.401   6.378 -1.5971 -1.8668  0.5618
19700TIP3   OH280590   2.461   2.511   0.837 -0.2400 -0.4364 -0.5339
19700TIP3    H180591   2.453   2.531   0.930 -0.9605 -0.2456 -0.6344
19700TIP3    H280592   2.539   2.559   0.808 -0.1804 -0.2674 -0.0976
19701TIP3   OH280593   3.596   6.504   3.034 -0.1786 -0.3351  0.7050
19701TIP3    H180594   3.554   6.561   3.098  0.5182 -0.1921  1.0369
19701TIP3    H280595   3.643   6.440   3.086  1.6106  0.6719  0.3494
19702TIP3   OH280596   5.566   2.105  14.333 -0.3093  0.1642 -0.2433
19702TIP3    H180597   5.562   2.131  14.241 -2.5951 -0.6602 -0.4098
19702TIP3    H280598   5.569   2.188  14.381  1.8342  0.6087 -1.0356
19703TIP3   OH280599   1.249   3.665   1.296 -0.2108 -0.2783 -0.1268
19703TIP3    H180600   1.200   3.683   1.215  0.0275  0.9269 -0.0040
19703TIP3    H280601   1.304   3.742   1.308 -1.7418  0.4636  2.2991
19704TIP3   OH280602   5.414   1.637   3.464  0.3792  0.3128  0.9599
19704TIP3    H180603   5.438   1.604   3.550  0.0267 -0.4766  0.7585
19704TIP3    H280604   5.330   1.596   3.445  1.5819 -1.4056 -0.7977
19705TIP3   OH280605   0.098   4.215  11.961  0.1001  0.4483 -0.2089
19705TIP3    H180606   0.186   4.240  11.992  0.0916  0.2847 -0.0488
19705TIP3    H280607   0.041   4.231  12.036  0.2541 -1.0170  0.2506
19706TIP3   OH280608   0.487   5.882  16.144 -0.3584  0.0055  0.3050
19706TIP3    H180609   0.484   5.977  16.131  2.1663  0.1170  0.3087
19706TIP3    H280610   0.520   5.872  16.234 -1.4963 -0.8742  0.6306
19707TIP3   OH280611   2.301   6.577  11.719  0.0427  0.0713 -0.0789
19707TIP3    H180612   2.289   6.629  11.798 -2.8125  0.0023 -0.4141
19707TIP3    H280613   2.317   6.642  11.650  0.3643  0.2562  0.1666
19708TIP3   OH280614   6.390   2.529   5.263 -0.2991  0.1178 -0.2967
19708TIP3    H180615   6.360   2.455   5.315 -0.0403  0.0000 -0.3139
19708TIP3    H280616   6.319   2.593   5.269 -0.5112 -0.1206 -0.2607
19709TIP3   OH280617   0.175   1.352   1.952 -0.6591 -0.4946 -0.3571
19709TIP3    H180618   0.090   1.312   1.930 -1.0862  0.4089 -0.3809
19709TIP3    H280619   0.152   1.436   1.992  0.2358 -0.1591 -0.5335
19710TIP3   OH280620   4.995   4.129  11.266  0.0405 -0.3294  0.3524
19710TIP3    H180621   5.085   4.116  11.238 -0.2527 -0.3112 -0.6375
19710TIP3    H280622   4.980   4.223  11.255  0.0454 -0.2635  0.9416
19711TIP3   OH280623   0.674   0.294  16.602 -0.3261  0.1243 -0.1965
19711TIP3    H180624   0.699   0.274  16.692  1.8423  0.2629 -0.7390
19711TIP3    H280625   0.613   0.368  16.610 -1.0480 -0.5976  1.2085
19712TIP3   OH280626   5.786   1.172  14.008 -0.2036 -0.6781  0.0229
19712TIP3    H180627   5.722   1.140  14.072 -1.0413  0.4577 -0.2279
19712TIP3    H280628   5.747   1.150  13.923 -1.4602  2.1689 -0.1938
19713TIP3   OH280629   6.202   1.240   2.774 -0.2349  0.0241  0.5721
19713TIP3    H180630   6.264   1.232   2.702  0.0675  0.5375  0.7675
19713TIP3    H280631   6.226   1.323   2.817 -2.0647  1.0677 -0.3275
19714TIP3   OH280632   0.841   5.695  13.972  0.3290 -0.1251  0.3825
19714TIP3    H180633   0.919   5.718  13.922 -0.0199 -0.4495 -0.3111
19714TIP3    H280634   0.792   5.635  13.916 -0.6813  0.4788  0.5894
19715TIP3   OH280635   4.958   1.948  12.994 -0.4454  0.1005 -0.1395
19715TIP3    H180636   5.033   1.890  12.991 -0.5042  0.0800 -1.6605
19715TIP3    H280637   4.991   2.029  13.034  0.3713  0.0711 -0.7574
19716TIP3   OH280638   0.834   4.355   4.038  0.2161  0.5757  0.0609
19716TIP3    H180639   0.878   4.440   4.042  1.1603  0.1234 -0.5443
19716TIP3    H280640   0.902   4.291   4.059 -0.1429 -0.1417 -0.9217
19717TIP3   OH280641   3.528   4.502   4.591  0.1008 -0.1112 -0.0660
19717TIP3    H180642   3.507   4.425   4.538  0.7219  0.1461 -0.6861
19717TIP3    H280643   3.444   4.547   4.601 -0.1426 -0.5161 -0.2760
19718TIP3   OH280644   3.253   0.737   6.437  0.0732  0.5688 -0.6269
19718TIP3    H180645   3.342   0.704   6.432  1.2358  3.2843  1.3504
19718TIP3    H280646   3.253   0.798   6.510 -3.4372  0.5825 -0.5226
19719TIP3   OH280647   0.735   0.772   0.236  0.5132 -0.4059 -0.1174
19719TIP3    H180648   0.782   0.689   0.245 -1.9368 -1.8805 -0.6011
19719TIP3    H280649   0.796   0.837   0.271  2.2502 -2.4556  0.8202
19720TIP3   OH280650   4.867   0.225  17.150  0.1478 -0.8263 -0.5299
19720TIP3    H180651   4.823   0.292  17.096  0.5693 -0.8067 -0.8556
19720TIP3    H280652   4.893   0.272  17.229 -1.3405 -1.0918  0.1135
19721TIP3   OH280653   2.523   3.606   1.502 -0.3045 -0.7945  0.1235
19721TIP3    H180654   2.562   3.615   1.416  0.3422 -1.2163  0.3702
19721TIP3    H280655   2.597   3.597   1.562 -0.7437 -0.5073  0.7251
19722TIP3   OH280656   1.055   1.109  15.596  0.4375  0.5332  0.0805
19722TIP3    H180657   0.994   1.058  15.649  0.2053 -1.0390 -1.6404
19722TIP3    H280658   1.014   1.195  15.587 -1.4136 -0.4095 -0.8098
19723TIP3   OH280659   1.499   6.314  11.578  0.1966  0.1832  0.1554
19723TIP3    H180660   1.547   6.251  11.631  3.5816  1.3763 -1.3273
19723TIP3    H280661   1.464   6.262  11.505 -0.5401 -0.6568  1.0982
19724TIP3   OH280662   3.107   2.747  11.758 -0.0519 -0.4620  0.4046
19724TIP3    H180663   3.188   2.745  11.707 -0.6006  0.7266 -0.5464
19724TIP3    H280664   3.135   2.767  11.847  0.4955  2.4227 -0.3872
19725TIP3   OH280665   1.834   3.664   0.681 -0.1979  0.4355  0.3152
19725TIP3    H180666   1.804   3.649   0.771  0.7764 -0.3803  0.5167
19725TIP3    H280667   1.813   3.583   0.635  2.6529 -0.6283  0.7412
19726TIP3   OH280668   4.205   5.705   4.525  0.1856 -0.0059  0.0707
19726TIP3    H180669   4.254   5.683   4.446 -0.2110  1.8474 -0.7270
19726TIP3    H280670   4.273   5.720   4.591  0.5625 -0.4434 -0.2155
19727TIP3   OH280671   0.688   4.300  14.891  0.0978 -0.0324  0.3006
19727TIP3    H180672   0.747   4.375  14.901  1.0605 -0.8867  1.0633
19727TIP3    H280673   0.734   4.227  14.932 -0.1800 -1.4039 -1.7648
19728TIP3   OH280674   1.121   0.619  15.427  0.3037  0.2536 -0.1474
19728TIP3    H180675   1.080   0.704  15.411 -0.2777 -0.2773 -1.5188
19728TIP3    H280676   1.214   0.639  15.434 -0.0651  1.3463  2.1213
19729TIP3   OH280677   2.395   5.319   4.389 -0.0458 -0.0692  0.6672
19729TIP3    H180678   2.396   5.236   4.341 -0.0809  0.2068  0.1766
19729TIP3    H280679   2.451   5.304   4.465  0.1234 -0.4779  0.4634
19730TIP3   OH280680   5.221   2.950  16.045 -0.0256  0.5521 -0.1985
19730TIP3    H180681   5.217   3.045  16.051  0.9001  0.5838 -0.0817
19730TIP3    H280682   5.139   2.926  16.002 -0.0200  1.4480 -0.7326
19731TIP3   OH280683   5.088   4.104   2.550  0.0515 -0.3874  0.4319
19731TIP3    H180684   5.136   4.110   2.632 -0.8341 -0.7680  0.9828
19731TIP3    H280685   4.996   4.099   2.576 -0.2641 -0.1107 -0.5951
19732TIP3   OH280686   4.288   2.822   2.615 -0.3727 -0.1372  0.0275
19732TIP3    H180687   4.300   2.899   2.560 -0.9259  0.7917  1.1948
19732TIP3    H280688   4.240   2.854   2.692 -2.0101 -1.9399 -0.2035
19733TIP3   OH280689   5.881   5.460   4.429  0.3260  0.2277  1.1103
19733TIP3    H180690   5.950   5.419   4.482  1.0286  2.1587  1.7625
19733TIP3    H280691   5.838   5.520   4.489  0.5015  1.7500 -0.2519
19734TIP3   OH280692   1.685   0.327  16.175  0.4227  0.0386 -0.0472
19734TIP3    H180693   1.605   0.281  16.146  0.5958 -0.2830 -0.0241
19734TIP3    H280694   1.661   0.419  16.175 -0.7295 -0.2044  2.3351
19735TIP3   OH280695   2.699   6.590  17.070  0.1072  0.0895 -0.1972
19735TIP3    H180696   2.778   6.609  17.121  0.2273 -1.7412  0.3384
19735TIP3    H280697   2.632   6.570  17.136 -0.0778 -1.0285 -0.7072
19736TIP3   OH280698   4.458   4.410  12.366 -0.0753  0.5753 -0.3745
19736TIP3    H180699   4.373   4.384  12.333 -0.3748  1.0108  0.0486
19736TIP3    H280700   4.519   4.390  12.295 -0.5450  0.3664 -0.7161
19737TIP3   OH280701   4.817   5.938  11.974 -0.4022  0.2361  0.3732
19737TIP3    H180702   4.894   5.965  12.024  0.6825 -0.7341 -0.7385
19737TIP3    H280703   4.798   6.013  11.918 -0.2878  0.5040  0.6940
19738TIP3   OH280704   0.927   4.633  13.886 -0.0794  0.3368 -0.0683
19738TIP3    H180705   0.862   4.645  13.956 -0.5849 -0.3926 -0.4083
19738TIP3    H280706   0.990   4.703  13.900 -0.7081  0.7922  0.5338
19739TIP3   OH280707   5.882   2.379   6.028  0.2038 -0.5777  0.0157
19739TIP3    H180708   5.884   2.470   6.057  0.9416 -0.7471  0.5161
19739TIP3    H280709   5.925   2.381   5.942  1.7921 -0.7020  0.7779
19740TIP3   OH280710   4.137   2.753   5.554  0.0139  0.6134 -0.6898
19740TIP3    H180711   4.123   2.660   5.538  1.9417  0.2045 -0.1087
19740TIP3    H280712   4.050   2.788   5.571 -0.7779 -0.9927 -1.3421
19741TIP3   OH280713   3.374   0.873  15.023 -0.5396  0.1291  0.2349
19741TIP3    H180714   3.409   0.892  15.110 -2.4494  0.6279  0.9180
19741TIP3    H280715   3.423   0.930  14.965 -1.8088  2.5427  1.4687
19742TIP3   OH280716   5.996   6.640   6.816 -0.3140 -0.0203  0.7954
19742TIP3    H180717   6.087   6.617   6.833 -0.3870 -0.4190  0.6464
19742TIP3    H280718   5.945   6.578   6.868 -0.5301 -0.9584 -0.5071
19743TIP3   OH280719   3.604   5.822  15.435 -0.3344 -0.5081  0.0414
19743TIP3    H180720   3.694   5.837  15.465 -0.2558 -1.1756  0.1386
19743TIP3    H280721   3.582   5.902  15.386 -0.5598  0.7072  2.0830
19744TIP3   OH280722   6.057   3.667  10.741  0.4780  0.1686  0.1524
19744TIP3    H180723   6.091   3.603  10.803  0.6390  1.6886  1.6686
19744TIP3    H280724   6.071   3.627  10.655 -1.0012 -2.5480  1.1259
19745TIP3   OH280725   4.021   1.288  12.486  0.1408 -0.0901 -1.0483
19745TIP3    H180726   4.026   1.197  12.457  1.1432 -1.4847  3.1726
19745TIP3    H280727   3.935   1.295  12.527  0.2823  0.7235 -0.8811
19746TIP3   OH280728   5.764   3.401  12.082  0.8506  0.1628  0.6145
19746TIP3    H180729   5.773   3.354  11.999  0.6692  1.3502 -0.0827
19746TIP3    H280730   5.839   3.371  12.134  0.5706 -1.1199  0.2908
19747TIP3   OH280731   3.482   2.907   1.499  0.1542 -0.0115  0.5319
19747TIP3    H180732   3.407   2.961   1.477  0.3809  0.3300  0.5931
19747TIP3    H280733   3.472   2.889   1.593  1.7875  2.6280  1.2690
19748TIP3   OH280734   5.672   3.536   5.532 -0.0165  0.2226  0.3626
19748TIP3    H180735   5.634   3.512   5.617  1.2287  0.2976  0.9452
19748TIP3    H280736   5.604   3.590   5.490 -0.5388  0.3932  1.4073
19749TIP3   OH280737   2.760   0.796   5.565 -0.3549  0.0715  0.2159
19749TIP3    H180738   2.685   0.833   5.518 -0.3370  0.8616  0.7987
19749TIP3    H280739   2.821   0.771   5.496 -0.2754  1.3245 -0.1934
19750TIP3   OH280740   0.169   5.251  14.932 -0.1511  0.3844 -0.3438
19750TIP3    H180741   0.228   5.325  14.946  0.6201 -0.4924  1.1814
19750TIP3    H280742   0.081   5.289  14.938  0.2278  1.0793  0.9919
19751TIP3   OH280743   1.183   2.310   1.304 -0.3061 -0.3414  0.7123
19751TIP3    H180744   1.190   2.394   1.258  0.2646 -0.4469  0.5971
19751TIP3    H280745   1.140   2.331   1.386  0.8204  0.2605  1.1639
19752TIP3   OH280746   5.148   3.388  14.110 -0.0765 -0.4856  0.3658
19752TIP3    H180747   5.082   3.329  14.074  0.4249 -0.3564 -0.7770
19752TIP3    H280748   5.231   3.360  14.071  0.2934  0.4261  0.4659
19753TIP3   OH280749   4.884   1.299   0.812  0.2783  0.0954 -0.4371
19753TIP3    H180750   4.793   1.308   0.842  0.9076 -1.3626  2.0215
19753TIP3    H280751   4.880   1.232   0.743 -0.5909  0.5350 -0.8272
19754TIP3   OH280752   0.229   1.881   3.626  0.7250  0.2892 -0.3117
19754TIP3    H180753   0.241   1.975   3.638 -1.5048  0.6201 -0.4502
19754TIP3    H280754   0.260   1.863   3.538  2.1974  0.6929  0.1218
19755TIP3   OH280755   5.810   1.902  16.352  0.2398 -0.0393 -0.0887
19755TIP3    H180756   5.784   1.994  16.340 -2.2588 -0.7349 -0.2072
19755TIP3    H280757   5.751   1.853  16.295  0.2013 -1.8944  1.5334
19756TIP3   OH280758   2.817   2.319   1.826  0.2355  0.4893  0.7082
19756TIP3    H180759   2.770   2.306   1.908  1.6131  0.3124  1.4895
19756TIP3    H280760   2.904   2.350   1.853  0.2321  1.8233 -0.7404
19757TIP3   OH280761   3.327   3.164  13.690 -0.2934 -0.6506  0.4787
19757TIP3    H180762   3.244   3.208  13.709 -0.5023 -0.8388 -0.0000
19757TIP3    H280763   3.361   3.208  13.613 -1.2381 -2.2888 -0.9225
19758TIP3   OH280764   4.519   5.642   1.052  0.0429  0.0346 -0.7811
19758TIP3    H180765   4.552   5.656   0.963 -0.2625  2.6652 -0.5349
19758TIP3    H280766   4.472   5.723   1.072  0.7715 -0.1953  2.0628
19759TIP3   OH280767   6.294   5.712  16.276  0.4750  0.0004  0.0330
19759TIP3    H180768   6.381   5.677  16.294  0.3098 -1.3042 -1.6162
19759TIP3    H280769   6.310   5.802  16.247  1.1989  0.0184  0.4665
19760TIP3   OH280770   4.808   3.715  11.295  0.5883  0.5644 -0.0001
19760TIP3    H180771   4.770   3.663  11.225 -0.0160 -2.5962  2.5792
19760TIP3    H280772   4.890   3.671  11.316  0.7206  1.4157  1.3618
19761TIP3   OH280773   6.333   5.265  14.919  0.1844 -0.0193  0.2724
19761TIP3    H180774   6.283   5.184  14.914 -0.0294  0.0433  1.3109
19761TIP3    H280775   6.391   5.262  14.843 -2.1650  0.4428 -1.5983
19762TIP3   OH280776   1.666   5.494   1.005  0.1997 -0.0113  0.5024
19762TIP3    H180777   1.589   5.547   0.987 -0.3768 -1.1989 -0.5206
19762TIP3    H280778   1.712   5.488   0.921  0.1874 -1.2587  0.5848
19763TIP3   OH280779   6.677   5.346  17.118 -0.1460  0.2383  0.7189
19763TIP3    H180780   6.699   5.303  17.200  0.5724 -0.0385  0.3841
19763TIP3    H280781   6.731   5.425  17.117 -0.0866  0.1953  0.4664
19764TIP3   OH280782   2.301   0.821   4.513  0.1510  0.2487 -0.4453
19764TIP3    H180783   2.352   0.748   4.479 -0.7461 -1.3916  1.6461
19764TIP3    H280784   2.335   0.836   4.600 -1.7965  0.2001  0.3573
19765TIP3   OH280785   3.762   5.996   4.534  0.8087  0.6209 -0.4896
19765TIP3    H180786   3.833   5.951   4.489  0.3816 -1.5908  0.9566
19765TIP3    H280787   3.802   6.075   4.570  2.1867  0.1178 -0.8824
19766TIP3   OH280788   2.739   1.004  16.179  0.0845 -0.5620  0.1904
19766TIP3    H180789   2.778   0.918  16.163  1.7469  0.0245  1.0005
19766TIP3    H280790   2.689   0.993  16.260 -0.4637 -0.9938 -0.2018
19767TIP3   OH280791   3.886   4.831   4.731 -0.6207  0.4428  0.4597
19767TIP3    H180792   3.795   4.807   4.714 -0.5398  1.6698 -1.9465
19767TIP3    H280793   3.880   4.899   4.798 -1.5637  1.0191 -0.1775
19768TIP3   OH280794   3.953   1.538  15.478 -0.0264 -0.4845  0.5884
19768TIP3    H180795   3.907   1.505  15.555 -0.0448 -0.8416  0.4259
19768TIP3    H280796   3.934   1.632  15.477 -1.7518 -0.8247 -0.1594
19769TIP3   OH280797   2.952   2.052  12.756 -0.0415 -0.0852  0.3071
19769TIP3    H180798   2.906   2.107  12.820  0.1029  0.5341 -0.1242
19769TIP3    H280799   2.883   2.017  12.700 -0.0915 -0.0259  0.3318
19770TIP3   OH280800   6.265   0.679   1.380 -0.1268  0.1140  0.3965
19770TIP3    H180801   6.308   0.595   1.391  0.2687  0.3483  0.6549
19770TIP3    H280802   6.292   0.709   1.294  0.9248  0.6530  0.8976
19771TIP3   OH280803   2.927   6.202   1.421 -0.3634 -0.8314  0.2851
19771TIP3    H180804   2.888   6.244   1.345  1.7280  2.1974  0.7616
19771TIP3    H280805   3.021   6.221   1.413  0.4445 -4.0600  1.4391
19772TIP3   OH280806   6.243   1.611   6.399 -0.3920 -0.7757 -0.4876
19772TIP3    H180807   6.306   1.581   6.334 -0.0307 -1.8577  0.3380
19772TIP3    H280808   6.297   1.640   6.473 -0.8252 -0.7991 -0.1563
19773TIP3   OH280809   4.409   5.698   1.385  0.4880  0.1308 -0.2285
19773TIP3    H180810   4.329   5.705   1.333 -0.3290  1.2119  1.1401
19773TIP3    H280811   4.411   5.606   1.413 -0.9902  0.4008  0.8263
19774TIP3   OH280812   0.353   2.642   6.014  0.3972  0.1089  0.7623
19774TIP3    H180813   0.353   2.565   5.957  0.7501  1.0422 -0.5411
19774TIP3    H280814   0.326   2.609   6.099 -1.2677 -1.1480 -0.2120
19775TIP3   OH280815   1.189   3.554  12.101  0.2971 -0.2294  0.4593
19775TIP3    H180816   1.117   3.520  12.049  1.0904 -0.0125 -0.7963
19775TIP3    H280817   1.158   3.549  12.192 -2.2644  2.1278 -0.2039
19776TIP3   OH280818   3.547   6.672  13.976  0.0616 -0.1616 -0.9691
19776TIP3    H180819   3.491   6.724  14.034  0.8550 -0.7363  0.3172
19776TIP3    H280820   3.488   6.604  13.941 -0.8372  1.2325 -2.2171
19777TIP3   OH280821   1.525   1.402   2.982 -0.7522 -0.1511  0.1427
19777TIP3    H180822   1.489   1.357   3.058 -1.0791  0.6601  0.4782
19777TIP3    H280823   1.476   1.484   2.978  1.5447  1.2834  1.0065
19778TIP3   OH280824   5.523   6.348   5.687  0.4765  0.1079  0.1364
19778TIP3    H180825   5.515   6.266   5.639 -0.8723  0.7688 -0.7996
19778TIP3    H280826   5.586   6.400   5.636 -2.0562  1.3857 -1.8121
19779TIP3   OH280827   3.526   2.800   2.329 -0.5653  0.0276  0.7610
19779TIP3    H180828   3.565   2.713   2.318 -1.6008 -0.6196  2.1200
19779TIP3    H280829   3.455   2.802   2.265 -0.3224  0.0073  0.4895
19780TIP3   OH280830   3.011   6.284   0.073  0.7895 -0.1062  0.1244
19780TIP3    H180831   2.973   6.299  -0.014  1.7601 -0.6337 -0.4092
19780TIP3    H280832   3.105   6.282   0.057  1.0308  0.8523  1.3724
19781TIP3   OH280833   2.957   1.615  15.442  0.1953 -0.6028 -0.0608
19781TIP3    H180834   2.892   1.547  15.457 -1.0230  0.7403  0.9302
19781TIP3    H280835   3.031   1.570  15.402 -1.2491 -2.1956 -0.9838
19782TIP3   OH280836   1.471   1.263  13.912 -0.2781  0.1078  0.3853
19782TIP3    H180837   1.550   1.302  13.874 -0.2129  0.6604  1.0896
19782TIP3    H280838   1.491   1.169  13.918  0.5797  0.3411  1.1979
19783TIP3   OH280839   1.139   3.310  10.656  1.1677 -0.1556  0.2215
19783TIP3    H180840   1.232   3.316  10.677  0.4887 -1.8505  4.0334
19783TIP3    H280841   1.104   3.397  10.677  1.6877  0.1397 -0.1312
19784TIP3   OH280842   0.125   6.459  14.663 -0.1812  0.3124  0.2096
19784TIP3    H180843   0.127   6.555  14.661  0.7896  0.3308  1.3847
19784TIP3    H280844   0.211   6.434  14.696  0.1309 -1.0229 -1.5575
19785TIP3   OH280845   1.252   5.350   3.085  0.1372  0.5893  0.7995
19785TIP3    H180846   1.218   5.390   3.165  0.2869  0.8971  0.7096
19785TIP3    H280847   1.218   5.404   3.014  0.0325  0.3356  0.6551
19786TIP3   OH280848   4.745   3.674  13.354 -0.5142  0.4153 -0.0024
19786TIP3    H180849   4.816   3.685  13.417  0.0119  0.0921 -0.5301
19786TIP3    H280850   4.670   3.719  13.394 -0.5318 -0.8440  1.4174
19787TIP3   OH280851   3.787   0.680   4.574 -0.2342  0.3949  0.3495
19787TIP3    H180852   3.852   0.741   4.607  0.7994 -1.0392  1.0423
19787TIP3    H280853   3.753   0.721   4.495 -1.0650  2.8088  1.9109
19788TIP3   OH280854   1.924   0.175  17.260 -0.0916 -0.0911  0.4317
19788TIP3    H180855   1.945   0.117  17.186  0.0361 -0.2415  0.5834
19788TIP3    H280856   1.992   0.241  17.259  0.2488 -0.4326  0.7755
19789TIP3   OH280857   6.065   2.962   4.737  0.1256  0.4407  0.2107
19789TIP3    H180858   6.069   2.971   4.642 -1.1339  0.4754  0.1540
19789TIP3    H280859   6.156   2.967   4.766  0.4167  1.5327 -0.8945
19790TIP3   OH280860   5.603   3.333  11.011  0.5340  0.5060  0.7781
19790TIP3    H180861   5.622   3.242  10.988 -1.4789  0.2962 -0.2165
19790TIP3    H280862   5.581   3.374  10.927  0.0239  1.5371  1.4119
19791TIP3   OH280863   2.675   2.232  13.005 -0.0458  0.2851  0.2016
19791TIP3    H180864   2.693   2.266  12.917 -0.4588 -0.9220 -0.3701
19791TIP3    H280865   2.631   2.304  13.050 -1.3438  0.3620 -1.1392
19792TIP3   OH280866   1.158   4.816   2.684  0.3083 -0.7467  0.1137
19792TIP3    H180867   1.191   4.729   2.664  0.9360  0.2965 -3.8722
19792TIP3    H280868   1.064   4.804   2.695  0.4586 -2.0082  0.0847
19793TIP3   OH280869   6.758   2.723   4.430  0.1564  0.4330 -0.2299
19793TIP3    H180870   6.674   2.769   4.420  0.2078  0.7766  0.9019
19793TIP3    H280871   6.797   2.727   4.343 -0.4289  1.3944 -0.4623
19794TIP3   OH280872   4.485   3.122  16.811  0.1712 -0.3505 -0.0382
19794TIP3    H180873   4.577   3.148  16.819  0.5935 -1.9194  0.3222
19794TIP3    H280874   4.459   3.102  16.901 -0.6504  0.5163 -0.0830
19795TIP3   OH280875   2.677   3.153  13.334  0.9482  0.1749 -0.3602
19795TIP3    H180876   2.637   3.206  13.403 -1.1020  1.7835 -2.7318
19795TIP3    H280877   2.770   3.175  13.339  0.8027  0.5022  1.6585
19796TIP3   OH280878   1.771   1.395   4.671 -0.2216  0.3328 -0.2087
19796TIP3    H180879   1.741   1.428   4.586  1.4259 -2.9104 -2.1571
19796TIP3    H280880   1.722   1.313   4.683 -0.2863  0.6560  1.8811
19797TIP3   OH280881   2.670   5.070   5.555 -0.1219  0.2212  0.3204
19797TIP3    H180882   2.731   5.140   5.533 -1.4108  1.6521  1.1877
19797TIP3    H280883   2.666   5.072   5.651 -1.7368  0.3589  0.2683
19798TIP3   OH280884   3.178   3.274  15.283  0.3707  0.2030 -0.6731
19798TIP3    H180885   3.268   3.305  15.288  0.9973 -1.8878  1.7174
19798TIP3    H280886   3.179   3.189  15.326 -2.6315 -0.1241 -1.1422
19799TIP3   OH280887   1.034   5.126  14.912 -0.1494  0.2527 -0.0430
19799TIP3    H180888   1.061   5.201  14.964  1.1889 -0.1448 -0.1352
19799TIP3    H280889   1.012   5.058  14.976 -0.3359  0.3760  0.0243
19800TIP3   OH280890   1.351   0.921   0.281  0.5078  0.5140 -0.1786
19800TIP3    H180891   1.364   0.834   0.244 -1.3201 -0.6686  1.7968
19800TIP3    H280892   1.379   0.913   0.372 -0.6432  1.7002  0.2989
19801TIP3   OH280893   5.240   2.530  12.118  0.3356 -0.0056  0.2875
19801TIP3    H180894   5.306   2.466  12.094  0.0205 -1.1327  2.2835
19801TIP3    H280895   5.192   2.547  12.037  1.1727 -1.4097 -0.5233
19802TIP3   OH280896   2.801   2.593   1.309 -0.0755  0.4029 -0.6771
19802TIP3    H180897   2.841   2.531   1.371  0.9350  1.5381 -0.1790
19802TIP3    H280898   2.875   2.635   1.266 -0.7776 -0.5103 -2.8363
19803TIP3   OH280899   0.518   4.608   4.470  0.0410  0.4583 -0.1664
19803TIP3    H180900   0.584   4.600   4.401 -1.1962 -1.2478 -1.1931
19803TIP3    H280901   0.472   4.689   4.451 -1.5481 -0.9393 -2.5140
19804TIP3   OH280902   3.232   1.292   6.297  0.1312  0.2687  0.0344
19804TIP3    H180903   3.160   1.235   6.271  0.7277 -0.2645 -0.4754
19804TIP3    H280904   3.280   1.242   6.362  0.1499  0.5492  0.2367
19805TIP3   OH280905   5.996   4.747   1.599  0.3782  0.0027 -0.0843
19805TIP3    H180906   6.007   4.698   1.680  1.3213 -0.8368 -0.7062
19805TIP3    H280907   6.073   4.725   1.547 -0.6972 -0.2647 -1.6150
19806TIP3   OH280908   2.782   3.564   1.619  0.4658 -0.3360 -0.0341
19806TIP3    H180909   2.712   3.555   1.685 -1.2658  0.0893 -1.7626
19806TIP3    H280910   2.822   3.648   1.639 -1.3748  0.7322 -0.7270
19807TIP3   OH280911   1.917   6.281  13.392 -0.5452  0.3102 -0.0307
19807TIP3    H180912   1.844   6.300  13.333 -0.4276 -0.2309 -0.3522
19807TIP3    H280913   1.904   6.191  13.419 -0.8635  0.7131  1.1733
19808TIP3   OH280914   1.790   6.722   5.381 -0.4350  0.1698 -0.3350
19808TIP3    H180915   1.772   6.780   5.456  0.1622 -0.7108  0.5023
19808TIP3    H280916   1.856   6.661   5.414 -1.2862 -1.1755 -1.1129
19809TIP3   OH280917   3.277   3.068  11.939  0.0382  0.1218 -0.2966
19809TIP3    H180918   3.200   3.111  11.975  0.6427 -0.6703  2.0332
19809TIP3    H280919   3.264   2.975  11.958  2.1121  0.1011  1.2634
19810TIP3   OH280920   0.868   2.064   0.964 -0.0929  0.5555 -0.5542
19810TIP3    H180921   0.786   2.111   0.954  0.7146  1.7203 -1.9073
19810TIP3    H280922   0.904   2.095   1.047 -0.5203  0.8401 -0.4763
19811TIP3   OH280923   2.028   0.553  16.842  0.2212  0.2217 -0.2531
19811TIP3    H180924   2.037   0.604  16.923 -0.5936 -2.3039  1.5159
19811TIP3    H280925   2.088   0.595  16.780 -0.5193  3.3588  1.0481
19812TIP3   OH280926   4.489   6.341   5.319 -0.3914 -0.1427  0.5642
19812TIP3    H180927   4.428   6.331   5.392 -0.6032 -2.0384  0.1414
19812TIP3    H280928   4.457   6.281   5.252  1.3121 -0.3555 -0.0833
19813TIP3   OH280929   5.562   0.035  12.076  0.5113 -0.2612  0.5294
19813TIP3    H180930   5.567   0.020  12.170  0.6438  0.8038  0.6952
19813TIP3    H280931   5.581  -0.051  12.037  2.9062 -0.1742  1.4212
19814TIP3   OH280932   6.016   0.165   5.841 -0.1603 -0.2582 -0.1169
19814TIP3    H180933   6.078   0.161   5.769 -0.7161  2.2337 -0.7907
19814TIP3    H280934   5.971   0.080   5.839  0.1016 -0.3691 -2.4558
19815TIP3   OH280935   4.962   3.395  14.831 -0.2442  0.4912 -0.6012
19815TIP3    H180936   5.036   3.387  14.891 -0.0526 -0.9480 -1.0131
19815TIP3    H280937   4.938   3.488  14.834 -0.1354  0.4654  1.5679
19816TIP3   OH280938   0.077   5.068   2.723 -0.1149  0.7243  0.7773
19816TIP3    H180939   0.133   5.146   2.733  0.1134  0.7603 -0.6250
19816TIP3    H280940   0.090   5.019   2.804  1.5325  1.0165  0.7164
19817TIP3   OH280941   4.833   3.189   0.985  0.7680 -0.1692  0.4745
19817TIP3    H180942   4.797   3.139   0.912 -0.0794 -1.4418  1.7079
19817TIP3    H280943   4.922   3.211   0.959  1.1674 -2.3521 -0.1270
19818TIP3   OH280944   1.515   0.698   6.183 -0.3179  0.8371  0.1372
19818TIP3    H180945   1.540   0.644   6.257 -0.6547  0.6264  0.0979
19818TIP3    H280946   1.512   0.787   6.218  0.6507  0.8866  0.1012
19819TIP3   OH280947   2.856   4.012   4.867  0.4970  0.1048  0.5537
19819TIP3    H180948   2.850   4.000   4.773 -2.0882 -0.8087  0.7965
19819TIP3    H280949   2.832   4.104   4.881  0.0722  0.0135  0.4044
19820TIP3   OH280950   1.486   3.057  12.705  0.2851  0.2249  0.6337
19820TIP3    H180951   1.512   3.009  12.626 -0.4384  0.3009  0.3521
19820TIP3    H280952   1.569   3.088  12.742  0.6427  0.0078  0.0226
19821TIP3   OH280953   2.075   2.739   6.674 -0.6681  0.3467 -0.2407
19821TIP3    H180954   2.047   2.669   6.615 -0.6702  1.5061 -1.6442
19821TIP3    H280955   2.036   2.818   6.637 -1.7627  0.9440  2.0509
19822TIP3   OH280956   1.351   3.911  16.517 -0.1634 -0.1191  0.1801
19822TIP3    H180957   1.332   3.920  16.423 -0.1440 -0.5003  0.1410
19822TIP3    H280958   1.437   3.952  16.528  1.3118 -2.9347 -0.5311
19823TIP3   OH280959   2.682   2.645  16.626 -0.2341 -0.1819 -0.3682
19823TIP3    H180960   2.771   2.662  16.657 -1.2527  1.8872  1.5560
19823TIP3    H280961   2.645   2.588  16.693  0.1161 -2.3616 -1.9861
19824TIP3   OH280962   5.756   6.348  11.377 -0.5078  0.2573  0.0883
19824TIP3    H180963   5.830   6.353  11.438 -1.5281  1.6830  1.2530
19824TIP3    H280964   5.711   6.432  11.387 -0.5710  0.6192 -2.8364
19825TIP3   OH280965   3.218   4.412  15.329  0.6066 -0.3968 -0.1210
19825TIP3    H180966   3.136   4.445  15.293  0.9071  1.5650  0.9110
19825TIP3    H280967   3.260   4.367  15.255 -0.5879  0.1356 -1.1399
19826TIP3   OH280968   4.099   5.615   0.446 -0.2029 -0.2943  0.0890
19826TIP3    H180969   4.027   5.635   0.385 -0.3753  1.5372  0.8676
19826TIP3    H280970   4.077   5.528   0.481 -0.6578 -0.9000 -1.6367
19827TIP3   OH280971   6.377   1.478   1.456  0.0246 -0.8120  0.9612
19827TIP3    H180972   6.443   1.419   1.422  0.7435 -0.0355  0.9801
19827TIP3    H280973   6.359   1.539   1.383  1.3858  0.6984  1.8536
19828TIP3   OH280974   5.153   2.073  16.142 -0.3961 -0.6794  0.1736
19828TIP3    H180975   5.122   2.024  16.218 -0.1146 -1.3020 -0.1064
19828TIP3    H280976   5.238   2.108  16.168 -1.3528  1.1071  0.9670
19829TIP3   OH280977   2.753   0.275  16.738  0.2155  0.0091 -0.1960
19829TIP3    H180978   2.814   0.225  16.684  1.7027 -0.3999  1.8271
19829TIP3    H280979   2.802   0.352  16.764 -1.2358  1.3106 -1.1947
19830TIP3   OH280980   2.068   4.366  14.906 -0.1337 -1.0996 -0.4590
19830TIP3    H180981   2.100   4.362  14.815 -0.0215  0.1003 -0.4759
19830TIP3    H280982   2.147   4.379  14.958 -0.4450  0.4622 -0.3775
19831TIP3   OH280983   3.449   0.943  15.275 -0.6453 -0.3524  0.1465
19831TIP3    H180984   3.411   0.963  15.361 -2.3428 -1.7442 -0.2520
19831TIP3    H280985   3.522   0.883  15.296  0.0389  0.6759  0.7464
19832TIP3   OH280986   5.024   2.475  14.703  0.4551  0.5190 -0.1238
19832TIP3    H180987   5.058   2.433  14.782  0.1096 -0.6991 -0.6028
19832TIP3    H280988   5.085   2.449  14.634  0.5540  1.2849 -0.3352
19833TIP3   OH280989   2.965   2.175  12.112  0.0551 -0.6646  0.4499
19833TIP3    H180990   3.056   2.197  12.133 -0.3813 -0.9176  2.7385
19833TIP3    H280991   2.971   2.093  12.063  1.0618 -0.7073  0.6325
19834TIP3   OH280992   0.966   5.866   4.899 -0.1515 -0.0310 -0.2632
19834TIP3    H180993   1.042   5.809   4.905  0.0264  0.2092 -0.2012
19834TIP3    H280994   0.953   5.880   4.805  0.1416  0.2705 -0.2594
19835TIP3   OH280995   3.246   1.104   3.096  0.5459 -0.3425 -0.3646
19835TIP3    H180996   3.314   1.090   3.163  0.7877 -1.8614 -0.9018
19835TIP3    H280997   3.164   1.102   3.145  0.9265  2.5162  0.4328
19836TIP3   OH280998   1.910   1.201   4.408 -0.8783 -0.8285 -0.0925
19836TIP3    H180999   1.863   1.283   4.392 -1.8634 -1.2219  0.7831
19836TIP3    H281000   1.920   1.162   4.321  0.9538  0.9426 -0.7216
19837TIP3   OH281001   4.502   4.640  16.076 -0.6815 -0.2961  0.0569
19837TIP3    H181002   4.483   4.641  16.170  1.2978  2.2815  0.4939
19837TIP3    H281003   4.570   4.573  16.067 -0.5856 -0.2712  0.5532
19838TIP3   OH281004   2.618   0.376   2.389 -0.4450  0.0953 -0.2180
19838TIP3    H181005   2.639   0.450   2.445 -1.5976  0.3299 -0.0822
19838TIP3    H281006   2.536   0.400   2.347 -0.3193 -0.6851 -0.9280
19839TIP3   OH281007   5.093   1.054  13.719  0.6593  0.2208 -0.1957
19839TIP3    H181008   5.152   1.053  13.795 -0.0898  0.5165  0.3865
19839TIP3    H281009   5.096   1.144  13.687 -0.8657  0.6733  0.9154
19840TIP3   OH281010   2.929   2.756  15.304 -0.0122  0.2341  0.6219
19840TIP3    H181011   2.916   2.662  15.307 -0.4653  0.2269 -0.9437
19840TIP3    H281012   2.951   2.774  15.212  1.5192  1.4662  1.2003
19841TIP3   OH281013   0.878   2.874   4.096  0.7204  0.3126 -0.0642
19841TIP3    H181014   0.868   2.957   4.048  0.3317  0.4927  0.3268
19841TIP3    H281015   0.920   2.899   4.178 -0.2912  0.2571  0.4721
19842TIP3   OH281016   4.887   1.256   3.762 -0.2834 -0.5959  0.2816
19842TIP3    H181017   4.961   1.210   3.722 -0.4257 -0.4101 -0.1988
19842TIP3    H281018   4.891   1.345   3.725  0.0608 -0.1856  1.2901
19843TIP3   OH281019   5.001   5.827   3.819  0.4457 -0.0385 -0.0115
19843TIP3    H181020   5.085   5.783   3.812 -0.0788 -0.9279 -0.8419
19843TIP3    H281021   4.971   5.837   3.728  1.0783  3.0761  0.0588
19844TIP3   OH281022   3.246   2.558  15.493 -0.0281  0.3520 -0.7324
19844TIP3    H181023   3.277   2.510  15.570 -0.7714 -0.1412 -0.7406
19844TIP3    H281024   3.244   2.650  15.522 -0.5864  0.1330 -0.0767
19845TIP3   OH281025   0.527   2.012   2.205 -0.1412  0.0408  0.1197
19845TIP3    H181026   0.482   1.983   2.284  0.3470 -0.1462  0.3289
19845TIP3    H281027   0.554   1.932   2.162 -0.6367  0.1337 -0.3765
19846TIP3   OH281028   5.113   4.434   2.801 -0.6619 -0.0312 -0.4410
19846TIP3    H181029   5.144   4.525   2.812  3.5442 -1.3038 -0.6236
19846TIP3    H281030   5.132   4.414   2.710  2.1721 -2.2754  0.5627
19847TIP3   OH281031   4.240   5.641   6.494  0.1245 -0.3254  0.0059
19847TIP3    H181032   4.310   5.688   6.540 -1.0641 -1.0061  2.6409
19847TIP3    H281033   4.260   5.548   6.509 -0.6781 -0.5425 -0.2676
19848TIP3   OH281034   1.532   3.210   6.105  0.0273  0.8392  0.7784
19848TIP3    H181035   1.604   3.219   6.167 -0.0964  0.9270  0.9109
19848TIP3    H281036   1.482   3.135   6.137  0.1392  0.6941  0.6081
19849TIP3   OH281037   4.882   2.239  16.887  0.2777 -0.6612  0.1692
19849TIP3    H181038   4.807   2.218  16.831  0.4775 -0.6729 -0.0949
19849TIP3    H281039   4.856   2.318  16.933  1.2978  1.1379 -2.2061
19850TIP3   OH281040   4.805   5.519   3.860  0.0918  0.0963  0.1345
19850TIP3    H181041   4.899   5.505   3.856  0.3079  1.5238 -0.0081
19850TIP3    H281042   4.778   5.533   3.769 -0.0067  1.1766  0.3168
19851TIP3   OH281043   5.508   0.991  11.208 -0.2279 -0.1533 -0.0810
19851TIP3    H181044   5.533   0.905  11.175  0.5282 -0.2449  0.6999
19851TIP3    H281045   5.504   0.979  11.303 -0.8668  0.4846 -0.0218
19852TIP3   OH281046   3.286   5.787   1.886 -0.4730  0.0579  0.4718
19852TIP3    H181047   3.281   5.737   1.967  2.1456 -0.1822  0.5388
19852TIP3    H281048   3.352   5.855   1.904 -1.3722  1.2927 -0.7767
19853TIP3   OH281049   4.374   1.993   2.320  0.5519  0.1108 -0.0584
19853TIP3    H181050   4.389   2.025   2.409  2.6572  4.2882 -1.7239
19853TIP3    H281051   4.286   2.023   2.298  0.9567  1.2408 -0.1792
19854TIP3   OH281052   1.754   4.598   5.546  0.2995  0.2891 -0.7227
19854TIP3    H181053   1.708   4.516   5.559 -1.5095  0.9938 -2.5042
19854TIP3    H281054   1.789   4.593   5.457  1.3565  0.8837 -0.3587
19855TIP3   OH281055   6.215   3.660   2.438 -0.1308 -0.1927 -0.3542
19855TIP3    H181056   6.261   3.640   2.520  0.6726  0.6887 -0.5829
19855TIP3    H281057   6.124   3.672   2.464 -0.4025 -2.7648 -0.0062
19856TIP3   OH281058   6.667   6.067   3.282 -0.6369 -0.7443  0.0272
19856TIP3    H181059   6.714   6.028   3.208 -0.3969 -2.5254  1.0907
19856TIP3    H281060   6.737   6.090   3.344 -0.9130 -0.1115  0.1057
19857TIP3   OH281061   1.233   6.625  16.376 -0.3289  0.0769  0.1080
19857TIP3    H181062   1.305   6.666  16.425  1.2776 -0.4142 -1.7621
19857TIP3    H281063   1.276   6.554  16.327 -2.3208 -1.0451 -0.0421
19858TIP3   OH281064   6.390   5.508  13.870  0.1813 -0.2976  0.1676
19858TIP3    H181065   6.363   5.576  13.931  0.5880 -0.4182  0.4864
19858TIP3    H281066   6.350   5.428  13.905 -0.7175 -0.1358 -0.4918
19859TIP3   OH281067   2.402   2.822   3.274  0.2759 -0.8985 -0.4641
19859TIP3    H181068   2.348   2.900   3.259  2.5799  0.4945 -1.8022
19859TIP3    H281069   2.344   2.749   3.254 -1.7117  0.4887  0.0804
19860TIP3   OH281070   6.458   4.698   1.966 -0.3689 -0.3532 -0.4309
19860TIP3    H181071   6.501   4.661   1.889 -3.2073 -2.4958 -1.0409
19860TIP3    H281072   6.427   4.622   2.015 -1.6613  1.0893  1.0460
19861TIP3   OH281073   1.015   5.372  13.351  0.2062 -0.0323  0.1916
19861TIP3    H181074   1.057   5.366  13.266  1.0932 -0.9240  0.6813
19861TIP3    H281075   0.950   5.301  13.351 -2.2370  2.1384 -1.0522
19862TIP3   OH281076   0.349   2.506   3.538  0.0071 -0.2017 -0.1582
19862TIP3    H181077   0.329   2.599   3.528 -2.0451 -0.3755  1.8484
19862TIP3    H281078   0.431   2.493   3.491  0.9018  2.8664  0.4858
19863TIP3   OH281079   0.628   3.890  11.764 -1.0717 -0.0319  0.1463
19863TIP3    H181080   0.674   3.939  11.696 -0.6212 -1.4139 -0.5631
19863TIP3    H281081   0.539   3.881  11.731 -1.6472  1.8060  1.0847
19864TIP3   OH281082   6.806   1.951   5.574  0.5767 -0.1568 -0.2823
19864TIP3    H181083   6.726   1.958   5.521 -0.0329  0.4427  0.7130
19864TIP3    H281084   6.841   2.040   5.575  1.0585 -0.3438 -0.3910
19865TIP3   OH281085   3.212   4.747   1.508  0.7699  0.3705 -0.5036
19865TIP3    H181086   3.134   4.773   1.558  0.7705 -0.3761 -0.1140
19865TIP3    H281087   3.207   4.652   1.503  1.8333  0.2927 -0.2036
19866TIP3   OH281088   1.399   4.227  15.069  0.3391 -0.0335  0.5038
19866TIP3    H181089   1.351   4.306  15.043 -2.6632 -1.8565  0.3970
19866TIP3    H281090   1.437   4.195  14.987  0.5790  0.6171  0.3536
19867TIP3   OH281091   2.573   5.347   5.510  0.1212  0.5332  0.4152
19867TIP3    H181092   2.639   5.369   5.576 -0.2844  3.0998  0.0044
19867TIP3    H281093   2.613   5.372   5.427 -0.7608  0.6287  0.0157
19868TIP3   OH281094   2.017   5.501  11.879 -0.4992  0.0079 -0.3791
19868TIP3    H181095   2.052   5.547  11.803 -1.5617  1.5648  0.0485
19868TIP3    H281096   1.930   5.471  11.852  0.5316 -2.5237 -0.9417
19869TIP3   OH281097   5.690   6.660   5.520 -0.0115  0.1485  0.5030
19869TIP3    H181098   5.606   6.695   5.550 -0.1444 -0.1838  0.5206
19869TIP3    H281099   5.695   6.684   5.428 -1.2132 -1.8730 -0.1233
19870TIP3   OH281100   5.579   6.791  13.780 -0.8219  0.0897 -0.2670
19870TIP3    H181101   5.561   6.722  13.716 -0.1403  1.0944 -1.5612
19870TIP3    H281102   5.628   6.746  13.850  0.4620 -0.5581 -1.5540
19871TIP3   OH281103   5.800   5.952   1.057  0.5343  0.0431  0.9826
19871TIP3    H181104   5.865   5.915   1.117 -1.8610  1.3109  4.5568
19871TIP3    H281105   5.722   5.898   1.070  0.0629  0.1301 -1.2919
19872TIP3   OH281106   0.953   4.668   5.221  0.2642  0.0473 -0.1384
19872TIP3    H181107   0.929   4.579   5.248  0.8410  0.4964  1.9660
19872TIP3    H281108   0.876   4.721   5.240 -0.6549 -0.2456 -2.8837
19873TIP3   OH281109   6.097   6.233   3.782  1.0640 -0.5438 -0.0460
19873TIP3    H181110   6.108   6.291   3.857 -0.9663  2.0460 -1.6498
19873TIP3    H281111   6.031   6.169   3.810 -0.1414  0.7899  0.1748
19874TIP3   OH281112   5.980   4.047  11.994 -0.1020 -0.2029  0.7396
19874TIP3    H181113   5.991   4.014  11.905  0.4013  0.8343  0.4082
19874TIP3    H281114   6.008   3.974  12.050  1.4494 -0.1831  0.0164
19875TIP3   OH281115   3.133   0.957  14.420 -0.9901 -0.3629  0.4141
19875TIP3    H181116   3.122   1.050  14.402 -0.1763 -0.2822  0.3264
19875TIP3    H281117   3.214   0.933  14.375 -1.4225 -1.2062  0.0763
19876TIP3   OH281118   1.938   2.464   2.457  0.6791 -0.0066 -0.0204
19876TIP3    H181119   1.979   2.507   2.532  2.2842 -0.4385 -0.6295
19876TIP3    H281120   1.934   2.372   2.483  0.7393 -0.0709 -0.2419
19877TIP3   OH281121   0.129   6.397  17.102  0.0929  0.4369 -0.0300
19877TIP3    H181122   0.052   6.451  17.082 -0.7854 -0.1039  1.7658
19877TIP3    H281123   0.198   6.460  17.120  0.4062  0.9404 -2.6881
19878TIP3   OH281124   6.637   5.130   2.827 -0.3152  0.2385 -0.5490
19878TIP3    H181125   6.670   5.160   2.912 -1.3704 -2.5553  0.9142
19878TIP3    H281126   6.708   5.075   2.793 -0.4490  0.2473 -0.8389
19879TIP3   OH281127   4.788   2.592   6.119 -0.2022  0.0626 -0.0776
19879TIP3    H181128   4.794   2.678   6.077 -2.2522 -0.0611 -0.6746
19879TIP3    H281129   4.797   2.610   6.213 -3.0982  1.2707  0.0250
19880TIP3   OH281130   4.569   0.947   2.553 -0.5931 -0.3971 -0.1841
19880TIP3    H181131   4.582   0.853   2.541 -1.2004 -0.3539 -1.2031
19880TIP3    H281132   4.523   0.975   2.475  1.6345  1.1856 -0.9816
19881TIP3   OH281133   3.204   3.116  14.761  0.4798 -0.2548  0.1301
19881TIP3    H181134   3.274   3.176  14.734 -0.8054  0.6556 -1.2705
19881TIP3    H281135   3.208   3.116  14.857  0.3761  2.2797  0.1800
19882TIP3   OH281136   3.069   3.591   0.506  0.7432  0.0471  0.1258
19882TIP3    H181137   3.045   3.629   0.591 -2.2542 -0.5333 -0.4054
19882TIP3    H281138   3.054   3.497   0.517 -1.7576  0.1885 -1.6525
19883TIP3   OH281139   5.922   1.412  14.602  0.2615 -0.3167  0.2894
19883TIP3    H181140   5.991   1.347  14.616 -0.3172 -0.8531  0.6607
19883TIP3    H281141   5.915   1.458  14.686  0.4933  0.0633  0.1047
19884TIP3   OH281142   3.999   6.476   3.146  0.2320 -0.0866 -0.3648
19884TIP3    H181143   4.014   6.546   3.083  3.1377  0.6666  1.0939
19884TIP3    H281144   3.994   6.521   3.230 -1.9453 -1.2624  0.1806
19885TIP3   OH281145   4.479   3.866  14.501  0.5993  0.1437  0.1406
19885TIP3    H181146   4.515   3.937  14.447 -1.8917  0.6821 -0.8627
19885TIP3    H281147   4.421   3.818  14.442 -0.3179 -0.7153  1.7205
19886TIP3   OH281148   1.576   3.857   3.893  0.4342 -0.5779  0.0448
19886TIP3    H181149   1.564   3.811   3.976 -0.3456 -1.5915 -0.6174
19886TIP3    H281150   1.612   3.791   3.834  0.6976  0.0563 -0.5024
19887TIP3   OH281151   1.674   5.711   1.269  0.6871  0.2373  0.5941
19887TIP3    H181152   1.725   5.741   1.194  0.4143  0.2024  0.3937
19887TIP3    H281153   1.650   5.621   1.248 -0.8574  0.7827 -0.0646
19888TIP3   OH281154   5.148   5.541   0.952  0.6924 -0.0274 -0.5290
19888TIP3    H181155   5.078   5.499   0.902  0.0096 -0.2299  0.5845
19888TIP3    H281156   5.106   5.569   1.033  1.9645 -0.3317  0.2381
19889TIP3   OH281157   5.914   4.072   4.727 -0.2118 -0.2282 -0.3282
19889TIP3    H181158   5.973   4.140   4.760 -0.3969  0.2454 -0.9705
19889TIP3    H281159   5.861   4.047   4.803 -0.2466  0.4435 -0.1291
19890TIP3   OH281160   1.101   0.094   6.548 -0.3520  0.0503  0.1575
19890TIP3    H181161   1.070   0.016   6.501 -1.2160  0.7958 -0.5126
19890TIP3    H281162   1.194   0.077   6.562 -0.5872 -1.2154  0.2309
19891TIP3   OH281163   5.179   3.442  16.247 -0.6122 -0.0929  0.7437
19891TIP3    H181164   5.111   3.388  16.287  0.3562 -0.8961  1.3144
19891TIP3    H281165   5.213   3.388  16.175  0.9458 -0.6113  1.8434
19892TIP3   OH281166   0.071   4.029  15.473 -0.0256  0.1869  0.1297
19892TIP3    H181167   0.079   3.970  15.548 -1.8084  0.4199  0.5228
19892TIP3    H281168  -0.016   4.011  15.437  0.6186  0.4226 -1.5986
19893TIP3   OH281169   5.935   1.650   0.797 -0.1454 -0.2044  0.0244
19893TIP3    H181170   5.876   1.576   0.782 -0.8659  0.4999 -0.6700
19893TIP3    H281171   6.000   1.617   0.860 -1.9955 -0.6064  1.7710
19894TIP3   OH281172   4.857   0.833   3.790  0.3828  0.3175 -0.1392
19894TIP3    H181173   4.824   0.747   3.815  0.9111  0.0975 -0.1996
19894TIP3    H281174   4.944   0.817   3.756  0.0473  0.7393 -1.2306
19895TIP3   OH281175   3.680   4.956  16.009  0.1457 -0.1474  0.0513
19895TIP3    H181176   3.734   4.961  15.930  0.2482  2.2390  0.2276
19895TIP3    H281177   3.641   4.868  16.006  2.6567 -1.2843 -0.9628
19896TIP3   OH281178   5.451   0.156   3.888  0.3010  0.0900  0.4896
19896TIP3    H181179   5.454   0.198   3.802 -1.0071  0.6956  0.7192
19896TIP3    H281180   5.542   0.144   3.913  0.6864  0.4982 -0.7017
19897TIP3   OH281181   2.648   6.454   2.894 -0.0091 -0.3133 -0.5173
19897TIP3    H181182   2.675   6.520   2.958 -0.7163  1.4087 -1.9555
19897TIP3    H281183   2.731   6.422   2.856  0.2546  1.1419 -1.1842
19898TIP3   OH281184   0.984   0.035   0.626  0.6407 -0.4262 -0.4043
19898TIP3    H181185   1.011   0.037   0.534  0.8605 -1.3291 -0.3593
19898TIP3    H281186   0.926  -0.041   0.633 -1.5778  1.2233 -0.3961
19899TIP3   OH281187   6.032   0.679  16.744 -0.1650 -0.2117 -0.4239
19899TIP3    H181188   6.009   0.730  16.667  0.5263  0.8354  0.0497
19899TIP3    H281189   5.954   0.627  16.764 -0.3868 -0.4001 -1.7458
19900TIP3   OH281190   3.271   0.393  16.620  0.1335  0.4768 -0.0294
19900TIP3    H181191   3.244   0.327  16.557 -0.7001  1.3172 -0.5728
19900TIP3    H281192   3.234   0.475  16.586  1.8486  1.3600  0.1874
19901TIP3   OH281193   6.131   0.973  15.952 -0.3443  0.0362 -0.1744
19901TIP3    H181194   6.151   0.977  15.858  0.3640  1.4629  0.0242
19901TIP3    H281195   6.125   1.065  15.979 -1.7972 -0.3667  0.9184
19902TIP3   OH281196   2.608   6.804   0.071 -0.1088 -0.5275  0.2231
19902TIP3    H181197   2.625   6.844  -0.014  1.0653  0.7147  1.0108
19902TIP3    H281198   2.684   6.748   0.086 -0.1759 -0.5287  0.5597
19903TIP3   OH281199   3.282   2.706   5.263  0.0827 -0.4635 -0.2374
19903TIP3    H181200   3.217   2.708   5.193 -0.9517 -0.7757  0.7075
19903TIP3    H281201   3.243   2.758   5.334  2.7358  3.1012 -1.2597
19904TIP3   OH281202   6.372   6.649  16.758 -0.0875 -0.0160  0.2787
19904TIP3    H181203   6.343   6.635  16.668 -0.6828  1.9109  0.1648
19904TIP3    H281204   6.351   6.567  16.803 -0.6754 -0.6277 -1.0972
19905TIP3   OH281205   0.714   1.670   5.706  0.2829 -0.3247 -0.2727
19905TIP3    H181206   0.687   1.720   5.629  1.9930 -2.2773 -2.2319
19905TIP3    H281207   0.645   1.604   5.717  0.4857 -0.6155 -0.7136
19906TIP3   OH281208   2.485   5.614  13.117 -0.1387 -0.1462 -0.0150
19906TIP3    H181209   2.519   5.695  13.078  0.9823 -1.6135 -2.1824
19906TIP3    H281210   2.541   5.545  13.083 -1.1103 -1.8650  1.7737
19907TIP3   OH281211   5.195   4.614  15.656  0.5781  0.0598 -0.2930
19907TIP3    H181212   5.210   4.630  15.563 -3.4843  0.4079 -0.9819
19907TIP3    H281213   5.130   4.544  15.658 -0.3303  0.9225  2.2253
19908TIP3   OH281214   2.563   0.524   4.991 -0.3137  0.0671 -0.1016
19908TIP3    H181215   2.503   0.559   4.925 -1.0127 -0.3359  0.3100
19908TIP3    H281216   2.650   0.535   4.953 -0.5196  2.0522 -0.0951
19909TIP3   OH281217   1.015   4.502  13.412 -0.5531 -0.3948  0.1047
19909TIP3    H181218   0.975   4.415  13.406 -0.5773 -0.3656 -0.2053
19909TIP3    H281219   1.033   4.515  13.505 -1.6991 -0.2055  0.3021
19910TIP3   OH281220   5.638   6.736   3.084  0.2886  0.0814 -0.1643
19910TIP3    H181221   5.650   6.831   3.079  2.5216 -0.0147  2.2144
19910TIP3    H281222   5.722   6.700   3.054 -1.0275 -1.1965 -2.4190
19911TIP3   OH281223   2.891   1.230  13.402 -0.0722  0.0697 -0.4328
19911TIP3    H181224   2.869   1.142  13.433  0.1700  0.0804 -0.2250
19911TIP3    H281225   2.808   1.277  13.402 -0.7535 -0.9902 -3.3578
19912TIP3   OH281226   1.807   2.245   5.043 -0.3604  0.1268  0.2142
19912TIP3    H181227   1.837   2.321   5.092  0.2065 -0.3927  0.6916
19912TIP3    H281228   1.712   2.247   5.050 -0.2738 -0.0216  1.4688
19913TIP3   OH281229   1.252   1.774   6.102 -0.1911 -0.1765 -0.1982
19913TIP3    H181230   1.311   1.700   6.085 -0.1198  0.1928 -1.6878
19913TIP3    H281231   1.164   1.737   6.095 -0.1451 -0.4353  0.5948
19914TIP3   OH281232   6.785   2.627  14.803  0.0197  0.3216 -0.2113
19914TIP3    H181233   6.742   2.577  14.734 -0.5707 -0.6463  0.8288
19914TIP3    H281234   6.874   2.641  14.772  1.0682 -3.7786  0.6135
19915TIP3   OH281235   5.987   3.868  17.092 -0.1216 -0.1330  0.0570
19915TIP3    H181236   5.975   3.808  17.167 -0.0906 -0.8194 -0.4807
19915TIP3    H281237   5.933   3.829  17.023 -0.4339  0.7007 -0.1689
19916TIP3   OH281238   2.792   1.691   1.720 -0.3282  0.1684 -0.1564
19916TIP3    H181239   2.725   1.623   1.716 -0.7246  0.6162 -1.5488
19916TIP3    H281240   2.744   1.770   1.747 -0.2266  0.3262 -0.4394
19917TIP3   OH281241   1.561   6.705  11.106  0.0732  0.3404 -0.5275
19917TIP3    H181242   1.574   6.776  11.043  0.6595 -0.9673 -1.9323
19917TIP3    H281243   1.479   6.663  11.079  0.6261 -0.5898 -0.8217
19918TIP3   OH281244   4.420   1.460   3.927 -0.0289 -0.4772 -0.1869
19918TIP3    H181245   4.453   1.480   4.014 -2.2091  1.1379  0.3082
19918TIP3    H281246   4.397   1.367   3.930  1.4591 -0.8340  0.4158
19919TIP3   OH281247   5.436   2.087  13.647 -0.3037 -0.3388 -0.1185
19919TIP3    H181248   5.482   2.122  13.570 -1.0799 -0.1533 -0.5088
19919TIP3    H281249   5.344   2.088  13.621 -0.6067  0.1303  0.9878
19920TIP3   OH281250   0.246   5.352  10.999 -0.0311 -0.6671 -0.2962
19920TIP3    H181251   0.315   5.417  11.015  0.1786 -1.2616  1.3324
19920TIP3    H281252   0.180   5.398  10.948  0.5474  0.5610  0.0590
19921TIP3   OH281253   4.896   4.912  11.114  0.2395 -0.1401  0.7381
19921TIP3    H181254   4.833   4.973  11.152  0.6098  0.0479  1.0491
19921TIP3    H281255   4.981   4.946  11.140  0.5005  0.0746 -0.3788
19922TIP3   OH281256   4.244   5.670  12.458  0.2689 -0.0032 -0.0895
19922TIP3    H181257   4.173   5.690  12.397 -0.6025 -1.7871  0.3240
19922TIP3    H281258   4.323   5.675  12.404 -0.2374  1.0663 -0.7561
19923TIP3   OH281259   3.617   3.937   6.173  0.3774 -0.0560  0.0478
19923TIP3    H181260   3.678   3.920   6.102 -1.8033 -0.9448 -1.6789
19923TIP3    H281261   3.569   3.854   6.184 -1.4139  0.9986  0.4614
19924TIP3   OH281262   5.164   3.043   5.679 -0.1992  0.0730  0.1479
19924TIP3    H181263   5.124   2.957   5.681 -0.5323  0.2094 -0.4381
19924TIP3    H281264   5.101   3.100   5.725 -1.9260  0.7857 -2.9634
19925TIP3   OH281265   2.059   1.831   4.994 -0.0500 -0.5875  0.0923
19925TIP3    H181266   1.964   1.839   4.982 -0.1150 -3.0253 -1.2649
19925TIP3    H281267   2.069   1.801   5.085 -0.5294  0.1958  0.4104
19926TIP3   OH281268   5.085   1.355  11.776 -0.2466  0.0969  0.2949
19926TIP3    H181269   5.138   1.281  11.747  0.2210  0.7379 -0.4846
19926TIP3    H281270   4.997   1.318  11.788 -0.9512  0.1783 -3.8457
19927TIP3   OH281271   2.762   2.232   0.125 -0.2045  0.1415 -0.5418
19927TIP3    H181272   2.837   2.205   0.071  0.3791  0.8841 -0.1115
19927TIP3    H281273   2.686   2.217   0.069  0.4561  1.5327 -1.8215
19928TIP3   OH281274   0.234   4.587  13.181  0.0216  0.2890 -0.4440
19928TIP3    H181275   0.236   4.554  13.091  0.2902  1.2068 -0.7754
19928TIP3    H281276   0.143   4.578  13.208 -0.1553  0.4862 -0.9800
19929TIP3   OH281277   1.494   3.491  12.122  0.4225 -0.1922 -0.3276
19929TIP3    H181278   1.400   3.492  12.142  0.5055  1.4511  0.0652
19929TIP3    H281279   1.500   3.450  12.036 -0.9621  2.3392 -1.7047
19930TIP3   OH281280   1.064   2.137  16.652 -0.3534 -0.2699 -0.6444
19930TIP3    H181281   0.971   2.159  16.654 -0.5260 -0.9670 -1.1716
19930TIP3    H281282   1.078   2.087  16.732 -0.1437  0.9623  0.1073
19931TIP3   OH281283   3.374   3.623   2.896  0.1383 -0.1304  0.4102
19931TIP3    H181284   3.347   3.713   2.910  1.3931  0.6582 -1.8394
19931TIP3    H281285   3.313   3.590   2.830  1.6978  0.1860 -1.2449
19932TIP3   OH281286   5.370   2.532   3.907 -0.1739  0.2588  0.6273
19932TIP3    H181287   5.309   2.460   3.924 -0.6365  0.5572  0.2624
19932TIP3    H281288   5.338   2.571   3.825  0.9582 -0.0495  0.0315
19933TIP3   OH281289   1.663   4.201  16.758 -0.1015 -0.5843  0.1309
19933TIP3    H181290   1.599   4.258  16.800  0.6183  0.0884  0.3204
19933TIP3    H281291   1.726   4.260  16.716 -0.9158 -1.2369 -2.0901
19934TIP3   OH281292   6.416   6.264   0.611 -0.1566  0.0452  0.1378
19934TIP3    H181293   6.410   6.282   0.705  0.5592  2.7443 -0.2875
19934TIP3    H281294   6.509   6.277   0.591 -0.0657 -1.8148 -0.7171
19935TIP3   OH281295   3.026   4.375   0.988  0.2320 -0.2859  0.5901
19935TIP3    H181296   2.972   4.454   0.989  1.8384  0.8781 -1.2818
19935TIP3    H281297   2.971   4.310   0.944 -0.9880 -0.1462  1.8742
19936TIP3   OH281298   0.190   1.370   0.689  0.0195 -0.0227 -0.6066
19936TIP3    H181299   0.124   1.327   0.634 -0.9958  0.1634  0.4509
19936TIP3    H281300   0.250   1.299   0.713 -0.5235 -0.4566 -0.5134
19937TIP3   OH281301   4.423   0.963   3.732  0.2007  0.0477  0.4673
19937TIP3    H181302   4.513   0.993   3.719  0.3774 -1.4436 -1.9896
19937TIP3    H281303   4.376   0.996   3.656 -1.8855  2.6845  2.7773
19938TIP3   OH281304   4.361   4.081  13.331 -0.3960  0.2865 -0.1381
19938TIP3    H181305   4.332   4.165  13.297  0.5356  1.1451  1.1573
19938TIP3    H281306   4.376   4.096  13.424  1.7158 -0.7887 -0.2635
19939TIP3   OH281307   3.752   1.474   1.615 -0.2767  0.2122 -0.3666
19939TIP3    H181308   3.828   1.533   1.613 -0.1054 -0.0137 -0.4787
19939TIP3    H281309   3.788   1.389   1.637 -0.3360 -0.1383 -1.5656
19940TIP3   OH281310   4.227   6.449  13.834 -0.5286 -0.7371  0.0507
19940TIP3    H181311   4.257   6.368  13.793  2.8512  0.4248  0.0474
19940TIP3    H281312   4.260   6.518  13.778 -1.5581  0.7210  1.1910
19941TIP3   OH281313   1.688   3.578   2.627 -0.4686 -0.1860  0.0374
19941TIP3    H181314   1.750   3.647   2.652  1.3409 -2.1616  1.0984
19941TIP3    H281315   1.648   3.551   2.709 -0.4321 -1.0949 -0.2392
19942TIP3   OH281316   4.849   5.176  16.919 -0.1320  0.5349 -0.0641
19942TIP3    H181317   4.887   5.090  16.904 -0.1673  0.5451 -0.2107
19942TIP3    H281318   4.912   5.221  16.975 -0.2788  0.2904  0.2962
19943TIP3   OH281319   0.843   2.201  16.392  0.5818 -0.3619  0.1301
19943TIP3    H181320   0.762   2.161  16.360  0.5502 -0.7728  0.7171
19943TIP3    H281321   0.827   2.215  16.485  1.4943 -1.2240  0.4226
19944TIP3   OH281322   1.188   0.544   1.506  0.2321  0.7513  0.2260
19944TIP3    H181323   1.095   0.524   1.496  0.7207 -1.7405  0.2989
19944TIP3    H281324   1.199   0.630   1.465 -1.8609  0.4950 -0.9348
19945TIP3   OH281325   6.392   0.073  11.156 -0.2158 -0.2282 -0.4859
19945TIP3    H181326   6.395   0.012  11.230  1.0959  1.3473  0.8101
19945TIP3    H281327   6.456   0.038  11.094  0.8191  0.0046  0.4237
19946TIP3   OH281328   3.097   4.799  14.519  0.6688  0.0799 -0.4584
19946TIP3    H181329   3.023   4.738  14.528  0.5595  0.0742 -1.3175
19946TIP3    H281330   3.101   4.845  14.603 -0.9401  0.7716 -0.7416
19947TIP3   OH281331   0.628   5.689   1.509  0.3807  0.6347  0.2883
19947TIP3    H181332   0.695   5.621   1.515 -0.6806 -0.3801  1.1261
19947TIP3    H281333   0.599   5.686   1.418  0.3649 -0.0460  0.3094
19948TIP3   OH281334   4.124   5.070  11.763  0.6040  0.2782  0.0553
19948TIP3    H181335   4.121   5.155  11.718 -1.0981 -0.4655 -1.2973
19948TIP3    H281336   4.033   5.051  11.784  0.7851 -1.9473 -1.0670
19949TIP3   OH281337   6.356   3.083   0.259 -0.0409 -0.4870  0.5442
19949TIP3    H181338   6.317   3.113   0.178 -1.0550 -0.4863  1.0269
19949TIP3    H281339   6.384   3.162   0.304 -0.6128 -0.4086  0.7629
19950TIP3   OH281340   3.877   2.763  14.525 -0.1506 -0.0357 -0.9042
19950TIP3    H181341   3.901   2.699  14.592 -2.5295 -2.9498 -2.7420
19950TIP3    H281342   3.812   2.819  14.568  2.0678  1.3247  0.7655
19951TIP3   OH281343   0.715   3.032  13.545  0.0118  0.2359 -0.5244
19951TIP3    H181344   0.786   2.968  13.548 -0.0409  0.0626 -2.3506
19951TIP3    H281345   0.649   2.997  13.605  1.1628  0.0356  0.6346
19952TIP3   OH281346   0.604   3.093  14.842 -0.5876 -0.0472  0.5832
19952TIP3    H181347   0.566   3.022  14.894 -0.8683 -0.4509 -0.1670
19952TIP3    H281348   0.612   3.166  14.903 -2.0679 -0.1283  0.8710
19953TIP3   OH281349   6.087   4.480  13.135  0.5663  0.1833  0.1155
19953TIP3    H181350   6.054   4.455  13.221  2.9769  1.2723  1.4201
19953TIP3    H281351   6.081   4.401  13.082 -1.3529 -0.3761  1.1491
19954TIP3   OH281352   6.462   2.483   6.953 -0.0492  0.0428  0.6742
19954TIP3    H181353   6.465   2.433   6.872 -0.1089  2.6042 -0.9710
19954TIP3    H281354   6.373   2.470   6.986 -0.5199  0.2608 -0.5106
19955TIP3   OH281355   6.461   2.723   6.045  0.2149  0.3423 -0.3041
19955TIP3    H181356   6.370   2.726   6.077 -0.8257 -1.4967 -2.9081
19955TIP3    H281357   6.487   2.815   6.039 -1.0577  0.8549  1.5468
19956TIP3   OH281358   1.570   5.668   4.728 -0.4568  0.1258  0.4897
19956TIP3    H181359   1.582   5.660   4.633  0.7589 -0.3014  0.6714
19956TIP3    H281360   1.601   5.757   4.748 -2.8725  1.0860  0.1753
19957TIP3   OH281361   0.093   6.200   6.287 -0.1803  1.0411 -0.1687
19957TIP3    H181362   0.052   6.264   6.229 -0.2219  0.1066 -1.1951
19957TIP3    H281363   0.135   6.137   6.227  2.4267  1.7678  0.8423
19958TIP3   OH281364   6.817   2.173   5.766  0.0927 -0.2154 -0.3410
19958TIP3    H181365   6.747   2.110   5.784  0.0608 -0.0751  0.0286
19958TIP3    H281366   6.828   2.220   5.849 -0.4061  0.7855 -0.8389
19959TIP3   OH281367   4.878   4.037   3.594 -0.3858  0.4043  0.0753
19959TIP3    H181368   4.839   4.076   3.515  0.3200 -0.2370 -0.5961
19959TIP3    H281369   4.809   3.981   3.629  0.0344 -1.0165 -1.3131
19960TIP3   OH281370   6.646   2.081  12.862  0.2408 -0.0318  0.2442
19960TIP3    H181371   6.562   2.097  12.905  0.5790  1.1384  0.4847
19960TIP3    H281372   6.711   2.102  12.929  0.7658  1.6939 -0.7717
19961TIP3   OH281373   4.406   4.347  13.791  0.2295  0.4769 -0.6909
19961TIP3    H181374   4.373   4.397  13.866 -2.1734 -0.4890 -1.0402
19961TIP3    H281375   4.347   4.371  13.719  0.9179 -0.5453 -1.6087
19962TIP3   OH281376   1.301   3.789  12.837 -0.5639  0.5364 -0.3989
19962TIP3    H181377   1.230   3.813  12.896 -1.3894 -1.1340 -0.6817
19962TIP3    H281378   1.319   3.697  12.857  0.5904  0.5579 -1.2654
19963TIP3   OH281379   4.222   1.139   3.209 -0.2051 -0.2440  0.0570
19963TIP3    H181380   4.301   1.156   3.159 -0.9700 -1.1443 -1.4780
19963TIP3    H281381   4.164   1.212   3.188 -0.4491 -0.5136 -0.2073
19964TIP3   OH281382   2.614   3.439   1.800  0.5080  0.3215  0.0780
19964TIP3    H181383   2.525   3.468   1.819  0.6938  0.4220  0.7974
19964TIP3    H281384   2.605   3.346   1.780  0.3875  0.0926  1.2007
19965TIP3   OH281385   0.679   6.367  13.988  0.0931 -0.2768 -0.9830
19965TIP3    H181386   0.631   6.386  14.069  0.3371  1.1112 -1.1572
19965TIP3    H281387   0.611   6.347  13.924 -0.0368 -3.5994  0.0911
19966TIP3   OH281388   2.789   0.694   1.393 -0.1460 -0.8121 -0.0918
19966TIP3    H181389   2.771   0.748   1.471 -0.0050  0.2358 -0.7700
19966TIP3    H281390   2.786   0.756   1.320  1.4089 -1.4833 -0.7457
19967TIP3   OH281391   4.553   3.410  11.334 -0.2344  0.2340 -0.4253
19967TIP3    H181392   4.458   3.399  11.343 -0.3209 -3.7121 -4.3315
19967TIP3    H281393   4.563   3.472  11.262  0.1273 -0.3596 -0.8895
19968TIP3   OH281394   6.516   3.736   0.949 -0.4740  0.2278  1.1981
19968TIP3    H181395   6.503   3.796   0.876 -0.3767 -0.4156  0.6509
19968TIP3    H281396   6.533   3.793   1.024  1.4989  0.8586  0.3237
19969TIP3   OH281397   3.080   6.390  16.435  0.1159  0.1924  0.2750
19969TIP3    H181398   3.062   6.401  16.342 -1.5989 -1.4159  0.3937
19969TIP3    H281399   3.069   6.477  16.473  2.0377  1.1224 -1.1880
19970TIP3   OH281400   4.623   6.804  14.752  0.6380  0.3360 -0.2767
19970TIP3    H181401   4.716   6.787  14.738  0.7037 -1.8294  2.4800
19970TIP3    H281402   4.621   6.878  14.811  0.4826  2.8643 -3.3077
19971TIP3   OH281403   6.804   6.547   3.660  0.2736  0.2886 -0.1016
19971TIP3    H181404   6.860   6.469   3.653 -1.5198 -1.2629  2.0282
19971TIP3    H281405   6.737   6.534   3.593 -0.4689 -0.4318  0.7563
19972TIP3   OH281406   6.398   0.964  11.978 -0.0166 -0.1557  0.5076
19972TIP3    H181407   6.402   1.044  12.030 -2.0189 -0.1512  0.7051
19972TIP3    H281408   6.341   0.905  12.029 -0.1312 -0.9820 -0.5593
19973TIP3   OH281409   0.221   0.377   0.660 -0.4432 -0.4671  0.3113
19973TIP3    H181410   0.214   0.285   0.632  1.5996 -0.0774 -1.5901
19973TIP3    H281411   0.193   0.428   0.584  0.1205  0.5179  0.7556
19974TIP3   OH281412   1.694   1.255  16.759  0.3204 -0.1488 -0.6705
19974TIP3    H181413   1.776   1.303  16.770  0.0408  0.0643  0.5503
19974TIP3    H281414   1.643   1.276  16.837  0.1494 -2.3426 -0.1455
19975TIP3   OH281415   0.284   5.590  15.716  0.4310  0.3518 -0.5996
19975TIP3    H181416   0.227   5.617  15.788  1.7681  0.0973  0.5776
19975TIP3    H281417   0.282   5.495  15.718  1.9951  0.3158  0.3780
19976TIP3   OH281418   6.123   2.155  10.577 -0.9715  0.0748  0.3608
19976TIP3    H181419   6.185   2.188  10.511 -0.6890 -1.8554 -0.3926
19976TIP3    H281420   6.177   2.140  10.655 -0.8686  0.2177  0.3170
19977TIP3   OH281421   4.555   1.404  13.492 -0.4661  0.1514  0.4432
19977TIP3    H181422   4.480   1.344  13.493 -1.9999  2.0253  0.7969
19977TIP3    H281423   4.518   1.488  13.467  1.5649  1.0787  0.4619
19978TIP3   OH281424   2.674   4.439   2.281 -0.4580  0.1920 -0.1993
19978TIP3    H181425   2.611   4.418   2.213  0.4219 -0.8481 -0.7010
19978TIP3    H281426   2.754   4.395   2.254  0.2266  0.7414  0.9063
19979TIP3   OH281427   4.010   2.374  13.830  0.1049 -0.3777  0.1929
19979TIP3    H181428   4.070   2.436  13.789 -0.3166  0.3110  0.6058
19979TIP3    H281429   4.047   2.288  13.810  1.3392  0.0368  0.6104
19980TIP3   OH281430   6.369   4.184  13.784 -0.3072  0.8567  0.2387
19980TIP3    H181431   6.334   4.205  13.871  1.1079  3.6700  0.1655
19980TIP3    H281432   6.309   4.227  13.724 -1.7007 -1.6790 -0.2973
19981TIP3   OH281433   5.028   5.944  11.036 -0.4569 -0.9408  0.0582
19981TIP3    H181434   5.067   5.861  11.063 -0.3785 -0.5544  1.1661
19981TIP3    H281435   5.012   5.991  11.118  1.8510  1.2122 -0.6197
19982TIP3   OH281436   4.848   4.669   0.793  0.4010 -0.1307 -0.3790
19982TIP3    H181437   4.876   4.653   0.703  0.6287 -0.2254 -0.2917
19982TIP3    H281438   4.800   4.751   0.789  0.5523 -0.0504 -0.5599
19983TIP3   OH281439   0.825   5.253   4.608 -0.3289  0.0010 -0.2336
19983TIP3    H181440   0.828   5.241   4.703 -0.8664  1.2448 -0.0568
19983TIP3    H281441   0.913   5.227   4.579  0.3811  1.1805  0.7950
19984TIP3   OH281442   5.521   5.977   4.252  0.0901 -0.4688 -0.0887
19984TIP3    H181443   5.568   6.052   4.214  1.7015 -1.3427  0.1305
19984TIP3    H281444   5.431   6.008   4.262  0.5337  1.1359 -0.8470
19985TIP3   OH281445   4.610   2.363   4.393  0.5395 -0.4883 -0.2453
19985TIP3    H181446   4.685   2.330   4.442  0.8210 -0.4663 -0.6575
19985TIP3    H281447   4.591   2.293   4.330  2.4449  1.0019 -2.5318
19986TIP3   OH281448   0.970   5.937  13.447 -0.2007 -0.1352 -0.2055
19986TIP3    H181449   1.009   5.956  13.361  1.3600  2.5001  1.0228
19986TIP3    H281450   0.913   6.012  13.464 -1.3313 -1.1722  0.5801
19987TIP3   OH281451   5.629   0.584  12.492  0.6334  0.6434  0.4836
19987TIP3    H181452   5.668   0.499  12.510 -1.5299  0.1598  3.3138
19987TIP3    H281453   5.535   0.570  12.506  0.1172  3.2038 -0.1965
19988TIP3   OH281454   5.233   6.558   4.319 -0.4970  0.0196  0.2441
19988TIP3    H181455   5.271   6.516   4.397  1.2040  0.5851 -0.2713
19988TIP3    H281456   5.231   6.488   4.253  0.2115  0.1397  0.0904
19989TIP3   OH281457   4.096   5.414   4.072  0.1575 -0.3140  0.3814
19989TIP3    H181458   4.031   5.345   4.061  0.8132 -0.9856  0.6909
19989TIP3    H281459   4.065   5.463   4.148  0.3897 -1.0752  0.9790
19990TIP3   OH281460   1.272   6.612  11.931 -0.2735  0.3453 -0.2955
19990TIP3    H181461   1.279   6.701  11.896  0.1240  0.5469  0.3003
19990TIP3    H281462   1.181   6.604  11.957  0.1827  1.3607  1.7306
19991TIP3   OH281463   5.251   5.493  15.042 -0.1203  0.2328  0.1253
19991TIP3    H181464   5.226   5.428  15.108 -1.9046  0.3325 -0.4221
19991TIP3    H281465   5.346   5.496  15.047 -0.2717  1.4446  3.8666
19992TIP3   OH281466   1.486   3.070  14.370  0.0647 -0.0880  0.3162
19992TIP3    H181467   1.525   3.140  14.318 -1.7664  0.8273  0.1057
19992TIP3    H281468   1.512   2.990  14.326 -0.4917  0.6227 -1.3499
19993TIP3   OH281469   1.475   2.189  13.972 -1.2242  0.0448  0.4909
19993TIP3    H181470   1.427   2.113  13.940 -0.9773 -0.4891  1.3970
19993TIP3    H281471   1.420   2.224  14.042 -0.0975 -0.8220  1.8309
19994TIP3   OH281472   3.317   6.100  12.386 -0.2858 -0.0028 -0.2668
19994TIP3    H181473   3.278   6.188  12.383  0.1922  0.1369 -3.5786
19994TIP3    H281474   3.251   6.043  12.346  0.9229 -0.5559 -1.4801
19995TIP3   OH281475   3.877   5.030   4.902  0.3871  0.0398  0.7441
19995TIP3    H181476   3.889   5.076   4.986  0.0609 -0.1681  0.9037
19995TIP3    H281477   3.843   5.098   4.843  0.0203  0.0370  0.9484
19996TIP3   OH281478   0.115   0.162   2.461 -0.4631 -0.6292 -0.1027
19996TIP3    H181479   0.171   0.239   2.470  0.1706 -1.0682 -0.2559
19996TIP3    H281480   0.105   0.128   2.550 -0.8510 -0.2926 -0.0186
19997TIP3   OH281481   2.335   0.880  16.567  0.6092 -0.0887 -0.0309
19997TIP3    H181482   2.325   0.961  16.618  2.3814  1.3549 -1.8979
19997TIP3    H281483   2.428   0.875  16.548  0.1504 -1.2542 -2.0979
19998TIP3   OH281484   1.761   0.639  16.988 -0.4294 -0.2878  0.2570
19998TIP3    H181485   1.787   0.707  16.926 -0.9919  1.2439  1.6741
19998TIP3    H281486   1.833   0.575  16.985  1.4579  1.7234  0.9043
19999TIP3   OH281487   1.145   4.982  16.945  0.6264  0.3853 -0.2575
19999TIP3    H181488   1.202   5.054  16.918 -0.7174  1.1278 -1.1648
19999TIP3    H281489   1.095   5.017  17.018  0.1611  0.2863 -0.5264
20000TIP3   OH281490   2.014   6.200  17.198  0.7277  0.5671  0.3069
20000TIP3    H181491   2.079   6.170  17.135 -0.3898 -0.2528 -0.4533
20000TIP3    H281492   1.931   6.198  17.151  0.3560  3.1241  0.7851
20001TIP3   OH281493   4.855   6.404   2.437 -0.1572 -0.2051 -0.1110
20001TIP3    H181494   4.910   6.326   2.445 -2.4735 -1.6565  2.3648
20001TIP3    H281495   4.769   6.371   2.411 -0.5547  1.7827 -1.4751
20002TIP3   OH281496   6.052   1.021  13.783  0.2335 -0.7703  0.0362
20002TIP3    H181497   5.956   1.025  13.787  0.1222 -2.4594 -0.7582
20002TIP3    H281498   6.073   0.932  13.809  1.5812 -0.4775 -0.0538
20003TIP3   OH281499   5.149   5.951  16.875  0.0517 -0.2475 -0.2838
20003TIP3    H181500   5.125   5.868  16.918  1.6038  0.5957  2.3382
20003TIP3    H281501   5.070   6.004  16.882  0.3287 -0.0704  1.7394
20004TIP3   OH281502   6.058   1.526   4.704 -0.7185 -0.5662 -0.6314
20004TIP3    H181503   6.080   1.435   4.686  1.9050 -0.0140 -0.3777
20004TIP3    H281504   6.054   1.567   4.618 -0.8898 -0.6987 -0.6872
20005TIP3   OH281505   6.360   6.362   2.645  0.3944  0.6090  0.3382
20005TIP3    H181506   6.437   6.392   2.693  0.5947 -0.3322  0.6013
20005TIP3    H281507   6.306   6.319   2.711  1.3369 -1.9922 -0.5296
20006TIP3   OH281508   2.177   0.509  15.936  0.0751 -0.2674 -0.1489
20006TIP3    H181509   2.149   0.580  15.994 -1.6342 -1.8919  1.0548
20006TIP3    H281510   2.108   0.502  15.871  1.1039  0.3208 -1.3352
20007TIP3   OH281511   3.300   4.804  12.167 -0.0770  0.0472  0.6624
20007TIP3    H181512   3.255   4.771  12.090  0.0623 -0.2233  0.6986
20007TIP3    H281513   3.349   4.729  12.201  0.4242  0.3458  0.6051
20008TIP3   OH281514   4.540   5.892  15.397  0.1308  0.1077  0.1177
20008TIP3    H181515   4.520   5.963  15.458  0.3257 -0.6344  1.0597
20008TIP3    H281516   4.485   5.910  15.320 -0.8229  0.5324  0.8881
20009TIP3   OH281517   3.645   2.977  15.182  0.0300  0.5040  0.0349
20009TIP3    H181518   3.731   3.013  15.158  0.7482 -0.9883  0.2979
20009TIP3    H281519   3.648   2.886  15.152 -1.2359  0.2777  0.5890
20010TIP3   OH281520   0.173   0.020   0.699 -0.1115 -0.1415 -0.6007
20010TIP3    H181521   0.159  -0.031   0.620 -1.3030 -0.1983 -0.3697
20010TIP3    H281522   0.190  -0.045   0.767 -0.8498 -0.1989 -0.4640
20011TIP3   OH281523   1.111   3.014   3.042 -0.5200  0.6912  0.6898
20011TIP3    H181524   1.051   3.071   3.091 -1.8323  0.1246 -0.2191
20011TIP3    H281525   1.063   2.993   2.962  0.6713 -0.2637  0.2173
20012TIP3   OH281526   6.488   2.988   6.002 -0.0475 -0.2419  0.1537
20012TIP3    H181527   6.407   3.030   5.973  0.0572  0.1500  0.4382
20012TIP3    H281528   6.520   3.043   6.073  1.3618  0.5303 -1.0686
20013TIP3   OH281529   4.466   5.741   0.677 -0.5072 -0.1294 -0.0834
20013TIP3    H181530   4.486   5.776   0.590  1.0172 -1.5016 -0.3082
20013TIP3    H281531   4.503   5.653   0.677 -0.4902 -0.1595  1.9585
20014TIP3   OH281532   4.566   3.080   1.142 -0.6087 -0.4896 -0.2904
20014TIP3    H181533   4.657   3.110   1.145 -0.4192 -1.1978  1.0763
20014TIP3    H281534   4.545   3.082   1.048  0.9576 -0.7705 -0.6759
20015TIP3   OH281535   0.288   3.010  13.098  0.3501 -0.1756  0.0551
20015TIP3    H181536   0.236   2.946  13.147 -0.2139 -0.4765 -0.9013
20015TIP3    H281537   0.288   2.976  13.008  1.6988  0.1525 -0.0706
20016TIP3   OH281538   2.085   5.717  14.695  0.2666  0.1584 -0.2841
20016TIP3    H181539   2.031   5.792  14.720 -1.7833 -1.0033 -1.1328
20016TIP3    H281540   2.027   5.642  14.702  2.4464 -1.4407  1.0425
20017TIP3   OH281541   0.979   6.529   0.420  0.0781  0.0145 -0.3262
20017TIP3    H181542   0.942   6.443   0.441 -1.6600  0.5688 -1.0226
20017TIP3    H281543   1.056   6.537   0.476  0.0193 -1.8235  0.0392
20018TIP3   OH281544   1.296   6.740   1.358 -0.2275  0.1317 -0.4797
20018TIP3    H181545   1.334   6.662   1.318 -1.5517 -0.8591  0.1226
20018TIP3    H281546   1.217   6.707   1.402 -0.1328  1.6074  0.8222
20019TIP3   OH281547   6.503   0.759  14.455  0.4688 -0.1158  0.0542
20019TIP3    H181548   6.572   0.820  14.484 -0.3982  0.5351  0.7662
20019TIP3    H281549   6.446   0.812  14.400  0.1235 -0.4646  0.0758
20020TIP3   OH281550   5.265   1.735  12.831 -0.1762 -0.0658  0.6488
20020TIP3    H181551   5.270   1.687  12.914 -2.0009 -0.8296  0.3512
20020TIP3    H281552   5.310   1.680  12.768 -0.7695 -0.5763  0.6678
20021TIP3   OH281553   1.350   3.390  13.283  0.2872  0.3041 -0.1001
20021TIP3    H181554   1.296   3.469  13.280  1.3700  1.0459 -0.2300
20021TIP3    H281555   1.426   3.415  13.335  1.0887 -0.3610 -0.9417
20022TIP3   OH281556   6.371   4.810   0.742 -0.1607 -0.2809  0.0276
20022TIP3    H181557   6.457   4.852   0.733 -0.0073 -0.4617  0.6051
20022TIP3    H281558   6.390   4.719   0.761 -0.4772 -0.3111  0.2101
20023TIP3   OH281559   0.445   0.572  11.548 -0.1965 -0.0845 -0.1946
20023TIP3    H181560   0.537   0.598  11.553 -0.5368  1.1660 -0.1029
20023TIP3    H281561   0.400   0.651  11.517 -1.1627 -0.8533 -0.7661
20024TIP3   OH281562   5.075   0.337   5.896 -0.1786 -0.3778 -0.3920
20024TIP3    H181563   5.002   0.339   5.833 -0.0466  0.0890 -0.5309
20024TIP3    H281564   5.069   0.251   5.936  0.4104 -1.1247 -1.8485
20025TIP3   OH281565   6.446   4.998   5.516  0.3496  0.6110 -0.1478
20025TIP3    H181566   6.447   5.021   5.609 -0.2383  0.3254 -0.0719
20025TIP3    H281567   6.465   5.081   5.471  0.0628  0.8681  0.2037
20026TIP3   OH281568   4.426   2.880  11.162  0.5224 -0.2271 -0.0760
20026TIP3    H181569   4.461   2.818  11.226  3.6214  1.1302 -0.4025
20026TIP3    H281570   4.473   2.859  11.081 -1.4627 -0.1860 -1.2680
20027TIP3   OH281571   6.496   6.080   3.895  0.4925 -0.2719  0.8379
20027TIP3    H181572   6.444   6.127   3.829  2.5782  1.2846  0.2306
20027TIP3    H281573   6.451   6.097   3.978  0.1478  1.2540  0.3565
20028TIP3   OH281574   1.111   5.943   0.783  0.0491  0.0111  0.2034
20028TIP3    H181575   1.017   5.936   0.800 -0.0030  0.4526  0.1089
20028TIP3    H281576   1.149   5.868   0.827 -0.5148 -1.0125 -1.0211
20029TIP3   OH281577   5.649   2.239  11.871  0.3159 -0.3397 -0.6301
20029TIP3    H181578   5.627   2.246  11.778  0.6549  0.0478 -0.6815
20029TIP3    H281579   5.744   2.250  11.874  0.0828  1.5122 -0.0481
20030TIP3   OH281580   5.675   2.920   1.415 -0.0516 -0.1071 -0.1106
20030TIP3    H181581   5.767   2.909   1.389 -0.0394 -2.9012  0.8508
20030TIP3    H281582   5.659   2.847   1.476 -2.7430  0.6709  0.1801
20031TIP3   OH281583   2.927   1.122   4.416 -0.5418  0.1183  0.6275
20031TIP3    H181584   2.983   1.100   4.491 -0.7281  1.1777  1.0877
20031TIP3    H281585   2.974   1.088   4.340  2.0570  3.2897  0.7125
20032TIP3   OH281586   4.631   5.903   1.704  0.1000  0.2364 -0.2776
20032TIP3    H181587   4.705   5.859   1.663 -0.3777  0.6622 -1.6052
20032TIP3    H281588   4.562   5.901   1.638 -0.5809  1.1792  0.3992
20033TIP3   OH281589   3.430   5.219   4.697 -0.1121  0.0404 -0.0594
20033TIP3    H181590   3.398   5.174   4.618 -2.4090  0.0881  0.8046
20033TIP3    H281591   3.389   5.172   4.770  0.4898  1.1714  1.0203
20034TIP3   OH281592   6.016   2.333   4.431 -0.1165  0.0536 -0.1597
20034TIP3    H181593   5.967   2.403   4.388  0.2909  0.6989  0.4182
20034TIP3    H281594   5.973   2.252   4.402  0.1146  0.4765 -1.7537
20035TIP3   OH281595   1.942   2.877   5.508 -0.1535 -0.4423 -0.1621
20035TIP3    H181596   1.853   2.844   5.516  0.3382 -1.5533  0.8921
20035TIP3    H281597   1.972   2.887   5.599  0.8827 -0.3278 -0.5141
20036TIP3   OH281598   6.412   0.449   3.823  0.0969  0.4198  0.2700
20036TIP3    H181599   6.485   0.453   3.886  0.8179  0.8169 -0.5759
20036TIP3    H281600   6.371   0.535   3.828  0.6269  0.7193 -0.3359
20037TIP3   OH281601   1.162   1.150  17.068 -0.4177 -0.7316 -0.6979
20037TIP3    H181602   1.182   1.168  17.160 -0.3717 -2.2256 -0.4111
20037TIP3    H281603   1.244   1.115  17.032 -0.5876 -0.6264 -1.1918
20038TIP3   OH281604   6.138   6.612   5.638 -0.4000  0.1029 -0.0554
20038TIP3    H181605   6.128   6.548   5.708 -0.7561  0.4486  0.2073
20038TIP3    H281606   6.052   6.616   5.597 -0.3999  0.4865 -0.0133
20039TIP3   OH281607   6.545   2.307  12.639  0.0469 -0.0573 -0.2140
20039TIP3    H181608   6.551   2.392  12.595 -0.4260  0.7145  1.1757
20039TIP3    H281609   6.636   2.284  12.658  0.2028 -0.0402 -0.9028
20040TIP3   OH281610   3.343   0.349  15.932 -0.4069  0.7964  0.0693
20040TIP3    H181611   3.292   0.341  16.013  1.2004  1.6883  1.2071
20040TIP3    H281612   3.307   0.426  15.888 -0.2372  1.2608  0.7319
20041TIP3   OH281613   6.444   0.487  16.237  0.4092 -0.1480 -0.5845
20041TIP3    H181614   6.525   0.467  16.284  1.1237 -0.8940 -2.0697
20041TIP3    H281615   6.377   0.491  16.305  0.9631 -3.5675  0.2774
20042TIP3   OH281616   4.817   1.318  13.193 -0.0425 -0.3776 -0.1801
20042TIP3    H181617   4.878   1.392  13.192  1.0328 -1.2254  0.5600
20042TIP3    H281618   4.731   1.357  13.181  0.6749  0.8181 -1.6279
20043TIP3   OH281619   2.553   6.126   2.112 -0.4133 -0.0781  0.7839
20043TIP3    H181620   2.586   6.198   2.059 -1.8321  0.0151  0.0160
20043TIP3    H281621   2.587   6.144   2.200  1.4318  0.0989  0.0710
20044TIP3   OH281622   0.209   4.013   3.084 -0.1574  0.9638  0.0426
20044TIP3    H181623   0.241   4.084   3.140  3.2783 -0.4366  0.0041
20044TIP3    H281624   0.265   3.939   3.106 -3.1044 -1.5333 -0.5276
20045TIP3   OH281625   3.015   2.518   1.887  0.0928  0.2187  0.0062
20045TIP3    H181626   3.106   2.510   1.917 -0.1694  1.1280  1.0921
20045TIP3    H281627   3.017   2.488   1.796  0.7005 -3.7571  1.2075
20046TIP3   OH281628   4.985   1.983  11.234  0.4718 -0.4732 -0.4288
20046TIP3    H181629   5.046   1.910  11.242 -0.2560 -0.9611  0.7006
20046TIP3    H281630   4.925   1.974  11.308 -0.7389  0.2300 -1.2916
20047TIP3   OH281631   6.287   3.727  15.890 -0.1621 -0.0233 -0.7378
20047TIP3    H181632   6.264   3.816  15.864 -0.9420  0.7156  2.3015
20047TIP3    H281633   6.209   3.694  15.936  2.0291 -0.2394  2.9990
20048TIP3   OH281634   3.076   1.264  13.055 -0.8666 -0.4579 -0.2526
20048TIP3    H181635   3.076   1.194  13.119  0.9171 -0.0588  0.2115
20048TIP3    H281636   3.024   1.334  13.095  0.7521  0.0327  1.0654
20049TIP3   OH281637   5.262   3.617  14.367  0.5389 -0.1924  0.2508
20049TIP3    H181638   5.298   3.700  14.338  1.0529 -0.6949 -0.5723
20049TIP3    H281639   5.335   3.574  14.412  0.5009 -0.5295 -0.0080
20050TIP3   OH281640   0.359   2.743  12.195  0.0698  0.2869 -0.4964
20050TIP3    H181641   0.408   2.825  12.189 -0.6774  0.9393  1.9048
20050TIP3    H281642   0.378   2.698  12.112  1.4488  2.3269 -1.3363
20051TIP3   OH281643   0.601   5.004   2.642  0.2738  0.4422 -0.4276
20051TIP3    H181644   0.527   4.967   2.689  0.2402  0.5234 -0.4164
20051TIP3    H281645   0.595   4.968   2.553 -0.9098  1.9880 -0.9944
20052TIP3   OH281646   1.876   4.733  12.507  0.3638  0.1220 -0.1377
20052TIP3    H181647   1.870   4.753  12.601 -0.9481 -1.4860  0.1408
20052TIP3    H281648   1.939   4.796  12.473  0.6705  0.8800  1.7876
20053TIP3   OH281649   6.127   6.180   1.082 -0.2139 -0.4236 -0.1128
20053TIP3    H181650   6.130   6.274   1.102 -2.2037 -0.4887  0.5884
20053TIP3    H281651   6.075   6.173   1.003 -3.4537 -1.2140  1.9975
20054TIP3   OH281652   6.508   3.182  16.773  0.0052 -0.7585  0.0959
20054TIP3    H181653   6.457   3.142  16.843 -0.8276  0.5094  0.2239
20054TIP3    H281654   6.445   3.203  16.705  0.2109  1.3982  0.5162
20055TIP3   OH281655   2.061   5.041  14.453 -0.6402 -0.5342  0.3510
20055TIP3    H181656   1.977   5.077  14.482  0.6421  1.4906  1.6861
20055TIP3    H281657   2.103   5.013  14.534  0.1391 -1.1704 -0.2756
20056TIP3   OH281658   6.323   5.877  14.649  0.2432 -0.2400  0.1309
20056TIP3    H181659   6.350   5.787  14.668 -1.7521 -0.9591 -0.3784
20056TIP3    H281660   6.293   5.911  14.733 -0.8087 -0.7030 -0.0454
20057TIP3   OH281661   4.816   2.524  13.931  0.4945  0.3182  0.8692
20057TIP3    H181662   4.852   2.521  14.020  1.7718  0.5839  0.3655
20057TIP3    H281663   4.776   2.611  13.924 -2.9341 -1.0229  2.4354
20058TIP3   OH281664   0.344   0.608  15.804 -0.1178  0.3089  0.8178
20058TIP3    H181665   0.396   0.648  15.874 -1.0918  2.5419  0.3062
20058TIP3    H281666   0.253   0.630  15.825 -0.5859 -0.7156 -0.0678
20059TIP3   OH281667   4.410   4.050   1.734 -0.2281  0.4733  0.0141
20059TIP3    H181668   4.388   4.055   1.826 -1.3532  0.5985 -0.2626
20059TIP3    H281669   4.495   4.095   1.727 -0.7057  1.4983  0.7869
20060TIP3   OH281670   3.615   3.793   0.727  0.1945  0.1333  0.1001
20060TIP3    H181671   3.525   3.764   0.717  1.0400 -3.0734  1.1831
20060TIP3    H281672   3.635   3.777   0.819  2.5069 -1.2115 -0.6026
20061TIP3   OH281673   4.744   5.800  16.917  0.1479 -0.0477 -0.1143
20061TIP3    H181674   4.649   5.798  16.922  0.0436  0.0141 -2.0587
20061TIP3    H281675   4.772   5.737  16.984 -1.2067  0.7711  1.2518
20062TIP3   OH281676   3.689   3.436   1.785 -0.3835 -0.0695  0.4114
20062TIP3    H181677   3.631   3.381   1.838 -0.6069 -0.3036 -0.0732
20062TIP3    H281678   3.662   3.525   1.806 -3.3092 -0.1983 -2.4156
20063TIP3   OH281679   2.444   4.348  10.578  0.4173  0.0078  0.1549
20063TIP3    H181680   2.405   4.435  10.570 -0.2082 -0.1699  1.1522
20063TIP3    H281681   2.372   4.288  10.558  0.4872 -0.3045  0.8387
20064TIP3   OH281682   4.222   6.601   5.881  0.6927 -0.1786  0.1279
20064TIP3    H181683   4.284   6.674   5.883  0.7398 -0.2322  0.6333
20064TIP3    H281684   4.274   6.524   5.906  0.0683  0.0353  2.1024
20065TIP3   OH281685   2.162   4.112   4.286 -0.5707 -0.1796 -0.3853
20065TIP3    H181686   2.084   4.161   4.313 -0.7935 -0.0068 -1.3294
20065TIP3    H281687   2.227   4.179   4.268 -0.5223 -0.2814 -0.5873
20066TIP3   OH281688   4.141   2.509   5.434  0.6005 -1.0126 -0.0806
20066TIP3    H181689   4.210   2.519   5.369 -1.1215 -1.3384 -2.0228
20066TIP3    H281690   4.060   2.517   5.384 -0.7751 -0.4591  2.1760
20067TIP3   OH281691   4.217   0.009   2.624 -0.3066  0.0056  0.1379
20067TIP3    H181692   4.308  -0.016   2.636  0.2670  2.2060  0.5427
20067TIP3    H281693   4.167  -0.067   2.654  1.3680 -0.9433  0.5708
20068TIP3   OH281694   2.429   4.528   3.289  0.5010  0.9702 -0.4328
20068TIP3    H181695   2.399   4.552   3.201 -0.3499  0.4116 -0.3006
20068TIP3    H281696   2.508   4.580   3.302 -0.0588  1.9910 -1.0418
20069TIP3   OH281697   0.998   6.186   4.589 -0.3401  0.0717 -0.2370
20069TIP3    H181698   1.084   6.222   4.609 -0.1588  0.3766 -1.5542
20069TIP3    H281699   0.940   6.262   4.588 -0.4478 -0.0110 -0.3176
20070TIP3   OH281700   6.120   6.405   3.036  0.6782  0.5942  0.1549
20070TIP3    H181701   6.102   6.389   3.129 -0.1122  0.3201 -0.0357
20070TIP3    H281702   6.128   6.500   3.029  1.4798  0.5665  0.6258
20071TIP3   OH281703   3.104   2.757   5.922  0.1436 -0.5657 -0.3088
20071TIP3    H181704   3.167   2.807   5.974 -1.6507  1.1363  0.2716
20071TIP3    H281705   3.034   2.819   5.904 -0.8759 -2.1402 -1.8561
20072TIP3   OH281706   2.173   2.760  11.609 -0.3676 -0.6196  0.6285
20072TIP3    H181707   2.251   2.709  11.632 -0.4508 -0.9237  0.2219
20072TIP3    H281708   2.113   2.697  11.570 -1.1113 -0.5294  1.5933
20073TIP3   OH281709   0.003   0.370  15.871 -0.1534  0.6565  0.4147
20073TIP3    H181710  -0.024   0.414  15.791  1.3806 -0.2136 -0.6088
20073TIP3    H281711  -0.031   0.425  15.941 -3.4577  0.2592 -0.7838
20074TIP3   OH281712   5.157   0.588  10.935 -0.0925 -0.0516 -0.1933
20074TIP3    H181713   5.220   0.569  11.004  0.9986  2.7167 -0.3562
20074TIP3    H281714   5.196   0.551  10.856  0.8544  0.7420 -0.1081
20075TIP3   OH281715   5.908   2.329  11.916  0.4027 -0.3149  0.0306
20075TIP3    H181716   5.962   2.323  11.995 -0.3318 -2.9874  0.3784
20075TIP3    H281717   5.971   2.347  11.846  1.1638  1.2208  1.0756
20076TIP3   OH281718   6.109   5.653  16.053  0.1917 -0.0804  0.4747
20076TIP3    H181719   6.088   5.745  16.036  3.4422  0.5145 -0.6557
20076TIP3    H281720   6.154   5.654  16.137 -2.0574 -1.0209  1.7312
20077TIP3   OH281721   5.843   2.929  11.250  0.5431 -0.0771  0.0766
20077TIP3    H181722   5.768   2.946  11.308  1.4043  0.2007  1.1329
20077TIP3    H281723   5.870   2.840  11.272  0.5018 -0.1893 -0.3284
20078TIP3   OH281724   1.980   6.659  10.423 -0.3457  0.3091  0.5551
20078TIP3    H181725   2.045   6.616  10.478 -0.4088 -0.1601  0.2642
20078TIP3    H281726   1.940   6.588  10.372 -0.2482  0.7412 -0.1378
20079TIP3   OH281727   3.235   3.468  13.884  0.2836 -0.1822 -0.3409
20079TIP3    H181728   3.247   3.393  13.827  0.4856 -0.2061 -0.2688
20079TIP3    H281729   3.322   3.484  13.921  0.2801  0.1920 -0.4918
20080TIP3   OH281730   3.308   6.487   2.499 -0.2623  0.2632  0.7859
20080TIP3    H181731   3.253   6.534   2.437  1.3983  0.6343 -0.4652
20080TIP3    H281732   3.371   6.553   2.530  0.6003 -0.5536  0.8059
20081TIP3   OH281733   5.779   1.950   5.177  0.0717 -0.2529 -0.7581
20081TIP3    H181734   5.762   1.990   5.091  2.2865  0.0378 -1.0769
20081TIP3    H281735   5.768   1.856   5.162 -3.2579  0.0163 -0.4469
20082TIP3   OH281736   4.591   4.243  13.258 -0.0782  0.9052 -0.6187
20082TIP3    H181737   4.620   4.319  13.206 -0.5351  0.9740 -0.7729
20082TIP3    H281738   4.530   4.197  13.201  0.4060  0.2681 -0.6245
20083TIP3   OH281739   4.504   2.331  16.324 -0.2359 -0.0132 -0.4440
20083TIP3    H181740   4.547   2.336  16.239 -0.4950 -1.1572 -0.6548
20083TIP3    H281741   4.550   2.262  16.371 -0.7642 -0.1067 -0.0483
20084TIP3   OH281742   3.621   1.378   3.256  0.4901 -0.5358  0.1462
20084TIP3    H181743   3.565   1.398   3.181  1.4244 -2.2074 -1.0233
20084TIP3    H281744   3.685   1.449   3.257  1.8691 -1.6738 -2.0743
20085TIP3   OH281745   5.704   6.550  10.937  0.1762 -0.7914  0.0040
20085TIP3    H181746   5.680   6.490  10.866 -0.2916 -1.1918  0.4997
20085TIP3    H281747   5.690   6.637  10.899  0.4653 -0.9901 -0.5811
20086TIP3   OH281748   2.684   2.676   0.850 -0.1292  0.4589  0.5262
20086TIP3    H181749   2.697   2.751   0.908  1.2145  0.5731  0.0789
20086TIP3    H281750   2.692   2.712   0.762  1.1115 -0.3060  0.3133
20087TIP3   OH281751   2.767   2.075   3.840 -0.1744 -0.3325 -0.1236
20087TIP3    H181752   2.858   2.102   3.829 -0.5689  0.6174 -1.1351
20087TIP3    H281753   2.752   2.082   3.935  0.7000 -0.1442  0.0071
20088TIP3   OH281754   2.249   1.197  13.624 -0.2103  0.4424  0.1231
20088TIP3    H181755   2.270   1.116  13.670  0.2295  1.0571  1.0293
20088TIP3    H281756   2.326   1.252  13.635 -1.0478  1.5206  0.7775
20089TIP3   OH281757   3.853   4.726   1.168 -0.9020  0.1224 -0.0135
20089TIP3    H181758   3.937   4.767   1.146 -0.1621 -1.9719 -1.2261
20089TIP3    H281759   3.815   4.782   1.236  1.4816  1.0659  0.5566
20090TIP3   OH281760   3.671   3.689  16.226  0.5167 -0.1687 -0.0214
20090TIP3    H181761   3.588   3.670  16.182 -1.0201  0.9076  2.3213
20090TIP3    H281762   3.688   3.781  16.206  1.5926 -0.5891 -1.1402
20091TIP3   OH281763   4.265   0.212   1.415 -0.0182 -0.6767 -0.3078
20091TIP3    H181764   4.277   0.146   1.347  1.8270 -2.6658  1.8791
20091TIP3    H281765   4.188   0.183   1.464 -0.1782 -0.2953 -0.3246
20092TIP3   OH281766   3.706   3.500  14.066 -0.0572 -0.1510 -0.4337
20092TIP3    H181767   3.701   3.415  14.110  1.3266  0.8250  1.6891
20092TIP3    H281768   3.788   3.539  14.097 -0.2030  1.5807 -2.0973
20093TIP3   OH281769   5.207   4.600   4.588 -0.6484 -0.6420  0.4081
20093TIP3    H181770   5.262   4.673   4.560  0.7827 -0.6777  2.9793
20093TIP3    H281771   5.259   4.522   4.570 -1.3409 -0.9225 -0.4382
20094TIP3   OH281772   0.274   2.104   0.392 -0.0680 -0.1259  0.1010
20094TIP3    H181773   0.339   2.041   0.360 -0.0081 -1.3770  2.5430
20094TIP3    H281774   0.190   2.064   0.370 -0.0415  0.3465 -0.9085
20095TIP3   OH281775   3.574   5.635  17.289 -0.0441  0.4740  0.4562
20095TIP3    H181776   3.627   5.702  17.245 -0.0545 -0.4906 -1.0660
20095TIP3    H281777   3.492   5.681  17.311  0.4521  1.3026  0.5858
20096TIP3   OH281778   5.420   0.508  10.756 -0.2325  0.1152  0.4789
20096TIP3    H181779   5.428   0.416  10.779  1.7513  0.3697  0.9053
20096TIP3    H281780   5.387   0.508  10.666 -1.0688 -0.9746  0.7772
20097TIP3   OH281781   2.419   6.073  14.497  0.1167  0.6827 -0.3496
20097TIP3    H181782   2.373   6.050  14.416  0.4616  1.6574 -0.8219
20097TIP3    H281783   2.489   6.132  14.470  0.0881  1.2075  0.6843
20098TIP3   OH281784   5.388   6.231  13.756 -0.5379  0.3373 -0.2279
20098TIP3    H181785   5.446   6.189  13.819  0.3472 -0.1508 -1.3572
20098TIP3    H281786   5.306   6.245  13.805  0.0137 -0.3404  0.9168
20099TIP3   OH281787   4.682   4.391   0.674 -0.5798 -0.2734 -0.0888
20099TIP3    H181788   4.772   4.424   0.675 -0.9294  0.6932  1.4582
20099TIP3    H281789   4.691   4.297   0.686  0.2167 -0.1710  0.1512
20100TIP3   OH281790   5.604   5.265  13.285 -0.0888  0.0582  0.0425
20100TIP3    H181791   5.602   5.347  13.236 -3.1318 -0.9370 -1.6208
20100TIP3    H281792   5.573   5.288  13.373  0.1351  0.8697 -0.0920
20101TIP3   OH281793   3.898   5.246  17.223 -0.1658  0.0113 -0.3653
20101TIP3    H181794   3.814   5.225  17.183  0.3160 -0.3808 -1.2037
20101TIP3    H281795   3.877   5.302  17.298 -1.1821 -0.3041 -0.4201
20102TIP3   OH281796   0.658   4.409   3.124  0.1956  0.7169  0.1463
20102TIP3    H181797   0.679   4.488   3.174  2.6530 -0.0023  0.3592
20102TIP3    H281798   0.711   4.416   3.045  0.9670 -1.0112  0.4845
20103TIP3   OH281799   6.406   3.321  10.901 -0.0743 -0.5134  0.1513
20103TIP3    H181800   6.346   3.339  10.974 -1.4178  0.2071 -1.0927
20103TIP3    H281801   6.360   3.255  10.849  1.4285 -1.9336  0.5967
20104TIP3   OH281802   1.709   2.263   1.632 -0.3481  0.0663 -0.2554
20104TIP3    H181803   1.726   2.327   1.562 -1.0630  0.0370 -0.4625
20104TIP3    H281804   1.630   2.217   1.604  0.9657 -1.9351 -0.8328
20105TIP3   OH281805   5.408   2.052   2.469  0.1135 -0.2637 -0.0809
20105TIP3    H181806   5.425   2.142   2.441 -1.0195  0.6632  2.0683
20105TIP3    H281807   5.367   2.011   2.393 -1.2800  1.6547 -0.4154
20106TIP3   OH281808   5.325   2.817  14.060  0.0737 -0.2655  0.1072
20106TIP3    H181809   5.266   2.773  13.999  0.8016 -1.2746  0.1042
20106TIP3    H281810   5.390   2.749  14.083  0.0848  0.2448  1.6206
20107TIP3   OH281811   1.448   6.798  16.016 -0.1210  0.0678  0.0335
20107TIP3    H181812   1.360   6.775  16.046  0.3576  0.7631  2.0907
20107TIP3    H281813   1.505   6.774  16.090  1.0225  2.5560  0.0017
20108TIP3   OH281814   6.095   0.829  14.385  0.1127  0.1805 -0.3506
20108TIP3    H181815   6.007   0.810  14.354  0.3002 -2.0433  0.3840
20108TIP3    H281816   6.084   0.850  14.478  0.2165  1.1727 -0.5573
20109TIP3   OH281817   2.616   3.364  17.147 -0.0449 -0.0012  0.0186
20109TIP3    H181818   2.696   3.411  17.168 -0.3651  1.8981 -2.6718
20109TIP3    H281819   2.644   3.274  17.131  1.0244 -0.1034  2.3183
20110TIP3   OH281820   6.508   1.721   0.306  0.1065  0.5688  0.3370
20110TIP3    H181821   6.555   1.665   0.368  0.4152 -0.0336 -0.4388
20110TIP3    H281822   6.423   1.737   0.348 -1.0868 -2.8068 -0.7113
20111TIP3   OH281823   3.422   4.362  15.101  0.2111 -0.3167  0.0782
20111TIP3    H181824   3.464   4.291  15.053  0.2579  0.3384 -0.8568
20111TIP3    H281825   3.411   4.432  15.037  2.3309  1.4359  1.5664
20112TIP3   OH281826   0.684   5.689   6.301 -0.0952  1.2221  0.1387
20112TIP3    H181827   0.700   5.783   6.292  0.4843  1.2654  1.4627
20112TIP3    H281828   0.613   5.683   6.365  1.5131  0.7025  1.9233
20113TIP3   OH281829   5.341   4.947   4.859  0.3259  0.0403  0.2882
20113TIP3    H181830   5.380   4.873   4.905  1.1369  0.2782  0.0004
20113TIP3    H281831   5.255   4.959   4.901  0.7947 -0.1324  1.3199
20114TIP3   OH281832   3.579   5.925  11.575 -0.0074 -0.5591  0.2454
20114TIP3    H181833   3.572   5.951  11.483 -2.7287  0.5913  0.7494
20114TIP3    H281834   3.489   5.917  11.605  0.8275  1.0779  3.3982
20115TIP3   OH281835   2.239   4.469  12.421 -0.5530  0.0498 -0.1972
20115TIP3    H181836   2.214   4.519  12.343  1.6516  0.9084 -0.3833
20115TIP3    H281837   2.334   4.479  12.427 -0.4512 -1.6545  1.4819
20116TIP3   OH281838   3.113   2.748   0.796  0.3793  0.9235  0.1754
20116TIP3    H181839   3.110   2.805   0.873  0.3258 -0.3520  1.1362
20116TIP3    H281840   3.101   2.807   0.722  0.6592  2.2049  1.1279
20117TIP3   OH281841   1.311   5.783   1.368  0.2578  0.2324 -0.0481
20117TIP3    H181842   1.382   5.792   1.431  1.5291  1.0522 -1.5570
20117TIP3    H281843   1.292   5.873   1.340  0.8170 -0.2148 -1.9815
20118TIP3   OH281844   2.709   6.148  14.668  0.4129  0.4546 -0.0517
20118TIP3    H181845   2.711   6.084  14.739  1.9126 -0.6961 -1.1072
20118TIP3    H281846   2.653   6.218  14.701 -1.1170 -1.3084  1.1952
20119TIP3   OH281847   0.840   4.934  16.781  0.3725 -0.1731 -0.2534
20119TIP3    H181848   0.896   4.956  16.856 -1.1109  1.8103  0.3480
20119TIP3    H281849   0.882   4.977  16.707 -0.6556  1.9317  0.3214
20120TIP3   OH281850   0.284   5.498   2.063 -0.0783  0.0283 -0.2358
20120TIP3    H181851   0.244   5.503   1.976  1.0808 -0.7856 -0.8147
20120TIP3    H281852   0.377   5.484   2.047  0.1436 -0.1644  1.1431
20121TIP3   OH281853   2.333   5.738  15.646 -0.2688 -0.6019 -0.0908
20121TIP3    H181854   2.323   5.655  15.693 -1.3111 -0.7389 -0.5484
20121TIP3    H281855   2.421   5.768  15.671  0.1116 -1.8121  0.1111
20122TIP3   OH281856   0.081   1.989   0.249 -0.0815  0.0361  0.3018
20122TIP3    H181857   0.119   2.007   0.163  2.5814  0.5114  1.5295
20122TIP3    H281858   0.035   1.905   0.238 -0.3025  0.3955 -1.7201
20123TIP3   OH281859   0.616   2.926  12.161 -0.0602  0.4796  0.4659
20123TIP3    H181860   0.679   2.958  12.226 -1.3922 -0.2472  2.1412
20123TIP3    H281861   0.551   2.995  12.153  0.4913  0.8917 -0.6922
20124TIP3   OH281862   1.264   6.283  13.320 -0.2890  0.3370 -0.1706
20124TIP3    H181863   1.356   6.266  13.298 -0.0485  0.4838  0.7161
20124TIP3    H281864   1.243   6.363  13.272 -0.1807 -0.1154 -0.9852
20125TIP3   OH281865   4.073   1.843   2.342 -0.0279  0.1667 -0.2491
20125TIP3    H181866   4.078   1.924   2.290  1.4108  1.0526  1.2142
20125TIP3    H281867   4.153   1.796   2.320 -0.5451 -0.5536 -0.5895
20126TIP3   OH281868   4.967   6.170   4.927  0.5855 -0.1628 -0.4417
20126TIP3    H181869   5.025   6.242   4.955 -1.3888  1.4739 -0.4584
20126TIP3    H281870   4.892   6.214   4.888  0.4497 -2.3175 -2.6877
20127TIP3   OH281871   2.943   5.032   1.034 -0.5795 -0.5266  0.3686
20127TIP3    H181872   2.996   5.106   1.006 -1.0199  0.1695  1.3742
20127TIP3    H281873   2.881   5.018   0.962 -0.4689  0.0588  0.1601
20128TIP3   OH281874   1.733   1.996  14.672  0.2130 -0.4318 -0.1720
20128TIP3    H181875   1.639   1.982  14.683  0.3179 -0.2436  1.0555
20128TIP3    H281876   1.739   2.058  14.599 -0.6515  0.0175  0.1220
20129TIP3   OH281877   1.692   3.067   0.049 -0.3862  0.2353  0.3590
20129TIP3    H181878   1.744   3.144   0.026  0.5543 -0.4160  0.2829
20129TIP3    H281879   1.722   3.043   0.137 -1.2483  0.4339  0.7095
20130TIP3   OH281880   4.127   0.760   6.177 -0.2520 -0.4150 -0.1313
20130TIP3    H181881   4.182   0.717   6.242 -2.7242 -1.4046  1.3480
20130TIP3    H281882   4.068   0.816   6.228 -0.0798  1.3122 -1.7520
20131TIP3   OH281883   3.876   4.762   2.673  0.6609 -0.0635 -0.7420
20131TIP3    H181884   3.872   4.695   2.605 -2.5450  0.1908 -0.8758
20131TIP3    H281885   3.784   4.779   2.696  1.4521  3.2362  0.2974
20132TIP3   OH281886   1.943   4.885  16.700  0.1210  0.2064 -0.4894
20132TIP3    H181887   2.002   4.952  16.736  1.7482 -1.8431  0.7891
20132TIP3    H281888   1.971   4.875  16.609  0.3033  0.7887 -0.5016
20133TIP3   OH281889   3.258   2.011  17.199  0.1167 -0.1195 -0.3846
20133TIP3    H181890   3.234   2.079  17.135  0.1649  0.8039  0.5716
20133TIP3    H281891   3.181   1.954  17.203 -0.5773  0.8397  0.0502
20134TIP3   OH281892   2.304   2.676  13.918 -0.5245 -0.5423  0.4356
20134TIP3    H181893   2.286   2.766  13.947  0.0995 -0.5365  0.7996
20134TIP3    H281894   2.385   2.652  13.961 -0.1832 -0.9385 -0.4108
20135TIP3   OH281895   5.523   0.712  11.157  0.1664  0.3375 -0.0643
20135TIP3    H181896   5.525   0.702  11.062  1.5093  0.1900 -0.0307
20135TIP3    H281897   5.604   0.671  11.187 -0.2214  0.4393  1.1416
20136TIP3   OH281898   2.287   6.301   3.169  0.1789  0.4371 -0.5184
20136TIP3    H181899   2.203   6.266   3.139  1.1436 -1.8616 -0.6302
20136TIP3    H281900   2.346   6.226   3.169  1.9013  1.7416  0.8825
20137TIP3   OH281901   3.758   6.213   0.479 -0.0885  0.4196  0.7310
20137TIP3    H181902   3.767   6.307   0.494  1.1902  0.3734  0.2972
20137TIP3    H281903   3.840   6.175   0.510 -0.4387 -0.5145  0.5418
20138TIP3   OH281904   2.144   3.514   0.377 -0.5243  0.4042 -0.3315
20138TIP3    H181905   2.234   3.492   0.403 -0.0559  2.7640  0.1028
20138TIP3    H281906   2.091   3.487   0.452 -0.1560 -0.6454 -0.4323
20139TIP3   OH281907   5.620   0.706   2.593  0.4237 -0.0321  0.0604
20139TIP3    H181908   5.577   0.727   2.511  1.0870 -1.6157 -0.7142
20139TIP3    H281909   5.622   0.610   2.595  0.8167 -0.0033  1.7028
20140TIP3   OH281910   0.559   0.483   4.275 -0.3226 -0.5866 -0.2513
20140TIP3    H181911   0.526   0.547   4.338 -0.1647 -1.1433  0.4098
20140TIP3    H281912   0.538   0.398   4.314  0.4518 -0.9390 -0.5854
20141TIP3   OH281913   4.444   1.506  14.891  0.0058  0.4022  0.2771
20141TIP3    H181914   4.475   1.597  14.892  1.3815 -0.0623  0.2694
20141TIP3    H281915   4.379   1.502  14.961 -0.6171  1.5772 -0.2151
20142TIP3   OH281916   2.817   1.226   3.972  0.2242 -0.7298 -0.6260
20142TIP3    H181917   2.814   1.138   4.009 -1.0982  0.4081  2.1816
20142TIP3    H281918   2.737   1.233   3.920  0.1315 -1.0668 -0.5292
20143TIP3   OH281919   2.033   4.493   1.381 -0.1749 -0.8925 -0.0973
20143TIP3    H181920   2.035   4.446   1.464  0.7173 -1.9432 -0.6964
20143TIP3    H281921   2.062   4.581   1.403  2.1266 -1.7279  0.3742
20144TIP3   OH281922   4.725   3.226  12.152  0.1133  0.4474 -0.0909
20144TIP3    H181923   4.712   3.291  12.083  0.2139  0.5446 -0.0177
20144TIP3    H281924   4.795   3.262  12.206 -1.3140  1.3141  1.2063
20145TIP3   OH281925   3.260   6.346   3.881 -0.0097  0.5239 -0.3255
20145TIP3    H181926   3.268   6.347   3.786  1.0320  1.2039 -0.2423
20145TIP3    H281927   3.349   6.330   3.913 -0.5545 -0.9121  0.5186
20146TIP3   OH281928   3.614   4.759   0.445  0.2079  0.1202  0.1361
20146TIP3    H181929   3.676   4.687   0.460 -0.9972 -0.9539  0.0632
20146TIP3    H281930   3.538   4.737   0.499  0.1798  1.8249  0.8290
20147TIP3   OH281931   6.758   1.477   2.915  0.2712  0.1599  0.0159
20147TIP3    H181932   6.783   1.559   2.871  2.2752 -0.3891  0.0725
20147TIP3    H281933   6.778   1.493   3.008 -1.7893  0.5049  0.4301
20148TIP3   OH281934   0.112   0.200   0.979  0.6986 -0.4223  0.0262
20148TIP3    H181935   0.157   0.284   0.988  0.8360 -0.4209 -0.6401
20148TIP3    H281936   0.147   0.162   0.899 -1.1845  0.0017 -1.0283
20149TIP3   OH281937   6.727   5.495  16.726 -0.1108  0.4751  0.0277
20149TIP3    H181938   6.741   5.424  16.664  2.4945  0.2971  0.7600
20149TIP3    H281939   6.780   5.568  16.692 -0.3011  1.0387  0.9120
20150TIP3   OH281940   2.204   2.513  10.919 -0.0142  0.3870 -0.6145
20150TIP3    H181941   2.291   2.539  10.950  0.3388 -1.1091 -0.3009
20150TIP3    H281942   2.215   2.497  10.825  0.0153  0.3613 -0.6074
20151TIP3   OH281943   6.347   2.928   1.761  0.1917 -0.1074 -0.0063
20151TIP3    H181944   6.357   2.997   1.696 -0.0161 -0.2252 -0.1679
20151TIP3    H281945   6.252   2.918   1.771  0.1591 -1.8430 -1.5939
20152TIP3   OH281946   5.197   6.334  16.908  0.4827  0.4146  0.6599
20152TIP3    H181947   5.160   6.270  16.969 -0.7262  0.2345 -0.2335
20152TIP3    H281948   5.121   6.366  16.859  1.6381 -0.9589 -2.1555
20153TIP3   OH281949   1.580   1.038  12.789  0.2435  0.2159  0.1332
20153TIP3    H181950   1.674   1.024  12.780  0.4000  1.1230  0.3053
20153TIP3    H281951   1.561   1.110  12.728 -0.4084 -0.2324 -0.1946
20154TIP3   OH281952   5.416   1.114   3.975  0.3171 -0.5988 -0.7251
20154TIP3    H181953   5.412   1.176   4.048  1.6652  0.8829 -1.8761
20154TIP3    H281954   5.444   1.032   4.015  3.0418  0.7060  0.1604
20155TIP3   OH281955   1.292   1.528   6.241 -0.4354 -0.3582  0.0715
20155TIP3    H181956   1.240   1.470   6.187 -1.0513 -0.0650  0.3489
20155TIP3    H281957   1.366   1.474   6.271 -0.7949 -0.8812  0.0136
20156TIP3   OH281958   5.897   2.315   2.220  0.5395 -0.3262 -0.6268
20156TIP3    H181959   5.941   2.385   2.270  1.7687 -1.1600 -0.5274
20156TIP3    H281960   5.952   2.303   2.143 -0.6401  0.0299 -1.5260
20157TIP3   OH281961   3.910   4.163   1.174  0.3117  0.2118 -0.3029
20157TIP3    H181962   3.992   4.204   1.200  0.3921  0.5238 -1.0353
20157TIP3    H281963   3.851   4.179   1.249  0.8765  0.0850  0.1731
20158TIP3   OH281964   5.047   5.897   4.162 -0.7496  0.3177  0.1541
20158TIP3    H181965   5.109   5.969   4.148 -0.1271 -0.3328 -0.4499
20158TIP3    H281966   4.974   5.917   4.103 -0.6526  0.5398  0.1063
20159TIP3   OH281967   1.299   3.502  16.727  0.3714 -0.1351 -0.5159
20159TIP3    H181968   1.361   3.565  16.689  1.9359 -1.0126  0.4874
20159TIP3    H281969   1.269   3.543  16.807  1.2037 -0.5356  0.0136
20160TIP3   OH281970   6.387   4.612   6.210 -0.0483  0.1892  0.3340
20160TIP3    H181971   6.400   4.523   6.242  3.2156  1.0759  1.6734
20160TIP3    H281972   6.432   4.613   6.126  0.2635  0.6890  0.5085
20161TIP3   OH281973   0.365   0.435  14.512  0.6141  0.1466 -0.0410
20161TIP3    H181974   0.371   0.527  14.485  0.2321  0.6007  1.3938
20161TIP3    H281975   0.433   0.391  14.461  1.5007  1.4086  0.0284
20162TIP3   OH281976   1.437   2.716  13.358  0.3021  0.2214 -0.1439
20162TIP3    H181977   1.461   2.655  13.289 -0.2518 -0.4950  0.2760
20162TIP3    H281978   1.467   2.801  13.327  1.7305 -0.3652 -0.4198
20163TIP3   OH281979   1.371   2.585  10.847 -0.4874 -0.1463 -0.5269
20163TIP3    H181980   1.424   2.548  10.918 -1.8175  1.1241  1.2037
20163TIP3    H281981   1.302   2.520  10.833 -0.6344 -0.0764 -0.1410
20164TIP3   OH281982   3.458   5.472  13.799 -0.0719  0.1837  0.2843
20164TIP3    H181983   3.398   5.546  13.794 -0.7310 -0.4171 -1.1853
20164TIP3    H281984   3.537   5.502  13.753 -0.3442 -0.0183 -0.3239
20165TIP3   OH281985   4.344   3.568   3.173  1.0013 -0.2801 -0.2544
20165TIP3    H181986   4.340   3.475   3.153 -1.2861 -0.5209  1.1655
20165TIP3    H281987   4.259   3.602   3.144  0.6925  0.7962  1.8356
20166TIP3   OH281988   5.489   2.639   1.850  0.4253 -0.6095  0.8770
20166TIP3    H181989   5.518   2.548   1.860  1.4453 -0.0821  2.9258
20166TIP3    H281990   5.399   2.631   1.817  1.1739 -2.3151 -0.8580
20167TIP3   OH281991   6.748   3.750  13.702 -0.1452 -0.0215 -0.5005
20167TIP3    H181992   6.700   3.690  13.644 -0.1619 -0.9968  0.4880
20167TIP3    H281993   6.725   3.837  13.671 -1.4622 -0.4990 -0.9185
20168TIP3   OH281994   1.999   0.656  11.514 -0.4363 -0.0131 -0.1738
20168TIP3    H181995   1.959   0.628  11.596 -0.7624 -1.3969 -0.7850
20168TIP3    H281996   2.037   0.742  11.533  1.3404 -1.2467  2.0153
20169TIP3   OH281997   3.166   3.231   4.784 -0.3897 -0.4530  0.2937
20169TIP3    H181998   3.256   3.233   4.815  1.0966 -4.2946 -3.2309
20169TIP3    H281999   3.173   3.248   4.690 -3.6742  1.8311  0.3760
20170TIP3   OH282000   5.448   3.050   1.347  0.6453  0.7104  0.5556
20170TIP3    H182001   5.524   2.993   1.364 -0.0143 -0.3186  0.1468
20170TIP3    H282002   5.374   2.989   1.344 -0.2687  1.7745  1.4818
20171TIP3   OH282003   0.350   5.901  11.150  0.1248  0.2347  0.4417
20171TIP3    H182004   0.256   5.896  11.135  0.1393  3.3262 -0.9654
20171TIP3    H282005   0.389   5.842  11.085 -0.8593 -2.0402  1.8666
20172TIP3   OH282006   0.895   1.289   2.536  0.2770  1.1435 -0.2047
20172TIP3    H182007   0.965   1.267   2.474 -0.3302  1.2108 -0.9176
20172TIP3    H282008   0.818   1.301   2.482 -0.6119 -0.3152  0.7053
20173TIP3   OH282009   4.741   0.964   0.371  0.2166  0.0620 -0.6895
20173TIP3    H182010   4.802   0.979   0.298 -0.2221 -1.4584 -1.3930
20173TIP3    H282011   4.664   1.016   0.350  0.8951  1.2315 -0.2846
20174TIP3   OH282012   5.919   3.238   4.388  0.7108 -0.1462 -0.7012
20174TIP3    H182013   5.872   3.160   4.419  0.9372 -0.3875 -0.9661
20174TIP3    H282014   5.851   3.294   4.352  0.7618 -1.0433 -2.2508
20175TIP3   OH282015   2.679   2.618   2.043  0.3533  0.3292 -0.2109
20175TIP3    H182016   2.585   2.634   2.048  0.4412  0.6399  0.4202
20175TIP3    H282017   2.693   2.592   1.952 -0.1593  1.5127 -0.6480
20176TIP3   OH282018   3.195   1.440  16.641  0.4595  0.3269  0.3065
20176TIP3    H182019   3.206   1.454  16.735  2.8401  1.0658 -0.0410
20176TIP3    H282020   3.159   1.523  16.609 -0.3108  0.0904  0.5324
20177TIP3   OH282021   6.169   6.472   0.616  0.3163 -0.6933  0.3891
20177TIP3    H182022   6.163   6.421   0.535  1.7151  1.1514 -0.9013
20177TIP3    H282023   6.078   6.489   0.640 -0.0958 -0.9892 -0.9500
20178TIP3   OH282024   4.277   4.358  13.319 -0.4217 -0.0877 -0.2897
20178TIP3    H182025   4.222   4.427  13.281 -1.8599 -0.6581  0.6839
20178TIP3    H282026   4.364   4.397  13.324 -1.2488  1.7615  0.4299
20179TIP3   OH282027   5.285   4.744   5.679  0.1667  0.1641 -0.2665
20179TIP3    H182028   5.366   4.697   5.697  1.3747  2.1773 -0.2725
20179TIP3    H282029   5.273   4.802   5.754 -1.2726 -0.1237 -0.2612
20180TIP3   OH282030   5.152   5.489  14.761  0.1249 -0.2356  0.5595
20180TIP3    H182031   5.228   5.513  14.708  1.5197 -2.4906  1.4391
20180TIP3    H282032   5.155   5.547  14.837  1.5346 -0.9232  1.0493
20181TIP3   OH282033   1.417   1.891   1.265 -0.5850 -0.6992 -0.4579
20181TIP3    H182034   1.330   1.850   1.260 -0.4647 -0.7177 -3.0895
20181TIP3    H282035   1.401   1.983   1.245 -0.1121 -0.5313 -0.0576
20182TIP3   OH282036   4.458   2.067  13.744 -0.0688  0.5667  0.1212
20182TIP3    H182037   4.393   2.047  13.677  1.3270  0.5941 -1.2514
20182TIP3    H282038   4.500   2.147  13.713  1.0453  0.2097  0.7034
20183TIP3   OH282039   0.603   5.291  12.682 -0.7596  0.2732  0.2053
20183TIP3    H182040   0.622   5.199  12.701  2.0606  0.4626 -1.4365
20183TIP3    H282041   0.615   5.336  12.766  1.5173 -0.3393  0.2298
20184TIP3   OH282042   1.254   5.337   4.185 -0.3572  0.0386 -0.2336
20184TIP3    H182043   1.191   5.299   4.245 -0.4172  0.7340  0.1371
20184TIP3    H282044   1.336   5.291   4.205 -0.8008 -1.1092 -0.9507
20185TIP3   OH282045   4.638   4.842  14.587 -0.0677 -0.1979 -0.4669
20185TIP3    H182046   4.704   4.820  14.521 -1.2891 -0.5419 -1.5982
20185TIP3    H282047   4.661   4.788  14.662  1.1680 -0.0205 -0.7088
20186TIP3   OH282048   5.947   0.512  14.525  0.1213  0.3441 -0.1250
20186TIP3    H182049   5.942   0.437  14.583  1.0954 -0.8055 -1.4924
20186TIP3    H282050   5.870   0.565  14.547 -2.1138 -2.4100 -0.9585
20187TIP3   OH282051   4.696   2.673   0.963  0.2993 -0.3415  0.0480
20187TIP3    H182052   4.720   2.758   0.929 -0.4201 -0.6264 -1.1722
20187TIP3    H282053   4.777   2.621   0.958  0.6796  0.1852  0.5986
20188TIP3   OH282054   4.025   0.479   2.611  0.5022 -0.6783 -0.4141
20188TIP3    H182055   4.089   0.409   2.598 -0.6944 -2.2663  1.8369
20188TIP3    H282056   3.963   0.469   2.539  0.6687 -1.5852 -0.4413
20189TIP3   OH282057   5.900   5.592  15.829  0.4843  0.1520 -0.1813
20189TIP3    H182058   5.849   5.653  15.776 -2.5325 -2.3500 -0.3036
20189TIP3    H282059   5.886   5.621  15.919  1.0442  1.0607 -0.3818
20190TIP3   OH282060   4.107   2.263   2.681 -0.3240  0.2591 -0.2470
20190TIP3    H182061   4.180   2.215   2.640 -0.4592 -1.1191  1.1069
20190TIP3    H282062   4.030   2.234   2.632 -0.2751 -0.1528 -0.0866
20191TIP3   OH282063   4.846   4.382   2.939  0.1943  0.0797  0.1920
20191TIP3    H182064   4.887   4.464   2.967 -0.4767  0.9564 -1.3065
20191TIP3    H282065   4.757   4.387   2.973 -0.3982  0.8182 -1.4133
20192TIP3   OH282066   3.745   1.972   1.593 -0.1871 -0.9721 -0.2659
20192TIP3    H182067   3.804   1.912   1.639  1.1455  0.6598  0.1978
20192TIP3    H282068   3.727   2.041   1.657 -1.6625 -0.8421 -0.8137
20193TIP3   OH282069   3.497   2.392  13.870  0.4424 -0.0923 -0.1699
20193TIP3    H182070   3.481   2.472  13.819  1.2963  0.4616  0.4163
20193TIP3    H282071   3.582   2.406  13.910  0.8044 -1.4938 -0.4128
20194TIP3   OH282072   0.610   1.145  17.168  0.0385 -0.2713 -0.1224
20194TIP3    H182073   0.684   1.174  17.115 -0.4324  0.0311 -0.6173
20194TIP3    H282074   0.540   1.209  17.149 -1.5343 -2.5862 -2.4441
20195TIP3   OH282075   2.985   6.817   1.598 -0.4031  0.1230  0.0686
20195TIP3    H182076   3.018   6.779   1.517 -0.0862  1.6556 -0.5369
20195TIP3    H282077   2.938   6.896   1.570 -1.7046 -0.2245  1.2245
20196TIP3   OH282078   2.760   5.465   5.700  0.0058  0.7593 -0.3194
20196TIP3    H182079   2.728   5.539   5.751  0.2711  0.9918 -0.4861
20196TIP3    H282080   2.773   5.395   5.763  1.4370  1.3947  0.1147
20197TIP3   OH282081   0.270   6.125   5.280 -0.9119  0.3985 -0.2458
20197TIP3    H182082   0.340   6.127   5.346 -0.2583  2.1388 -0.9542
20197TIP3    H282083   0.284   6.043   5.233 -1.0976 -0.6325  1.4690
20198TIP3   OH282084   3.372   3.276   1.198  0.0622  0.2745 -0.0767
20198TIP3    H182085   3.310   3.273   1.271 -0.7947 -1.1050 -0.8309
20198TIP3    H282086   3.338   3.346   1.141  0.7949  1.4249  0.8855
20199TIP3   OH282087   4.149   3.259   6.242 -0.0569  0.4386  0.3880
20199TIP3    H182088   4.150   3.335   6.301  1.0119  1.3425 -0.7547
20199TIP3    H282089   4.241   3.240   6.227 -0.3199  0.3115 -1.0961
20200TIP3   OH282090   0.389   4.120  17.226 -0.0337 -0.2856 -0.2587
20200TIP3    H182091   0.358   4.106  17.136  0.2235 -0.3704 -0.3335
20200TIP3    H282092   0.480   4.145  17.216 -0.5589  1.7384 -0.1350
20201TIP3   OH282093   2.009   2.402   3.173 -0.0644  0.6491  0.2033
20201TIP3    H182094   2.047   2.342   3.237 -0.0569  1.2187  0.7458
20201TIP3    H282095   1.947   2.454   3.223 -0.8508  0.3793 -0.4844
20202TIP3   OH282096   6.202   0.055   3.965 -0.0894 -0.2819 -0.1269
20202TIP3    H182097   6.232   0.062   4.056  0.3304 -0.4473 -0.2521
20202TIP3    H282098   6.200   0.145   3.933  2.2612 -0.4213 -0.7524
20203TIP3   OH282099   3.080   4.590  13.599 -0.0954  0.1893 -0.0329
20203TIP3    H182100   3.047   4.536  13.671  1.9366  0.3575  1.0255
20203TIP3    H282101   3.068   4.534  13.521 -1.9788 -0.1133  0.4345
20204TIP3   OH282102   3.504   1.209   2.597  0.0014 -0.0632 -0.3656
20204TIP3    H182103   3.573   1.179   2.656  0.5782 -0.6705 -1.3292
20204TIP3    H282104   3.550   1.265   2.534 -0.1853 -1.3619 -1.6794
20205TIP3   OH282105   1.653   5.942   5.977  0.2328  0.3651 -0.2924
20205TIP3    H182106   1.605   6.024   5.967  1.6601  1.4290  1.2863
20205TIP3    H282107   1.709   5.956   6.053  2.2598 -1.2035 -1.4346
20206TIP3   OH282108   3.990   1.821   3.311  0.2089  0.4907 -0.1264
20206TIP3    H182109   3.957   1.754   3.370  0.2903  0.9471  0.4397
20206TIP3    H282110   4.083   1.829   3.334  0.6036 -0.4327 -1.3680
20207TIP3   OH282111   5.564   4.097  13.046  0.0303 -0.0205  0.1999
20207TIP3    H182112   5.497   4.042  13.087 -0.2990 -1.3915 -2.0994
20207TIP3    H282113   5.516   4.151  12.984  0.7493  0.7896  0.3408
20208TIP3   OH282114   3.254   1.692  15.389  0.6328  0.2999  0.4011
20208TIP3    H182115   3.209   1.713  15.471  1.0475 -0.0185  0.7118
20208TIP3    H282116   3.279   1.600  15.398 -0.0698  0.0241 -0.4426
20209TIP3   OH282117   6.751   1.423   4.823 -0.5152  0.6391 -0.1983
20209TIP3    H182118   6.831   1.469   4.849 -0.9552  1.9906 -1.1847
20209TIP3    H282119   6.688   1.492   4.806 -1.6933 -0.4005 -0.0952
20210TIP3   OH282120   0.038   3.777  16.821  0.1002  0.2482 -0.3816
20210TIP3    H182121  -0.001   3.711  16.878  0.2136 -0.0978 -0.6969
20210TIP3    H282122   0.110   3.731  16.777  0.1329  0.5591 -0.6581
20211TIP3   OH282123   5.725   0.440  12.300  0.8147  0.4322  0.3934
20211TIP3    H182124   5.683   0.520  12.330 -0.7603 -1.0442  2.2353
20211TIP3    H282125   5.653   0.382  12.274  1.8523 -0.9156  0.4045
20212TIP3   OH282126   2.704   5.400  13.723 -0.2203  0.2873  0.2448
20212TIP3    H182127   2.785   5.399  13.672 -0.1589  0.8810  0.3357
20212TIP3    H282128   2.671   5.310  13.716  0.3023  0.1117 -0.0169
20213TIP3   OH282129   0.919   4.974   5.444 -0.1326 -0.6934  0.5188
20213TIP3    H182130   0.843   5.025   5.474  1.8934  1.6937  1.7309
20213TIP3    H282131   0.990   5.038   5.439  1.4219 -2.5473 -2.2618
20214TIP3   OH282132   1.388   4.747  16.822 -0.1091 -0.3578 -0.5161
20214TIP3    H182133   1.451   4.813  16.850 -0.3017 -0.4406  0.1053
20214TIP3    H282134   1.443   4.676  16.786  0.2077 -0.8394  0.8773
20215TIP3   OH282135   4.730   5.775  14.371 -0.3114  0.2052  0.2663
20215TIP3    H182136   4.664   5.711  14.344  0.5298 -0.3685 -0.4584
20215TIP3    H282137   4.783   5.790  14.292 -0.7994  2.1788  0.2772
20216TIP3   OH282138   2.777   1.350  12.923  0.8296  0.2549 -0.0697
20216TIP3    H182139   2.795   1.400  13.003 -0.1450 -0.6936  0.7492
20216TIP3    H282140   2.841   1.279  12.924  0.7649  0.1959 -0.0857
20217TIP3   OH282141   4.567   0.465   6.001  0.0987  0.2896 -0.7706
20217TIP3    H182142   4.622   0.403   6.050  0.3203  0.0880 -1.2688
20217TIP3    H282143   4.627   0.508   5.941 -0.2765  0.1138 -1.2744
20218TIP3   OH282144   0.453   3.566  14.118  0.3113  0.2681  0.4574
20218TIP3    H182145   0.417   3.481  14.096 -0.4632  0.5197  0.7524
20218TIP3    H282146   0.387   3.629  14.090  1.2153  0.8217 -0.4720
20219TIP3   OH282147   1.634   4.731   6.305  0.2363 -0.0069  0.2038
20219TIP3    H182148   1.700   4.763   6.367  2.3850  0.6813 -2.3465
20219TIP3    H282149   1.582   4.809   6.283 -0.5987 -0.2751  1.2051
20220TIP3   OH282150   5.538   5.045   0.601 -0.7195  0.1062  0.0927
20220TIP3    H182151   5.467   5.063   0.663  0.7320  1.3667  1.4647
20220TIP3    H282152   5.617   5.046   0.655  0.5747  1.1343 -1.7699
20221TIP3   OH282153   5.737   4.416   5.648  0.6963  0.1414  0.7130
20221TIP3    H182154   5.758   4.349   5.583 -0.0705  0.9494 -0.3805
20221TIP3    H282155   5.729   4.497   5.598 -1.0020  0.5815  1.6337
20222TIP3   OH282156   6.012   6.456  15.301  0.0141 -0.3991 -0.6449
20222TIP3    H182157   5.941   6.423  15.356  0.1326  1.2245  0.5116
20222TIP3    H282158   6.069   6.503  15.361  2.3869 -2.1167 -1.4520
20223TIP3   OH282159   3.354   1.676  13.179 -0.0465 -0.7228  0.1484
20223TIP3    H182160   3.264   1.655  13.204  0.0249 -0.3754  0.7249
20223TIP3    H282161   3.408   1.630  13.243  0.1485 -0.0365  0.4869
20224TIP3   OH282162   0.390   6.591   0.890 -0.5003 -0.3372  0.7111
20224TIP3    H182163   0.424   6.524   0.951  1.7233  0.3864  0.3133
20224TIP3    H282164   0.349   6.656   0.947 -2.8883 -2.0890  1.0971
20225TIP3   OH282165   0.010   6.249   5.408  0.3669  0.0613  0.1821
20225TIP3    H182166   0.065   6.188   5.359 -0.9133 -0.8843 -0.1016
20225TIP3    H282167  -0.037   6.299   5.341  0.9230  0.9213  0.4224
20226TIP3   OH282168   0.472   3.695  15.359 -0.1186  0.3168  0.3240
20226TIP3    H182169   0.406   3.661  15.300 -0.9280  2.2561  0.0935
20226TIP3    H282170   0.466   3.790  15.351  1.6773  0.5564  1.4101
20227TIP3   OH282171   2.164   6.413   3.873 -0.1773  0.1978  0.0713
20227TIP3    H182172   2.239   6.397   3.931 -0.2098 -1.3019 -0.2830
20227TIP3    H282173   2.164   6.339   3.813 -2.6434 -0.4062  0.7768
20228TIP3   OH282174   6.413   5.598   5.321  0.2742 -0.0658 -0.3666
20228TIP3    H182175   6.505   5.624   5.318  0.1765  0.1901 -1.2262
20228TIP3    H282176   6.377   5.645   5.396  1.0406 -0.8288  0.4935
20229TIP3   OH282177   0.565   0.196  14.843  1.2315  0.2386 -0.2574
20229TIP3    H182178   0.482   0.217  14.802  1.2649  0.9270  0.0219
20229TIP3    H282179   0.546   0.123  14.901  1.3114 -1.1592 -1.9634
20230TIP3   OH282180   2.990   6.487  15.196  0.1296 -0.1053 -0.0424
20230TIP3    H182181   3.062   6.429  15.220  0.2134 -0.2363 -0.5987
20230TIP3    H282182   2.982   6.548  15.270 -0.1364 -0.9822  0.6707
20231TIP3   OH282183   0.842   1.532  15.359  0.8060 -0.1436  0.4265
20231TIP3    H182184   0.930   1.509  15.388  1.5145  1.7890 -0.1166
20231TIP3    H282185   0.842   1.512  15.265  0.5606 -0.4005  0.4773
20232TIP3   OH282186   6.578   4.930   2.045 -0.2366  0.2048 -0.2250
20232TIP3    H182187   6.503   4.988   2.045 -0.7530 -0.4566 -0.6830
20232TIP3    H282188   6.541   4.842   2.055  0.2820 -0.3625 -3.0271
20233TIP3   OH282189   1.564   4.731  12.639  0.5991 -0.1170  0.3417
20233TIP3    H182190   1.586   4.667  12.707  1.8084 -1.6450 -1.4309
20233TIP3    H282191   1.616   4.808  12.661  2.8270 -1.4271 -0.1583
20234CLA    CLA82192   3.368   1.229  17.255 -0.1909 -0.0372 -0.2726
20235LIG     O182193   3.256   3.227  15.914 -0.1843  0.2018  0.0628
20235LIG     O282194   3.274   3.107  16.129 -0.1942 -0.0089  0.7635
20235LIG     O382195   2.780   3.936  16.246 -0.9512 -0.0424 -0.1821
20235LIG     O482196   3.182   3.916  16.209  0.2247 -0.1455 -0.1992
20235LIG      N82197   2.974   3.248  16.084  0.3134  0.6250 -1.0014
20235LIG     C182198   3.119   3.300  16.105  0.3031  0.2764  0.0424
20235LIG     C282199   2.875   3.304  16.182 -0.0237 -0.1942 -0.2936
20235LIG     C382200   2.931   3.269  15.941 -0.3018  0.4877 -0.3975
20235LIG     C482201   2.973   3.097  16.098  0.8240  0.5582 -0.6842
20235LIG     C582202   3.247   3.234  16.058 -0.0228  0.9965 -0.1092
20235LIG     C682203   2.901   3.445  16.186  0.0469  0.0303  0.1974
20235LIG     C782204   2.963   3.504  16.294  0.4352  0.1837 -0.6082
20235LIG     C882205   2.828   3.533  16.108  0.3475  0.8493  0.4008
20235LIG     C982206   2.957   3.642  16.320 -0.6960 -0.1348 -0.0890
20235LIG    C1082207   2.822   3.676  16.133  0.0426 -0.1291 -0.1724
20235LIG    C1182208   3.326   3.335  15.860  0.2501 -0.7711 -0.4710
20235LIG    C1282209   3.397   3.053  16.097 -0.2227 -0.1448  0.5498
20235LIG    C1382210   2.898   3.731  16.232  0.0020 -0.3911 -0.4044
20235LIG    C1482211   3.303   3.344  15.718 -0.1275  0.6096 -0.5549
20235LIG    C1582212   3.428   2.932  16.184  0.1150  0.3064 -0.0870
20235LIG    C1682213   2.879   3.867  16.277 -0.2983  0.3726  0.7950
20235LIG    C1782214   2.981   3.932  16.364  0.1722 -0.4869  0.1946
20235LIG    C1882215   3.124   3.940  16.338  0.1710  0.8668 -0.6424
20235LIG    C1982216   2.946   3.969  16.494  0.6025 -0.2061 -0.3519
20235LIG    C2082217   3.220   3.992  16.435  0.0892  0.2033 -0.0217
20235LIG    C2182218   3.172   4.025  16.560 -0.5180 -0.9563 -0.1825
20235LIG    C2282219   3.039   4.012  16.597 -0.4867  0.0547  0.1169
20235LIG    C2382220   3.265   4.085  16.660  0.4729 -0.2441  0.0446
20235LIG     H182221   3.133   3.314  16.211 -0.4929  1.7504 -0.0393
20235LIG     H282222   3.126   3.400  16.065  1.4270 -1.3075 -4.0853
20235LIG     H382223   2.898   3.265  16.281  1.6381  1.0522 -0.1776
20235LIG     H482224   2.772   3.299  16.151 -0.8353 -0.9438  2.3515
20235LIG     H582225   2.987   3.203  15.875 -0.6238 -1.8050  1.5408
20235LIG     H682226   2.943   3.370  15.905 -0.1387  0.9171  0.8441
20235LIG     H782227   2.829   3.236  15.929 -0.0825 -0.1565 -0.5690
20235LIG     H882228   2.995   3.075  16.202  2.5338  0.4999 -1.0385
20235LIG     H982229   3.060   3.052  16.052 -0.6730 -4.3419  0.9036
20235LIG    H1082230   2.882   3.056  16.057  0.0713  0.2602  1.2007
20235LIG    H1182231   3.330   3.296  16.098  0.6561  0.8758 -1.3040
20235LIG    H1282232   3.006   3.443  16.372 -1.6528 -0.2415  0.2726
20235LIG    H1382233   2.772   3.496  16.024 -0.7987  2.5314  0.3859
20235LIG    H1482234   3.005   3.683  16.408 -2.7550  2.0927  0.0348
20235LIG    H1582235   2.759   3.733  16.066 -0.7400 -0.8234 -0.0366
20235LIG    H1682236   3.432   3.317  15.889  0.7179  1.4507 -0.7034
20235LIG    H1782237   3.282   3.426  15.905  0.9567 -1.8686  2.5975
20235LIG    H1882238   3.471   3.132  16.122  0.5806 -0.5988 -0.3274
20235LIG    H1982239   3.404   3.023  15.990  4.2132  1.5845  0.2216
20235LIG    H2082240   3.356   3.433  15.677  1.1179  1.3042  2.4471
20235LIG    H2182241   3.200   3.367  15.685 -0.1004  1.5539  0.0075
20235LIG    H2282242   3.343   3.253  15.668  0.1927  1.0122 -1.0470
20235LIG    H2382243   3.371   2.843  16.149  0.2382  0.9143 -1.8860
20235LIG    H2482244   3.410   2.946  16.293 -0.2872 -0.2523 -0.0793
20235LIG    H2582245   3.535   2.904  16.176  0.1110 -0.0535  0.9646
20235LIG    H2682246   2.843   3.956  16.523 -0.5459  3.0421 -2.7405
20235LIG    H2782247   3.326   4.000  16.418  0.2483  2.0179  1.6721
20235LIG    H2882248   3.000   4.044  16.693  0.8867  1.7513  0.1481
20235LIG    H2982249   3.202   4.107  16.749 -0.3880  0.7206 -0.7821
20235LIG    H3082250   3.301   4.183  16.622 -0.6414  0.6043  1.1016
20235LIG    H3182251   3.340   4.007  16.682 -2.0404 -2.1941  2.0634
20235LIG    H3282252   3.265   3.964  16.201  1.3890 -2.2589 -1.3484
   6.82013   6.82013  17.29240
